Title
82296
    1SAPS     N    1   4.077   1.627  11.144 -0.4624 -0.0904  0.1172
    1SAPS   HN1    2   4.173   1.648  11.110 -1.5643  0.7826 -2.5707
    1SAPS   HN2    3   4.015   1.642  11.062  0.0097 -2.6095 -0.7267
    1SAPS   HN3    4   4.058   1.696  11.220  0.3274  0.8382 -0.5135
    1SAPS   C12    5   4.061   1.487  11.195 -0.4335  0.9318  0.1873
    1SAPS  H12A    6   4.099   1.482  11.296  1.3327 -1.4444 -0.5440
    1SAPS   C13    7   3.906   1.450  11.206 -0.5474 -0.2777  0.1604
    1SAPS  O13A    8   3.823   1.544  11.197  0.1721 -0.0614  0.6828
    1SAPS  O13B    9   3.866   1.337  11.251  0.0312  1.0210 -0.0249
    1SAPS   C11   10   4.142   1.393  11.102 -0.0224  0.4935 -0.0763
    1SAPS  H11A   11   4.083   1.377  11.010 -1.0771  0.0497  0.6654
    1SAPS  H11B   12   4.151   1.294  11.150 -1.0546  0.5195  0.1752
    1SAPS     P   13   4.395   1.369  11.022  0.2032 -0.4861 -0.2799
    1SAPS   O13   14   4.502   1.465  11.013  0.3874 -0.5892 -0.6339
    1SAPS   O14   15   4.434   1.254  11.108 -0.2210 -0.1740  0.2165
    1SAPS   O12   16   4.275   1.449  11.079  0.1100  0.3960  0.4104
    1SAPS   O11   17   4.354   1.319  10.875  0.1878  1.1404  0.3384
    1SAPS    C1   18   4.281   1.398  10.785  0.6779  0.2321 -0.0650
    1SAPS    HA   19   4.174   1.412  10.815  0.7376  0.2850  0.1253
    1SAPS    HB   20   4.325   1.500  10.774 -0.4923  0.4980 -2.5720
    1SAPS    C2   21   4.299   1.345  10.641  0.1918 -0.7103  0.2180
    1SAPS    HS   22   4.287   1.439  10.582 -0.1821  0.3284  1.9374
    1SAPS   O21   23   4.197   1.248  10.605  0.2884  0.0812  0.5647
    1SAPS   C21   24   4.132   1.260  10.487 -0.5394 -0.1755 -0.7566
    1SAPS   O22   25   4.132   1.364  10.423  0.1002  0.0272  1.0684
    1SAPS   C22   26   4.039   1.142  10.462  0.0545 -0.3020 -0.0501
    1SAPS   H2R   27   4.017   1.094  10.560 -0.5926 -0.2298 -0.1551
    1SAPS   H2S   28   3.948   1.184  10.414  0.2355  0.6030  0.3911
    1SAPS    C3   29   4.440   1.291  10.617 -0.1840 -0.1339  0.1178
    1SAPS    HX   30   4.448   1.201  10.681 -0.9614  1.1079  2.0202
    1SAPS    HY   31   4.509   1.376  10.635 -2.4888  1.4409  1.8476
    1SAPS   O31   32   4.465   1.250  10.478  0.1507 -0.5581  0.4556
    1SAPS   C31   33   4.590   1.208  10.458 -0.4160  0.5764 -0.2467
    1SAPS   O32   34   4.675   1.180  10.536  0.0002  0.3280  0.2347
    1SAPS   C32   35   4.620   1.202  10.306 -0.0251 -0.5528 -1.0322
    1SAPS   H2X   36   4.620   1.303  10.262  0.9098 -0.5019 -0.9141
    1SAPS   H2Y   37   4.525   1.156  10.270 -1.1186  0.0541  0.9993
    1SAPS   C23   38   4.094   1.031  10.375  0.1850 -0.2354 -0.4803
    1SAPS   H3R   39   4.054   0.936  10.417  3.1012 -1.4349 -0.2964
    1SAPS   H3S   40   4.200   1.017  10.405 -0.1839 -1.7559  0.1876
    1SAPS   C24   41   4.079   1.040  10.223  0.1492 -0.8459 -0.0147
    1SAPS   H4R   42   3.973   1.038  10.188 -0.3281 -1.0036  1.3859
    1SAPS   H4S   43   4.115   0.948  10.173 -1.5379 -0.6190 -1.7224
    1SAPS   C25   44   4.137   1.167  10.171  0.1076  0.8103 -0.0615
    1SAPS   H5R   45   4.190   1.235  10.240  2.2563 -1.6848  0.8794
    1SAPS   C26   46   4.153   1.194  10.038 -0.4472  0.1826 -0.4063
    1SAPS   H6R   47   4.214   1.285  10.024  2.5468 -1.4760  1.3485
    1SAPS   C27   48   4.115   1.105   9.925 -0.4619  0.0770  0.0569
    1SAPS   H7R   49   4.044   1.028   9.963  0.9145 -0.3858  1.7313
    1SAPS   H7S   50   4.208   1.057   9.888 -1.9019 -0.5202 -2.9593
    1SAPS   C28   51   4.056   1.202   9.828  0.4901 -0.8842 -0.2116
    1SAPS   H8R   52   4.013   1.293   9.873  1.7508 -0.0168 -0.7252
    1SAPS   C29   53   4.055   1.193   9.689 -0.3543  0.2185  0.3064
    1SAPS   H9R   54   4.003   1.273   9.634 -0.4014 -0.1303 -0.1548
    1SAPS  C210   55   4.122   1.079   9.614 -0.1559  0.4083 -0.0779
    1SAPS  H10R   56   4.060   0.988   9.626  0.5453 -0.2978 -1.5815
    1SAPS  H10S   57   4.222   1.052   9.654 -0.8050  2.0892  2.8071
    1SAPS  C211   58   4.129   1.100   9.462  0.1565  0.2234  0.0149
    1SAPS  H11R   59   4.207   1.169   9.425  1.0861  0.8234  2.9531
    1SAPS  C212   60   4.036   1.056   9.368 -0.0871 -1.4246 -0.6109
    1SAPS  H12R   61   4.068   1.071   9.264  1.3070 -0.7917 -0.1109
    1SAPS  C213   62   3.917   0.973   9.401 -0.6893  0.4328  0.2614
    1SAPS  H13R   63   3.826   1.030   9.373 -0.6680  0.3888  0.1028
    1SAPS  H13S   64   3.916   0.950   9.509 -0.4273 -2.2129 -0.2599
    1SAPS  C214   65   3.914   0.841   9.327  0.3248 -0.0907  0.6482
    1SAPS  H14R   66   3.879   0.752   9.382 -1.5119  0.7987  0.9515
    1SAPS  C215   67   3.898   0.818   9.195  0.3096 -0.1538 -0.8979
    1SAPS  H15R   68   3.907   0.711   9.172  1.5412 -0.9599  2.9489
    1SAPS  C216   69   3.908   0.920   9.081 -0.2871  0.2434  0.0764
    1SAPS  H16R   70   3.988   0.995   9.099 -1.0818  1.0880  0.1793
    1SAPS  H16S   71   3.813   0.970   9.050 -0.9185  0.6761  2.6028
    1SAPS  C217   72   3.947   0.845   8.948 -0.3479  0.5586 -0.2217
    1SAPS  H17R   73   4.043   0.792   8.964  0.1604  1.5537  0.0662
    1SAPS  H17S   74   3.966   0.910   8.860 -1.9562  1.0896 -0.1808
    1SAPS  C218   75   3.857   0.738   8.895  0.0492  0.1561 -0.0811
    1SAPS  H18R   76   3.839   0.648   8.958  0.4843  1.2791  1.6880
    1SAPS  H18S   77   3.889   0.705   8.794 -1.6295  0.0774 -0.6009
    1SAPS  C219   78   3.702   0.787   8.884  0.5551 -0.3564 -0.1685
    1SAPS  H19R   79   3.700   0.875   8.817  1.0020 -0.1589  0.0769
    1SAPS  H19S   80   3.669   0.802   8.989 -0.5036  0.1283 -0.5618
    1SAPS  C220   81   3.602   0.682   8.834 -0.2302  0.1933 -0.2527
    1SAPS  H20R   82   3.607   0.591   8.898 -3.2426 -0.7907 -1.3572
    1SAPS  H20S   83   3.613   0.658   8.726 -0.7021  0.4664 -0.3656
    1SAPS  H20T   84   3.496   0.716   8.836 -0.4157 -0.2152 -2.0508
    1SAPS   C33   85   4.733   1.110  10.268 -0.6285 -0.1381  0.6999
    1SAPS   H3X   86   4.703   1.006  10.291  0.6839 -1.0803 -1.6608
    1SAPS   H3Y   87   4.827   1.129  10.324 -0.5956 -0.4127  0.7383
    1SAPS   C34   88   4.755   1.097  10.113  0.0805 -0.3278  0.0876
    1SAPS   H4X   89   4.775   1.201  10.079 -0.1526 -0.3196 -0.0294
    1SAPS   H4Y   90   4.655   1.072  10.070  0.9191 -2.5709 -0.6320
    1SAPS   C35   91   4.856   0.996  10.083 -0.8332 -0.6278 -0.6728
    1SAPS   H5X   92   4.822   0.891  10.073  2.5110 -1.7136 -1.2995
    1SAPS   H5Y   93   4.935   1.005  10.161 -2.0866  0.1951  0.5238
    1SAPS   C36   94   4.928   1.019   9.941  0.5093  0.5344 -0.7141
    1SAPS   H6X   95   5.005   0.940   9.925 -0.3456 -0.2510 -0.9943
    1SAPS   H6Y   96   4.981   1.116   9.933  3.1078 -0.8600 -0.9919
    1SAPS   C37   97   4.831   1.019   9.830 -0.1951  0.4219 -0.4369
    1SAPS   H7X   98   4.771   1.112   9.840  0.6625  0.9754 -0.4216
    1SAPS   H7Y   99   4.772   0.925   9.840  0.4594 -0.1280 -1.6760
    1SAPS   C38  100   4.889   1.017   9.687 -0.5849 -0.3599  0.0251
    1SAPS   H8X  101   4.930   0.914   9.675 -1.2968 -1.0006  2.7396
    1SAPS   H8Y  102   4.972   1.092   9.693 -1.4045  0.5062  0.6387
    1SAPS   C39  103   4.788   1.044   9.576  0.3759  0.1957  0.2986
    1SAPS   H9X  104   4.734   1.140   9.581 -0.3106  0.0360 -2.9883
    1SAPS   H9Y  105   4.710   0.967   9.595  1.1652  0.0908  3.5233
    1SAPS  C310  106   4.853   1.035   9.439 -0.3286  0.0044 -0.0619
    1SAPS  H10X  107   4.944   0.972   9.440  0.6732  1.3235 -2.7283
    1SAPS  H10Y  108   4.883   1.136   9.403 -1.2837  0.0712 -0.6897
    1SAPS  C311  109   4.752   0.990   9.325 -0.7486 -0.1788 -0.4796
    1SAPS  H11X  110   4.664   1.055   9.344 -0.5731 -0.0322 -0.1775
    1SAPS  H11Y  111   4.726   0.882   9.336 -2.9495  0.2051 -1.5721
    1SAPS  C312  112   4.799   1.023   9.182  0.4162 -0.1072  0.1478
    1SAPS  H12X  113   4.834   1.128   9.168 -0.0617 -0.1107 -1.1557
    1SAPS  H12Y  114   4.715   1.016   9.110  0.0363  0.4755  0.5214
    1SAPS  C313  115   4.920   0.950   9.136  0.4231  0.6610 -0.5164
    1SAPS  H13X  116   5.005   0.967   9.205 -1.4443  0.1863  1.9792
    1SAPS  H13Y  117   4.964   0.981   9.039  0.0949  0.5538 -0.7020
    1SAPS  C314  118   4.899   0.803   9.108  0.7527  0.5958  0.1038
    1SAPS  H14X  119   4.824   0.795   9.027  0.3968 -0.9161  0.5694
    1SAPS  H14Y  120   4.850   0.751   9.193 -0.5571  0.9363 -0.4430
    1SAPS  C315  121   5.026   0.723   9.070 -0.1204  0.2627  0.0120
    1SAPS  H15X  122   5.073   0.773   8.983  2.1031 -0.2418  0.8974
    1SAPS  H15Y  123   4.993   0.620   9.045  2.4336 -1.0877  1.9451
    1SAPS  C316  124   5.136   0.705   9.172 -0.0299  0.2123 -0.7099
    1SAPS  H16X  125   5.186   0.796   9.210  3.0570 -1.1982 -1.1594
    1SAPS  H16Y  126   5.217   0.639   9.132 -0.6134 -1.3123  0.5896
    1SAPS  C317  127   5.089   0.646   9.299  0.3925 -0.0161  0.0090
    1SAPS  H17X  128   5.047   0.545   9.282 -0.1607  0.2993 -0.5626
    1SAPS  H17Y  129   5.010   0.712   9.342  1.0922  0.3968  0.6670
    1SAPS  C318  130   5.198   0.634   9.407  0.1161 -0.2932  0.0619
    1SAPS  H18X  131   5.244   0.733   9.427  3.8432 -1.2668 -3.1560
    1SAPS  H18Y  132   5.283   0.576   9.364 -1.8804 -2.2268 -1.3896
    1SAPS  H18Z  133   5.161   0.573   9.493 -0.3393 -0.5311 -0.2987
    2SAPS     N  134   1.964   0.961  10.893  0.2688 -0.2343 -0.2971
    2SAPS   HN1  135   1.902   1.034  10.933  0.7776  0.6408 -1.0761
    2SAPS   HN2  136   1.930   0.951  10.796 -0.9843 -3.3386  0.4152
    2SAPS   HN3  137   1.943   0.871  10.941 -0.3939  0.3630  0.5641
    2SAPS   C12  138   2.105   0.998  10.911  0.0359  0.1364 -0.2711
    2SAPS  H12A  139   2.119   1.073  10.834  1.3947  0.3393  0.1658
    2SAPS   C13  140   2.123   1.061  11.049 -0.2155  0.1326  0.0489
    2SAPS  O13A  141   2.038   1.045  11.141  0.0525  0.8224 -0.2126
    2SAPS  O13B  142   2.245   1.079  11.086 -0.1245  0.0548 -0.4405
    2SAPS   C11  143   2.187   0.871  10.891  0.0794 -0.5727 -0.2556
    2SAPS  H11A  144   2.159   0.800  10.972 -0.4119  1.9148  1.8451
    2SAPS  H11B  145   2.294   0.899  10.908 -0.3279  0.8699  0.0151
    2SAPS     P  146   2.278   0.790  10.656 -0.1578 -0.1598 -0.2530
    2SAPS   O13  147   2.388   0.732  10.733  0.3058 -0.1189  0.5019
    2SAPS   O14  148   2.236   0.705  10.548 -0.3166 -0.0658  0.0019
    2SAPS   O12  149   2.163   0.817  10.766 -0.7641 -0.4187  0.4680
    2SAPS   O11  150   2.320   0.928  10.595 -0.1560  1.0266  0.2602
    2SAPS    C1  151   2.442   0.994  10.625 -0.5621  0.2789  0.5936
    2SAPS    HA  152   2.424   1.102  10.644  2.0360  1.1286 -1.5079
    2SAPS    HB  153   2.503   0.958  10.711 -1.7462  0.4026  1.4991
    2SAPS    C2  154   2.535   0.991  10.491 -0.9798  0.0588 -0.0600
    2SAPS    HS  155   2.630   1.045  10.512 -1.8441  0.7742  2.2306
    2SAPS   O21  156   2.464   1.056  10.376 -0.2277 -0.1345 -0.3980
    2SAPS   C21  157   2.463   1.187  10.388 -0.1155  0.0414 -0.3526
    2SAPS   O22  158   2.531   1.256  10.468 -0.1658  0.6027 -0.5866
    2SAPS   C22  159   2.382   1.238  10.275 -0.9024  0.3818 -0.0643
    2SAPS   H2R  160   2.394   1.176  10.184 -2.8887  0.9982 -0.7809
    2SAPS   H2S  161   2.275   1.234  10.306 -0.4323 -1.1707  1.4678
    2SAPS    C3  162   2.568   0.847  10.446  0.8174  0.0381  0.1435
    2SAPS    HX  163   2.468   0.801  10.429  0.9181  0.5587 -1.9720
    2SAPS    HY  164   2.613   0.792  10.532 -0.7056 -0.3410  0.7211
    2SAPS   O31  165   2.651   0.854  10.335  0.3052  0.3021  0.2176
    2SAPS   C31  166   2.657   0.750  10.256 -0.5299 -0.5080  0.7197
    2SAPS   O32  167   2.599   0.642  10.263  0.4943  0.4496 -0.2616
    2SAPS   C32  168   2.767   0.789  10.159 -0.2808  0.8517  0.0362
    2SAPS   H2X  169   2.861   0.751  10.204  0.7069  1.8974 -1.1091
    2SAPS   H2Y  170   2.770   0.896  10.132 -0.0196  0.1488 -2.8317
    2SAPS   C23  171   2.410   1.383  10.243 -0.2799 -0.2134  0.4000
    2SAPS   H3R  172   2.415   1.442  10.337  1.8138 -0.4425  0.4558
    2SAPS   H3S  173   2.323   1.422  10.185  0.1190 -0.6332 -0.4871
    2SAPS   C24  174   2.534   1.402  10.157 -0.1901  0.4622  0.1352
    2SAPS   H4R  175   2.624   1.351  10.198 -0.8467  0.2424  1.3143
    2SAPS   H4S  176   2.562   1.510  10.152 -0.1001  0.4833  0.9918
    2SAPS   C25  177   2.504   1.356  10.017 -0.4071  0.2964 -0.4818
    2SAPS   H5R  178   2.429   1.421   9.971  0.7265  1.9120 -0.0962
    2SAPS   C26  179   2.547   1.259   9.937 -0.3703 -0.2097  0.0344
    2SAPS   H6R  180   2.507   1.243   9.836  1.7212  0.2507 -0.8743
    2SAPS   C27  181   2.650   1.157   9.982  0.2244  0.4493  1.0142
    2SAPS   H7R  182   2.611   1.118  10.078  1.3085 -0.6492  1.0153
    2SAPS   H7S  183   2.746   1.206  10.009  1.2438 -0.5661 -0.6494
    2SAPS   C28  184   2.673   1.046   9.877  0.9887 -0.9481 -0.2566
    2SAPS   H8R  185   2.639   0.945   9.905  0.3696 -0.9965 -1.1622
    2SAPS   C29  186   2.733   1.073   9.752  1.1175  0.3293 -0.7254
    2SAPS   H9R  187   2.755   0.987   9.687 -1.4793 -0.0081 -1.2066
    2SAPS  C210  188   2.773   1.214   9.710  0.8148 -0.1664 -0.0616
    2SAPS  H10R  189   2.778   1.284   9.795  1.5638  0.2876 -0.4780
    2SAPS  H10S  190   2.691   1.247   9.643  0.9336  1.6526  0.6814
    2SAPS  C211  191   2.890   1.214   9.611  0.3016 -0.4138  0.4170
    2SAPS  H11R  192   2.984   1.254   9.653 -2.0777  2.8687  2.9654
    2SAPS  C212  193   2.882   1.182   9.481  0.8510  0.3632 -0.8267
    2SAPS  H12R  194   2.975   1.185   9.421  0.1925  0.9994 -1.8399
    2SAPS  C213  195   2.766   1.130   9.396 -0.0895  0.5441  0.2615
    2SAPS  H13R  196   2.674   1.107   9.453  0.2450  0.0010  0.5798
    2SAPS  H13S  197   2.797   1.031   9.358 -1.2124  0.2902 -0.0179
    2SAPS  C214  198   2.743   1.223   9.287 -0.0724 -0.6048 -0.7866
    2SAPS  H14R  199   2.655   1.287   9.305 -1.1630 -1.7255 -2.0253
    2SAPS  C215  200   2.797   1.231   9.166  0.0668  0.4249  0.7740
    2SAPS  H15R  201   2.759   1.311   9.101 -1.3181  0.4911  1.6461
    2SAPS  C216  202   2.903   1.144   9.106 -0.3060  0.5402  0.2898
    2SAPS  H16R  203   2.858   1.070   9.035  0.1055  0.0147  0.5745
    2SAPS  H16S  204   2.947   1.080   9.185 -2.0156 -2.0075 -0.7554
    2SAPS  C217  205   3.013   1.204   9.029 -0.1098  0.8376  0.1446
    2SAPS  H17R  206   3.074   1.254   9.108 -1.3285  0.3341  1.4210
    2SAPS  H17S  207   2.983   1.280   8.954  0.2635  1.5131  0.6648
    2SAPS  C218  208   3.101   1.103   8.957  0.3435  0.1241 -0.1271
    2SAPS  H18R  209   3.026   1.052   8.892 -0.3715  0.6571  0.2700
    2SAPS  H18S  210   3.143   1.021   9.020  2.5725  0.1764 -1.4777
    2SAPS  C219  211   3.218   1.154   8.874  0.0890 -0.3530 -0.6630
    2SAPS  H19R  212   3.172   1.246   8.833  0.1293  0.3930  0.9339
    2SAPS  H19S  213   3.252   1.078   8.800  0.3448 -0.9708  0.0880
    2SAPS  C220  214   3.342   1.187   8.965 -0.2809 -0.2131  0.9586
    2SAPS  H20R  215   3.375   1.093   9.015  2.2384  0.3366  0.4359
    2SAPS  H20S  216   3.328   1.279   9.025 -0.3443  0.1056  0.4544
    2SAPS  H20T  217   3.424   1.213   8.895 -2.3143 -0.9064 -1.7353
    2SAPS   C33  218   2.762   0.706  10.029  0.0849 -0.1165  0.6464
    2SAPS   H3X  219   2.657   0.729  10.000 -0.4706 -1.9718  1.1270
    2SAPS   H3Y  220   2.759   0.597  10.051 -1.2347 -0.5132 -1.3344
    2SAPS   C34  221   2.865   0.747   9.927 -0.1904  0.3511  0.5159
    2SAPS   H4X  222   2.968   0.728   9.964 -0.3196  0.5657  0.9967
    2SAPS   H4Y  223   2.856   0.857   9.913  0.8091  0.4203  0.3948
    2SAPS   C35  224   2.840   0.679   9.796  0.0790  0.7020  0.4692
    2SAPS   H5X  225   2.732   0.684   9.768  0.4824 -1.5611 -1.5700
    2SAPS   H5Y  226   2.856   0.571   9.814  0.0906  0.8608  1.4364
    2SAPS   C36  227   2.925   0.744   9.689  0.1649  0.1278  0.0374
    2SAPS   H6X  228   3.032   0.722   9.704  0.6851  2.2439 -0.3508
    2SAPS   H6Y  229   2.903   0.853   9.694 -0.6710 -0.1169  3.4010
    2SAPS   C37  230   2.898   0.690   9.550 -0.0871  0.5376  0.0616
    2SAPS   H7X  231   2.798   0.729   9.523  0.1411 -0.4559 -2.3290
    2SAPS   H7Y  232   2.885   0.582   9.532 -0.3211  0.6888 -0.6929
    2SAPS   C38  233   2.998   0.744   9.444 -0.3733 -0.5551 -0.4439
    2SAPS   H8X  234   3.091   0.690   9.473 -0.5392  0.5464  2.3159
    2SAPS   H8Y  235   3.000   0.854   9.461 -1.3994 -0.6565  0.4375
    2SAPS   C39  236   2.958   0.724   9.293  0.3319 -0.3343 -0.2493
    2SAPS   H9X  237   2.861   0.768   9.261  1.6884  2.0130 -1.2032
    2SAPS   H9Y  238   2.941   0.615   9.278 -1.2255 -0.4118  1.7922
    2SAPS  C310  239   3.056   0.767   9.187 -0.2727 -0.1684  0.0914
    2SAPS  H10X  240   3.157   0.752   9.230  0.2722  2.5688 -0.1234
    2SAPS  H10Y  241   3.047   0.876   9.167 -1.5731 -0.0861  1.0506
    2SAPS  C311  242   3.027   0.689   9.055  0.2130  0.9783 -0.7868
    2SAPS  H11X  243   2.928   0.715   9.011 -1.2073  0.4472  1.9249
    2SAPS  H11Y  244   3.024   0.580   9.074 -0.3355  1.1340  0.0674
    2SAPS  C312  245   3.142   0.716   8.957  0.4479  0.2123  0.7260
    2SAPS  H12X  246   3.240   0.704   9.008  0.0964 -1.3083  1.0565
    2SAPS  H12Y  247   3.121   0.821   8.925 -0.7851 -0.1348  0.3928
    2SAPS  C313  248   3.131   0.619   8.843 -0.4283 -0.8192 -0.3021
    2SAPS  H13X  249   3.027   0.604   8.807 -0.1242 -2.8625 -0.4015
    2SAPS  H13Y  250   3.144   0.520   8.892 -0.0374  0.1061  1.5426
    2SAPS  C314  251   3.223   0.653   8.721  0.5996  0.4164  0.3816
    2SAPS  H14X  252   3.329   0.648   8.753  0.9483  0.0679 -0.7990
    2SAPS  H14Y  253   3.202   0.757   8.687  2.3468  0.6422 -0.0411
    2SAPS  C315  254   3.203   0.562   8.597 -0.6813  0.0161 -0.5203
    2SAPS  H15X  255   3.096   0.552   8.568 -0.2948 -1.0128 -1.6300
    2SAPS  H15Y  256   3.234   0.459   8.625 -0.7649  0.4401  1.2271
    2SAPS  C316  257   3.289   0.589   8.473  0.1353 -0.0271 -0.6264
    2SAPS  H16X  258   3.268   0.687   8.426  0.3390 -0.4427 -1.5953
    2SAPS  H16Y  259   3.266   0.512   8.396 -0.1197  0.6458 -1.2216
    2SAPS  C317  260   3.439   0.589   8.497  0.4821 -0.4116 -0.2945
    2SAPS  H17X  261   3.465   0.501   8.559  0.3278 -1.2878 -1.4660
    2SAPS  H17Y  262   3.470   0.683   8.548 -0.6080 -0.2260  0.0266
    2SAPS  C318  263   3.528   0.560   8.375  0.2137 -0.5947  0.3306
    2SAPS  H18X  264   3.512   0.457   8.338  2.9436 -1.1917  0.7009
    2SAPS  H18Y  265   3.633   0.578   8.405 -0.9739  3.2624  2.5535
    2SAPS  H18Z  266   3.505   0.619   8.283 -0.9257 -0.5893  0.6160
    3SAPS     N  267   3.893   2.916  10.854  0.1302  0.7261  0.7305
    3SAPS   HN1  268   3.843   2.836  10.810  2.1034 -0.2092  0.1073
    3SAPS   HN2  269   3.888   2.992  10.783 -0.5042  0.5141  0.5460
    3SAPS   HN3  270   3.990   2.882  10.868 -0.9612 -2.1747  1.5732
    3SAPS   C12  271   3.816   2.957  10.978 -0.0772  1.1226  0.2653
    3SAPS  H12A  272   3.820   2.886  11.060 -0.1243  0.4043 -0.3416
    3SAPS   C13  273   3.867   3.090  11.039  0.3515 -0.3410  0.2064
    3SAPS  O13A  274   3.960   3.155  10.993  0.2343 -0.0890  0.0510
    3SAPS  O13B  275   3.802   3.134  11.138  0.4887  0.3754  0.7343
    3SAPS   C11  276   3.668   2.973  10.925  0.5178  0.1777  0.0865
    3SAPS  H11A  277   3.652   3.065  10.865  0.8600 -0.7619 -1.4680
    3SAPS  H11B  278   3.591   2.984  11.005  3.3247 -0.7012  2.9985
    3SAPS     P  279   3.609   2.724  10.931 -0.4181 -0.1542 -0.1447
    3SAPS   O13  280   3.741   2.661  10.913  0.5973 -0.6107  0.3258
    3SAPS   O14  281   3.571   2.751  11.072  0.0816 -1.2135 -0.1405
    3SAPS   O12  282   3.619   2.857  10.852 -0.6091 -0.0626  0.8336
    3SAPS   O11  283   3.486   2.646  10.866  0.6033  0.2957  0.1374
    3SAPS    C1  284   3.501   2.572  10.739 -0.3351 -0.8836  0.3199
    3SAPS    HA  285   3.583   2.499  10.751  0.5868 -0.0445 -0.8296
    3SAPS    HB  286   3.404   2.526  10.713  0.6904 -2.1709 -1.2533
    3SAPS    C2  287   3.530   2.674  10.612  0.6193  0.5430 -0.0610
    3SAPS    HS  288   3.639   2.696  10.615  0.3191  2.0466  0.0512
    3SAPS   O21  289   3.452   2.796  10.632 -0.2025 -0.8511  0.1443
    3SAPS   C21  290   3.515   2.907  10.589  0.1389  0.3048 -0.1511
    3SAPS   O22  291   3.619   2.915  10.523 -0.3814 -0.0316 -0.5069
    3SAPS   C22  292   3.445   3.033  10.633 -0.6291 -0.8075 -0.5547
    3SAPS   H2R  293   3.339   3.037  10.598 -0.2489 -0.0882 -1.6712
    3SAPS   H2S  294   3.446   3.036  10.744  0.5097  2.7948 -0.6049
    3SAPS    C3  295   3.507   2.607  10.472  0.3070  0.2149 -0.5158
    3SAPS    HX  296   3.397   2.597  10.463  0.3690 -0.7676 -0.2380
    3SAPS    HY  297   3.548   2.504  10.466  0.3770  0.3586 -2.8344
    3SAPS   O31  298   3.553   2.685  10.366 -0.4499 -0.1276  0.4613
    3SAPS   C31  299   3.532   2.630  10.239  0.8583  0.1313  0.3014
    3SAPS   O32  300   3.467   2.528  10.218 -0.3763 -0.0969 -0.1554
    3SAPS   C32  301   3.599   2.720  10.134 -0.1949  0.0436 -0.4462
    3SAPS   H2X  302   3.708   2.700  10.138 -0.0625  0.3913 -2.0941
    3SAPS   H2Y  303   3.581   2.821  10.176 -2.0212 -2.1930  4.6364
    3SAPS   C23  304   3.507   3.163  10.583  0.7444 -0.8305  0.2212
    3SAPS   H3R  305   3.614   3.142  10.565  1.0573  0.9365 -0.1262
    3SAPS   H3S  306   3.507   3.242  10.662 -1.3387 -0.0994 -0.4800
    3SAPS   C24  307   3.437   3.227  10.458 -0.4427  0.5644 -0.7180
    3SAPS   H4R  308   3.328   3.241  10.474 -0.4014 -0.0045  0.1265
    3SAPS   H4S  309   3.443   3.145  10.383  0.0827  0.6395 -0.7611
    3SAPS   C25  310   3.503   3.362  10.426  0.1869  0.1510  0.4278
    3SAPS   H5R  311   3.503   3.430  10.512  1.9409 -0.6344  1.0707
    3SAPS   C26  312   3.547   3.402  10.307  0.0266 -0.1926 -0.1713
    3SAPS   H6R  313   3.602   3.497  10.299 -1.1142  0.4101 -0.9292
    3SAPS   C27  314   3.544   3.314  10.190 -0.9474 -0.1573  0.0382
    3SAPS   H7R  315   3.450   3.330  10.132 -1.9179  2.5526  2.2345
    3SAPS   H7S  316   3.542   3.210  10.229 -1.6945 -0.0923  0.1714
    3SAPS   C28  317   3.654   3.314  10.082 -0.0566 -1.2044 -0.8025
    3SAPS   H8R  318   3.707   3.219  10.079  0.1586 -1.0589 -1.6126
    3SAPS   C29  319   3.691   3.420  10.003  0.1033  0.3368 -0.4491
    3SAPS   H9R  320   3.780   3.409   9.939  1.0045  0.2882  0.7916
    3SAPS  C210  321   3.630   3.562   9.996 -0.3107  0.0541  0.3619
    3SAPS  H10R  322   3.575   3.584  10.090 -0.3696 -1.5272  0.7209
    3SAPS  H10S  323   3.551   3.572   9.919 -0.4181 -2.2895  0.1469
    3SAPS  C211  324   3.739   3.666   9.970  0.9451 -0.1258 -0.4225
    3SAPS  H11R  325   3.795   3.697  10.059  2.7095 -0.2352 -1.4622
    3SAPS  C212  326   3.769   3.726   9.854 -0.0775  0.1454  1.5135
    3SAPS  H12R  327   3.857   3.793   9.843  0.9865 -1.3703  0.5783
    3SAPS  C213  328   3.714   3.690   9.715  0.9429 -0.4882 -0.5459
    3SAPS  H13R  329   3.603   3.680   9.719  0.7039  1.9623 -0.0294
    3SAPS  H13S  330   3.751   3.591   9.683  0.1623 -0.7894 -0.5322
    3SAPS  C214  331   3.740   3.795   9.608  0.2107 -0.1432 -0.3870
    3SAPS  H14R  332   3.790   3.888   9.637  3.2051 -2.1087  1.0409
    3SAPS  C215  333   3.708   3.780   9.480 -0.0706  0.5137 -0.2374
    3SAPS  H15R  334   3.725   3.869   9.417  2.8039  1.3627  1.6458
    3SAPS  C216  335   3.653   3.660   9.416  0.7830 -0.0285  0.4672
    3SAPS  H16R  336   3.543   3.668   9.422  0.8923  2.0427  0.1577
    3SAPS  H16S  337   3.683   3.570   9.475 -1.0437 -0.4783  0.7238
    3SAPS  C217  338   3.680   3.627   9.270 -0.6955 -0.2943  0.3134
    3SAPS  H17R  339   3.617   3.538   9.247 -2.3455  0.8816  0.2418
    3SAPS  H17S  340   3.787   3.597   9.271  0.0127  2.0408 -1.0777
    3SAPS  C218  341   3.669   3.742   9.179  0.2979 -0.3518 -0.2955
    3SAPS  H18R  342   3.738   3.826   9.203  1.3731 -1.6631  1.3075
    3SAPS  H18S  343   3.564   3.776   9.171  0.0480 -1.3370 -1.3797
    3SAPS  C219  344   3.691   3.697   9.028  0.3020 -0.0214 -0.0047
    3SAPS  H19R  345   3.641   3.771   8.962  3.5490  1.7606 -0.5736
    3SAPS  H19S  346   3.638   3.601   9.016 -3.0393  1.8085 -0.4538
    3SAPS  C220  347   3.835   3.695   8.990 -0.1762 -0.0742 -0.3243
    3SAPS  H20R  348   3.847   3.655   8.887 -0.7222 -1.5167  0.1601
    3SAPS  H20S  349   3.896   3.642   9.066 -1.6804  0.2897  1.1613
    3SAPS  H20T  350   3.891   3.790   8.996 -0.0041 -0.3148  2.4399
    3SAPS   C33  351   3.548   2.698   9.991  0.5781 -0.0337 -1.1794
    3SAPS   H3X  352   3.445   2.738   9.983 -0.0772 -1.4865 -0.0566
    3SAPS   H3Y  353   3.547   2.589   9.970  0.6705 -0.2684  0.0414
    3SAPS   C34  354   3.643   2.755   9.886  0.7319  0.2713  0.1710
    3SAPS   H4X  355   3.744   2.715   9.910  1.0711  0.1475 -1.4454
    3SAPS   H4Y  356   3.654   2.863   9.912  0.5106  0.1406  0.8186
    3SAPS   C35  357   3.602   2.719   9.748 -0.5332 -0.0488 -0.2955
    3SAPS   H5X  358   3.503   2.765   9.726  0.3216  1.9969  0.0391
    3SAPS   H5Y  359   3.604   2.610   9.726 -1.2105 -0.2217  0.4690
    3SAPS   C36  360   3.713   2.763   9.660  0.1876  0.0162  0.1885
    3SAPS   H6X  361   3.805   2.731   9.713 -0.5361 -0.2358  1.3218
    3SAPS   H6Y  362   3.719   2.874   9.658 -0.0564  0.0793  1.8517
    3SAPS   C37  363   3.699   2.684   9.525  0.1920 -0.7399 -0.7195
    3SAPS   H7X  364   3.590   2.679   9.501  0.5294 -0.1264 -2.4086
    3SAPS   H7Y  365   3.731   2.584   9.561 -2.3262 -1.3142  0.0484
    3SAPS   C38  366   3.774   2.732   9.414  0.1381 -0.4931 -0.1348
    3SAPS   H8X  367   3.876   2.689   9.427 -0.8533 -2.7597  0.2561
    3SAPS   H8Y  368   3.781   2.843   9.423  0.4969 -0.7170  3.2264
    3SAPS   C39  369   3.719   2.703   9.276  0.0259  0.6347 -0.0666
    3SAPS   H9X  370   3.617   2.747   9.277 -0.1746  0.2039 -0.9920
    3SAPS   H9Y  371   3.724   2.593   9.258 -2.2000  0.3275  1.0094
    3SAPS  C310  372   3.797   2.785   9.173  0.2669 -0.2395  0.0318
    3SAPS  H10X  373   3.903   2.788   9.203  0.0393  1.4283  0.6911
    3SAPS  H10Y  374   3.763   2.891   9.170  0.3183 -0.2532 -1.1110
    3SAPS  C311  375   3.773   2.738   9.031  0.2463 -0.1750 -0.4496
    3SAPS  H11X  376   3.665   2.720   9.010  0.0249 -1.4198  1.6290
    3SAPS  H11Y  377   3.808   2.633   9.022 -0.8411 -0.5243 -0.7133
    3SAPS  C312  378   3.846   2.823   8.927  0.3294 -0.8356  0.5130
    3SAPS  H12X  379   3.955   2.810   8.947  0.7105  1.8715  0.3826
    3SAPS  H12Y  380   3.812   2.928   8.939  1.1719 -0.7002  1.7258
    3SAPS  C313  381   3.815   2.782   8.783 -0.2560  0.3384 -0.1586
    3SAPS  H13X  382   3.861   2.849   8.708 -0.9688  1.9946  0.8670
    3SAPS  H13Y  383   3.706   2.791   8.767 -0.2490  0.3604 -0.1951
    3SAPS  C314  384   3.871   2.638   8.757  0.2566 -0.1543  0.0645
    3SAPS  H14X  385   3.830   2.567   8.832 -0.9144  1.8654  1.3769
    3SAPS  H14Y  386   3.981   2.642   8.776  0.0532  2.3370  0.8667
    3SAPS  C315  387   3.852   2.591   8.610 -0.5481 -0.0655 -0.5113
    3SAPS  H15X  388   3.894   2.677   8.553  1.1407  0.0988  0.9141
    3SAPS  H15Y  389   3.744   2.582   8.585 -0.4339 -1.5351 -0.5183
    3SAPS  C316  390   3.909   2.458   8.567  0.1068 -0.7263 -0.1760
    3SAPS  H16X  391   3.878   2.367   8.623  1.6604  0.0914  2.1074
    3SAPS  H16Y  392   4.020   2.465   8.569  0.0474  0.1238  0.7635
    3SAPS  C317  393   3.871   2.443   8.421 -0.7781 -0.4623  0.1417
    3SAPS  H17X  394   3.904   2.527   8.357  0.9837 -0.8538  0.4995
    3SAPS  H17Y  395   3.760   2.448   8.411 -0.9130 -1.2955  1.1035
    3SAPS  C318  396   3.923   2.319   8.353 -0.1694  0.3649 -0.1083
    3SAPS  H18X  397   4.032   2.333   8.335  0.3487 -2.8336  0.2116
    3SAPS  H18Y  398   3.870   2.309   8.256 -0.5693 -0.9322  0.2397
    3SAPS  H18Z  399   3.924   2.226   8.414  0.7098  0.2994 -0.2135
    4SAPS     N  400   5.923   3.533  10.619  0.4061  0.0486  0.0363
    4SAPS   HN1  401   5.929   3.628  10.577 -0.8593 -0.3255 -1.0067
    4SAPS   HN2  402   6.004   3.476  10.588  1.8681  1.2568  1.5037
    4SAPS   HN3  403   5.832   3.489  10.597 -0.3918  2.4442 -1.5724
    4SAPS   C12  404   5.946   3.542  10.768  0.3705 -0.7184 -0.2893
    4SAPS  H12A  405   5.919   3.453  10.823 -0.2197 -0.5564 -0.3085
    4SAPS   C13  406   6.092   3.568  10.806 -0.2012 -0.7925 -0.6174
    4SAPS  O13A  407   6.184   3.568  10.719 -0.8987 -0.1539  0.1891
    4SAPS  O13B  408   6.116   3.584  10.931 -0.8572 -0.4995 -0.1737
    4SAPS   C11  409   5.860   3.666  10.811 -0.8298 -0.5383  0.6120
    4SAPS  H11A  410   5.857   3.666  10.922 -1.6274 -0.3632  0.5978
    4SAPS  H11B  411   5.752   3.649  10.789 -0.8411  1.7139 -1.3642
    4SAPS     P  412   5.909   3.929  10.828  0.2219 -0.0156  0.0495
    4SAPS   O13  413   5.777   3.993  10.815 -0.1934 -0.2199 -0.1205
    4SAPS   O14  414   5.965   3.914  10.963  0.6024 -0.0811  0.1205
    4SAPS   O12  415   5.908   3.787  10.759  0.2181 -0.0087  0.1412
    4SAPS   O11  416   6.006   4.016  10.740  0.6107  0.6500  0.3140
    4SAPS    C1  417   6.066   3.964  10.618 -0.3190 -1.0875 -0.0457
    4SAPS    HA  418   6.156   4.020  10.585 -1.1366  0.0796 -0.3715
    4SAPS    HB  419   6.084   3.856  10.629 -3.8346 -1.7095  0.2132
    4SAPS    C2  420   5.973   3.981  10.499  0.0394  0.1580  0.3920
    4SAPS    HS  421   5.881   3.923  10.520 -0.4991 -0.1423 -2.5191
    4SAPS   O21  422   6.040   3.932  10.382  0.3294 -0.3194  0.2247
    4SAPS   C21  423   6.039   3.800  10.377 -0.8251 -0.6792 -0.4897
    4SAPS   O22  424   5.958   3.733  10.439 -0.2409  1.1749  0.2726
    4SAPS   C22  425   6.136   3.746  10.273 -0.2942 -0.0770  0.1666
    4SAPS   H2R  426   6.229   3.801  10.299 -0.1263 -0.1391 -0.2926
    4SAPS   H2S  427   6.156   3.640  10.300 -2.5855 -1.1139 -1.9950
    4SAPS    C3  428   5.934   4.126  10.487 -0.2296 -0.0586  0.0443
    4SAPS    HX  429   6.026   4.188  10.479 -0.7159  0.8697  1.2865
    4SAPS    HY  430   5.883   4.151  10.583  1.1177  1.6924  0.3395
    4SAPS   O31  431   5.842   4.152  10.378  0.0363 -0.3734  0.6417
    4SAPS   C31  432   5.845   4.276  10.341  0.2248 -0.1601  0.2366
    4SAPS   O32  433   5.919   4.368  10.382 -0.1145  0.4466  0.4215
    4SAPS   C32  434   5.746   4.287  10.228 -0.4582  0.0211  0.1062
    4SAPS   H2X  435   5.642   4.288  10.264 -0.4788 -0.3175  0.0577
    4SAPS   H2Y  436   5.762   4.195  10.168  0.3583  0.0923  0.2043
    4SAPS   C23  437   6.090   3.772  10.127 -0.7609 -0.0821 -0.0517
    4SAPS   H3R  438   6.171   3.722  10.070  0.7164  0.6641  1.3373
    4SAPS   H3S  439   6.081   3.876  10.089 -0.5650  0.2854  0.9018
    4SAPS   C24  440   5.967   3.683  10.101  0.7264  0.0139 -0.0087
    4SAPS   H4R  441   5.969   3.586  10.155 -1.3203 -0.0065  0.0782
    4SAPS   H4S  442   5.984   3.660   9.994  1.3135 -3.1292  0.7162
    4SAPS   C25  443   5.833   3.747  10.127 -0.6107 -0.1368 -0.2893
    4SAPS   H5R  444   5.837   3.810  10.217  0.9623  1.6336 -1.5509
    4SAPS   C26  445   5.724   3.745  10.047 -0.1655  0.2874 -0.8404
    4SAPS   H6R  446   5.660   3.834  10.058 -1.3376 -0.9807  3.8384
    4SAPS   C27  447   5.714   3.673   9.910 -0.0856  0.3666 -0.0269
    4SAPS   H7R  448   5.792   3.595   9.901 -1.1238 -0.9241  1.9485
    4SAPS   H7S  449   5.732   3.746   9.827 -0.0457  0.9130  0.4585
    4SAPS   C28  450   5.585   3.605   9.878  0.9521 -0.7487 -0.2908
    4SAPS   H8R  451   5.512   3.618   9.959  0.9107  0.6162 -0.5278
    4SAPS   C29  452   5.553   3.541   9.769 -0.2007 -0.1293  0.2283
    4SAPS   H9R  453   5.461   3.481   9.768 -0.5472  0.2638  2.9495
    4SAPS  C210  454   5.643   3.521   9.655  0.2358  0.6804 -0.4311
    4SAPS  H10R  455   5.656   3.412   9.643  0.3420  0.6620 -0.1395
    4SAPS  H10S  456   5.744   3.560   9.680  0.3673  0.8484 -1.1959
    4SAPS  C211  457   5.593   3.584   9.531  0.1781 -0.0794  0.2093
    4SAPS  H11R  458   5.589   3.693   9.543  1.1188 -0.0535  0.3133
    4SAPS  C212  459   5.567   3.534   9.407 -0.0745  0.6825 -0.7560
    4SAPS  H12R  460   5.550   3.602   9.322  1.8459  1.5059 -0.5166
    4SAPS  C213  461   5.580   3.390   9.375  0.4436 -0.8752  0.1956
    4SAPS  H13R  462   5.588   3.322   9.462 -0.6658  0.1002  1.0682
    4SAPS  H13S  463   5.683   3.384   9.334  1.2649 -0.7419  2.1666
    4SAPS  C214  464   5.484   3.335   9.279  0.1511 -0.2493 -0.8697
    4SAPS  H14R  465   5.379   3.323   9.313  0.6358 -1.5578  0.1952
    4SAPS  C215  466   5.505   3.310   9.148 -0.2846  0.2198  0.1353
    4SAPS  H15R  467   5.426   3.262   9.088  1.8301 -1.2188 -1.5856
    4SAPS  C216  468   5.626   3.339   9.071  0.3743 -1.0362 -0.0497
    4SAPS  H16R  469   5.706   3.397   9.122 -0.4727  1.2123 -1.2595
    4SAPS  H16S  470   5.596   3.400   8.984 -2.9708 -3.4257 -0.6522
    4SAPS  C217  471   5.682   3.205   9.028 -0.9355  0.1661  0.0317
    4SAPS  H17R  472   5.608   3.148   8.969 -2.1601  2.0859 -0.3112
    4SAPS  H17S  473   5.729   3.157   9.117  0.8971  3.4457  0.9303
    4SAPS  C218  474   5.809   3.225   8.941  0.3061  0.7504 -0.7607
    4SAPS  H18R  475   5.896   3.272   8.991 -1.5501  0.9344  2.4402
    4SAPS  H18S  476   5.774   3.288   8.856  2.0735  1.0810 -1.2515
    4SAPS  C219  477   5.851   3.087   8.876 -0.5067 -0.3165  0.0459
    4SAPS  H19R  478   5.765   3.051   8.816 -0.5978 -1.4350  0.8279
    4SAPS  H19S  479   5.855   3.014   8.959  2.6372 -0.0631  0.1568
    4SAPS  C220  480   5.987   3.100   8.800 -0.3167  0.4086  0.2374
    4SAPS  H20R  481   6.010   2.996   8.767 -2.5533  0.2560 -0.9274
    4SAPS  H20S  482   6.069   3.137   8.865 -2.9179  1.3440  3.1300
    4SAPS  H20T  483   5.975   3.161   8.708 -1.6459  0.3380  0.3526
    4SAPS   C33  484   5.779   4.414  10.146 -0.6097  0.3816 -0.0638
    4SAPS   H3X  485   5.889   4.428  10.138 -0.3997 -0.6184  0.8914
    4SAPS   H3Y  486   5.763   4.502  10.212  0.0457  0.2233  0.3103
    4SAPS   C34  487   5.696   4.436  10.023 -0.0995  0.3585  0.0090
    4SAPS   H4X  488   5.672   4.544  10.028  0.5300  0.4462  1.1926
    4SAPS   H4Y  489   5.604   4.375  10.038 -0.2335  0.3798 -0.6757
    4SAPS   C35  490   5.765   4.382   9.892  0.5657  0.2963  0.0376
    4SAPS   H5X  491   5.782   4.274   9.906 -0.9405  0.1791  1.0713
    4SAPS   H5Y  492   5.850   4.447   9.864 -0.1955  0.7706 -1.2378
    4SAPS   C36  493   5.659   4.375   9.780 -0.4948 -0.0087  0.2610
    4SAPS   H6X  494   5.631   4.479   9.753 -2.0206 -0.3763  0.4284
    4SAPS   H6Y  495   5.566   4.325   9.813 -1.2534  0.6407 -0.8710
    4SAPS   C37  496   5.707   4.294   9.652 -0.3678  0.0884  0.0746
    4SAPS   H7X  497   5.714   4.188   9.685  2.2852  0.4170  0.7457
    4SAPS   H7Y  498   5.815   4.307   9.628 -0.3856  0.2620  0.0874
    4SAPS   C38  499   5.613   4.301   9.531  0.4330  0.0626  0.5259
    4SAPS   H8X  500   5.606   4.403   9.488 -1.3853 -0.0833  0.4267
    4SAPS   H8Y  501   5.509   4.265   9.545 -0.0236  1.0519 -0.2633
    4SAPS   C39  502   5.670   4.228   9.408 -0.3974  0.3895  0.1660
    4SAPS   H9X  503   5.688   4.122   9.435 -0.3868  0.5361  0.7304
    4SAPS   H9Y  504   5.771   4.269   9.386  1.1543 -2.8314  0.9918
    4SAPS  C310  505   5.587   4.237   9.275 -1.0842  0.4170  0.3896
    4SAPS  H10X  506   5.576   4.342   9.239 -0.3610  0.7498  1.1325
    4SAPS  H10Y  507   5.487   4.191   9.291 -1.6999  1.8321  0.7408
    4SAPS  C311  508   5.656   4.155   9.165  0.1714  0.0990 -0.6050
    4SAPS  H11X  509   5.626   4.050   9.186  0.0295  0.0866 -0.8695
    4SAPS  H11Y  510   5.767   4.160   9.165  0.2208 -0.6751  0.5379
    4SAPS  C312  511   5.617   4.190   9.022  0.4285  0.2417 -0.0503
    4SAPS  H12X  512   5.693   4.266   8.994  1.9762 -1.6710 -1.1836
    4SAPS  H12Y  513   5.512   4.226   9.008  0.5065  0.4966  0.0305
    4SAPS  C313  514   5.629   4.064   8.937  0.0889  0.2256  0.0474
    4SAPS  H13X  515   5.550   3.991   8.964  0.0308  0.5134  0.6416
    4SAPS  H13Y  516   5.726   4.014   8.961 -1.9444 -3.6489  0.6522
    4SAPS  C314  517   5.652   4.079   8.792 -0.1958 -0.0243 -0.5928
    4SAPS  H14X  518   5.683   3.987   8.738  1.1478  0.1364 -0.1108
    4SAPS  H14Y  519   5.731   4.157   8.784  0.1333 -0.3243 -0.3202
    4SAPS  C315  520   5.521   4.126   8.725 -0.1799  0.1148  0.0048
    4SAPS  H15X  521   5.472   4.197   8.794  0.6224 -0.3479  1.0590
    4SAPS  H15Y  522   5.451   4.043   8.700 -1.8261  1.3199  0.5283
    4SAPS  C316  523   5.546   4.200   8.588  0.0536  0.3021 -0.0955
    4SAPS  H16X  524   5.578   4.304   8.609 -0.4038  0.6385 -1.0042
    4SAPS  H16Y  525   5.452   4.222   8.533 -0.9360 -0.5121  1.2619
    4SAPS  C317  526   5.641   4.123   8.496 -0.2722  0.6826  0.0080
    4SAPS  H17X  527   5.615   4.015   8.498 -2.7210  1.2339 -0.9157
    4SAPS  H17Y  528   5.743   4.138   8.538 -0.4587  1.1104  0.3177
    4SAPS  C318  529   5.628   4.162   8.342 -0.0053 -1.3139  0.1912
    4SAPS  H18X  530   5.703   4.115   8.274  0.8358  0.6492 -0.2656
    4SAPS  H18Y  531   5.641   4.271   8.323  0.3650 -0.9222  2.5469
    4SAPS  H18Z  532   5.527   4.138   8.302  0.2319 -1.0538 -0.5683
    5SAPS     N  533   2.516   2.845  10.721  0.1291 -0.6187  0.3648
    5SAPS   HN1  534   2.427   2.860  10.669  0.8211 -1.4698 -1.1016
    5SAPS   HN2  535   2.599   2.872  10.664 -0.4095  0.2273 -0.0216
    5SAPS   HN3  536   2.516   2.744  10.745 -0.4163 -0.2863  1.8110
    5SAPS   C12  537   2.514   2.918  10.851  0.5878 -0.0148 -0.2967
    5SAPS  H12A  538   2.527   3.023  10.830  1.4620  0.0603  0.5906
    5SAPS   C13  539   2.382   2.906  10.932  0.5216 -0.2474  0.2129
    5SAPS  O13A  540   2.283   2.829  10.909  0.4612  0.4045 -0.2115
    5SAPS  O13B  541   2.382   2.977  11.034 -0.4361  0.0962 -0.1444
    5SAPS   C11  542   2.638   2.872  10.938  0.7026 -0.1614 -0.3261
    5SAPS  H11A  543   2.636   2.761  10.952  2.2458  0.0157  1.4266
    5SAPS  H11B  544   2.650   2.925  11.034 -2.8817 -1.3609  0.8701
    5SAPS     P  545   2.900   2.848  10.921 -0.1084  0.3220  0.2096
    5SAPS   O13  546   2.998   2.952  10.875 -0.4953 -0.1896 -0.4337
    5SAPS   O14  547   2.902   2.811  11.058  0.3740 -0.6158 -0.1527
    5SAPS   O12  548   2.759   2.904  10.876  0.9786 -0.2784  0.5377
    5SAPS   O11  549   2.937   2.713  10.840 -0.1728 -0.3089 -0.0015
    5SAPS    C1  550   2.899   2.676  10.711  0.3073 -0.7577 -0.3658
    5SAPS    HA  551   2.951   2.581  10.688 -0.7573 -1.4962  0.1810
    5SAPS    HB  552   2.788   2.668  10.713  0.1426  1.2419 -0.7786
    5SAPS    C2  553   2.938   2.777  10.592 -0.8020  0.7459  0.2135
    5SAPS    HS  554   2.900   2.878  10.615  0.8479  1.5680 -0.5456
    5SAPS   O21  555   2.873   2.725  10.474  0.1784  0.2001 -0.0709
    5SAPS   C21  556   2.750   2.758  10.461  0.1479 -0.3105  0.3005
    5SAPS   O22  557   2.692   2.845  10.523 -0.4955  0.3898  0.7314
    5SAPS   C22  558   2.690   2.684  10.339 -1.1437  0.5794 -0.5170
    5SAPS   H2R  559   2.751   2.599  10.300 -3.8100 -2.1505  1.0384
    5SAPS   H2S  560   2.600   2.640  10.387 -1.1340  2.3775  1.1644
    5SAPS    C3  561   3.088   2.779  10.569  0.5713  0.7060 -0.7446
    5SAPS    HX  562   3.126   2.684  10.527  1.4897  0.7820 -0.1100
    5SAPS    HY  563   3.131   2.781  10.672 -0.8380  1.9870 -0.1693
    5SAPS   O31  564   3.125   2.887  10.483 -0.2663 -0.1757 -0.1541
    5SAPS   C31  565   3.155   2.868  10.349  0.4859 -0.5165 -0.4537
    5SAPS   O32  566   3.157   2.756  10.299 -0.4219  0.0553 -0.6611
    5SAPS   C32  567   3.181   2.998  10.279  0.0834  1.0889 -0.4160
    5SAPS   H2X  568   3.234   3.068  10.348  1.3684 -0.8962  0.6583
    5SAPS   H2Y  569   3.084   3.038  10.242 -1.0610 -1.6795 -0.4997
    5SAPS   C23  570   2.665   2.780  10.223 -0.4018  0.5791 -0.0383
    5SAPS   H3R  571   2.585   2.849  10.258  0.0602  1.8285 -1.3656
    5SAPS   H3S  572   2.624   2.721  10.139 -1.8777 -0.6277  1.4977
    5SAPS   C24  573   2.777   2.868  10.168  0.1218 -0.4813 -0.0540
    5SAPS   H4R  574   2.822   2.934  10.246 -1.5365  0.3050  0.2579
    5SAPS   H4S  575   2.740   2.927  10.081  1.6602  1.9858  0.8833
    5SAPS   C25  576   2.883   2.785  10.108 -0.1016  0.2461  0.2217
    5SAPS   H5R  577   2.954   2.755  10.186  3.7264  0.8274 -2.8559
    5SAPS   C26  578   2.932   2.767   9.979  0.3005 -0.2045 -0.1611
    5SAPS   H6R  579   3.020   2.702   9.975 -0.2904 -1.0708  0.7194
    5SAPS   C27  580   2.879   2.827   9.854  0.3559 -0.7867 -0.2070
    5SAPS   H7R  581   2.779   2.872   9.872 -0.1075 -1.3277 -1.3938
    5SAPS   H7S  582   2.861   2.740   9.788  0.1019 -0.8771 -0.0161
    5SAPS   C28  583   2.958   2.945   9.802 -0.0000  0.7835  0.3800
    5SAPS   H8R  584   2.944   3.041   9.853  1.9473  1.3781 -0.1551
    5SAPS   C29  585   3.041   2.943   9.693  0.0375 -0.6894  0.1262
    5SAPS   H9R  586   3.095   3.036   9.672 -0.9370 -0.2269 -0.3845
    5SAPS  C210  587   3.073   2.822   9.616 -0.5305  0.0608 -0.4428
    5SAPS  H10R  588   3.015   2.829   9.521 -1.4625 -1.3565  0.0056
    5SAPS  H10S  589   3.028   2.727   9.654  0.7941 -0.5168 -0.3074
    5SAPS  C211  590   3.219   2.813   9.591 -0.7737  0.3093  0.3323
    5SAPS  H11R  591   3.267   2.799   9.689  2.5776 -0.6364 -1.3959
    5SAPS  C212  592   3.286   2.807   9.473  0.1423 -0.4122 -0.2105
    5SAPS  H12R  593   3.394   2.791   9.482  0.0030 -1.0927  0.3593
    5SAPS  C213  594   3.231   2.803   9.333  0.9703 -0.3194 -0.5272
    5SAPS  H13R  595   3.281   2.878   9.268  1.1487  0.4537  0.4800
    5SAPS  H13S  596   3.122   2.827   9.338  1.0391 -0.2008  0.4980
    5SAPS  C214  597   3.237   2.659   9.279  0.0212 -0.4671  0.1165
    5SAPS  H14R  598   3.213   2.587   9.359  2.3010 -1.6620 -0.2338
    5SAPS  C215  599   3.256   2.613   9.151  0.0122 -0.0779 -0.2990
    5SAPS  H15R  600   3.250   2.505   9.132 -1.6965  0.1793 -1.3740
    5SAPS  C216  601   3.284   2.700   9.034 -0.5899  0.2563  0.2097
    5SAPS  H16R  602   3.392   2.723   9.033 -0.5068  0.0731  2.4110
    5SAPS  H16S  603   3.230   2.797   9.041  0.2334  0.6880  0.6411
    5SAPS  C217  604   3.238   2.641   8.908 -1.4555 -0.1140 -0.4502
    5SAPS  H17R  605   3.303   2.553   8.886 -1.0320  0.5283 -1.7927
    5SAPS  H17S  606   3.257   2.722   8.834  0.6652 -1.9061 -1.9464
    5SAPS  C218  607   3.085   2.619   8.887 -0.0277 -0.3400 -0.2181
    5SAPS  H18R  608   3.064   2.521   8.936  0.4839 -1.2750 -1.8386
    5SAPS  H18S  609   3.036   2.697   8.949 -0.2974 -1.0975  0.5347
    5SAPS  C219  610   3.044   2.617   8.738 -0.3928  0.4994 -1.2686
    5SAPS  H19R  611   3.111   2.547   8.685  1.9339  2.0862 -0.5346
    5SAPS  H19S  612   3.047   2.721   8.699 -1.7571  0.5963 -1.1231
    5SAPS  C220  613   2.904   2.565   8.718  0.6738  1.1269  0.5014
    5SAPS  H20R  614   2.861   2.602   8.622  0.1066  2.1971  1.1643
    5SAPS  H20S  615   2.833   2.593   8.798 -0.0244  0.1183  0.2487
    5SAPS  H20T  616   2.917   2.455   8.732 -0.3286  0.8175 -0.8984
    5SAPS   C33  617   3.282   2.971  10.161  0.0503  0.6777  0.4596
    5SAPS   H3X  618   3.247   2.882  10.105 -2.4567  2.7644 -1.4424
    5SAPS   H3Y  619   3.386   2.955  10.197  0.5362  3.2049  0.2509
    5SAPS   C34  620   3.284   3.095  10.070 -0.0964  0.3458  0.0245
    5SAPS   H4X  621   3.331   3.177  10.129 -2.2089  2.0358 -0.5738
    5SAPS   H4Y  622   3.179   3.114  10.040 -0.5522  0.1490  1.4361
    5SAPS   C35  623   3.363   3.077   9.946 -0.1252  0.3718 -0.1398
    5SAPS   H5X  624   3.316   2.996   9.885  1.7179  0.2675 -1.4668
    5SAPS   H5Y  625   3.466   3.038   9.962  0.4198  0.1679 -3.7260
    5SAPS   C36  626   3.350   3.189   9.841 -0.0357  0.7416 -0.1974
    5SAPS   H6X  627   3.362   3.287   9.893 -1.4049 -1.2567  4.1876
    5SAPS   H6Y  628   3.247   3.179   9.799  0.2422 -0.1722 -0.6703
    5SAPS   C37  629   3.460   3.178   9.741  0.4206 -0.0173 -0.6366
    5SAPS   H7X  630   3.458   3.078   9.693  1.7034  0.2225 -1.1980
    5SAPS   H7Y  631   3.553   3.188   9.800 -0.9075 -0.5811  1.6402
    5SAPS   C38  632   3.464   3.286   9.635  0.5289 -0.0636 -0.4483
    5SAPS   H8X  633   3.442   3.375   9.697  1.3031  1.2821 -2.0888
    5SAPS   H8Y  634   3.382   3.277   9.561  0.5362 -3.1466 -0.1502
    5SAPS   C39  635   3.607   3.308   9.578 -0.0101  1.1823 -0.1048
    5SAPS   H9X  636   3.665   3.345   9.665  0.8668 -0.3567 -0.0229
    5SAPS   H9Y  637   3.611   3.387   9.499  1.1392  0.4060 -0.8352
    5SAPS  C310  638   3.675   3.180   9.522  0.1749 -0.0804  0.4056
    5SAPS  H10X  639   3.680   3.102   9.601 -1.5237  0.4419  1.0520
    5SAPS  H10Y  640   3.778   3.213   9.495  0.4772  0.0526  1.6754
    5SAPS  C311  641   3.605   3.122   9.404  0.6008 -0.0249  0.2500
    5SAPS  H11X  642   3.502   3.088   9.431  0.8893 -0.4587  0.8157
    5SAPS  H11Y  643   3.662   3.032   9.370 -0.9865 -1.1388  0.4607
    5SAPS  C312  644   3.595   3.227   9.293 -0.7477  0.2142  0.7908
    5SAPS  H12X  645   3.696   3.259   9.257 -1.1821  1.0988  0.3604
    5SAPS  H12Y  646   3.526   3.305   9.330 -1.8365 -0.0002 -0.7293
    5SAPS  C313  647   3.522   3.167   9.170  0.2936 -0.3190  0.1264
    5SAPS  H13X  648   3.424   3.128   9.203  1.5094 -3.1023  0.5568
    5SAPS  H13Y  649   3.589   3.087   9.131  0.3972  0.7328 -1.9285
    5SAPS  C314  650   3.504   3.266   9.051  0.1560  0.3804 -0.2032
    5SAPS  H14X  651   3.609   3.288   9.022  1.0437 -2.1112  1.0215
    5SAPS  H14Y  652   3.444   3.356   9.078 -0.3319 -0.4152  1.4044
    5SAPS  C315  653   3.437   3.198   8.929 -0.2240  0.1215  0.1086
    5SAPS  H15X  654   3.505   3.126   8.879 -1.4796 -0.5897 -0.5767
    5SAPS  H15Y  655   3.421   3.274   8.850  3.1439  1.2832  0.4741
    5SAPS  C316  656   3.313   3.115   8.949  0.9929 -0.7231  0.2361
    5SAPS  H16X  657   3.242   3.184   8.998  2.1996  1.7624 -1.4127
    5SAPS  H16Y  658   3.342   3.039   9.024  0.8441 -1.6655 -0.6538
    5SAPS  C317  659   3.256   3.048   8.823 -0.5902 -0.5616 -0.5076
    5SAPS  H17X  660   3.310   2.953   8.806  0.0423 -0.1228 -0.9293
    5SAPS  H17Y  661   3.277   3.115   8.737  0.6087  0.8322  0.8386
    5SAPS  C318  662   3.113   3.017   8.846 -0.4327  0.0317  0.6656
    5SAPS  H18X  663   3.097   2.975   8.948  1.7768 -0.8790  0.6642
    5SAPS  H18Y  664   3.082   2.946   8.766  1.4678  1.5657 -1.5046
    5SAPS  H18Z  665   3.054   3.111   8.847  0.9240  0.9169 -1.0057
    6SAPS     N  666   1.356   2.038  10.910  0.8068 -0.2209 -0.6853
    6SAPS   HN1  667   1.438   1.974  10.914  1.0164  0.1254  1.1405
    6SAPS   HN2  668   1.270   1.986  10.938 -0.1540  0.5561 -2.1092
    6SAPS   HN3  669   1.346   2.068  10.811  1.2698 -2.9733 -1.6089
    6SAPS   C12  670   1.385   2.142  11.005  0.2741 -0.1812 -0.4339
    6SAPS  H12A  671   1.311   2.218  10.983  1.4849  0.9587 -0.6223
    6SAPS   C13  672   1.368   2.109  11.146 -0.2308 -0.3595 -0.6656
    6SAPS  O13A  673   1.334   1.995  11.180  0.2820 -0.3445 -0.3616
    6SAPS  O13B  674   1.407   2.191  11.234 -0.1052 -0.0653  0.2942
    6SAPS   C11  675   1.534   2.188  10.979 -0.6513  0.6904  0.2572
    6SAPS  H11A  676   1.612   2.116  11.011 -0.0775  1.6695  1.0707
    6SAPS  H11B  677   1.557   2.277  11.042  2.0568  0.0757  0.1871
    6SAPS     P  678   1.526   2.372  10.788 -0.0208 -0.0523 -0.2364
    6SAPS   O13  679   1.384   2.391  10.817 -0.3135  0.5561 -0.0231
    6SAPS   O14  680   1.619   2.482  10.831 -0.7776 -0.5638 -0.5822
    6SAPS   O12  681   1.557   2.228  10.844 -0.0718  0.3986  0.0136
    6SAPS   O11  682   1.540   2.354  10.628 -0.1247 -0.1163  0.2689
    6SAPS    C1  683   1.626   2.262  10.567 -0.0688 -0.1773 -1.2964
    6SAPS    HA  684   1.730   2.300  10.580 -1.0037  2.3883 -1.0840
    6SAPS    HB  685   1.626   2.160  10.612 -1.3710  1.1018  1.7558
    6SAPS    C2  686   1.588   2.239  10.422 -0.1174 -0.2323  0.0924
    6SAPS    HS  687   1.673   2.187  10.372  1.4108  1.3037  1.0234
    6SAPS   O21  688   1.567   2.365  10.357 -0.3011 -0.2892 -0.1449
    6SAPS   C21  689   1.666   2.397  10.271  0.7049 -0.6551  0.2502
    6SAPS   O22  690   1.778   2.355  10.264  0.5910  0.4451  0.1793
    6SAPS   C22  691   1.610   2.511  10.188  0.0842  0.6209 -0.2244
    6SAPS   H2R  692   1.546   2.461  10.113  0.7700 -1.6557  0.6598
    6SAPS   H2S  693   1.546   2.582  10.245 -1.8850  0.4314 -2.1424
    6SAPS    C3  694   1.465   2.151  10.404 -0.4241 -0.2291  0.3895
    6SAPS    HX  695   1.436   2.163  10.298 -3.6889 -1.3134  1.0924
    6SAPS    HY  696   1.378   2.200  10.454  0.5727 -1.0139  2.9795
    6SAPS   O31  697   1.474   2.013  10.453 -0.1979  0.3298 -0.6291
    6SAPS   C31  698   1.424   1.978  10.566  0.0300  0.3594 -0.2712
    6SAPS   O32  699   1.373   2.045  10.653 -0.0116 -0.2596  0.0057
    6SAPS   C32  700   1.431   1.823  10.580  0.1283  0.6950 -0.2053
    6SAPS   H2X  701   1.460   1.790  10.682 -0.3508 -1.0412 -0.6083
    6SAPS   H2Y  702   1.518   1.793  10.518  0.3252  2.5704 -0.8567
    6SAPS   C23  703   1.726   2.585  10.117 -0.0651 -0.0539  0.6892
    6SAPS   H3R  704   1.803   2.514  10.079  0.7360  1.1485  0.0192
    6SAPS   H3S  705   1.778   2.669  10.168  0.0053  0.5053 -0.2949
    6SAPS   C24  706   1.666   2.666   9.995  0.5305 -0.0050 -0.1231
    6SAPS   H4R  707   1.611   2.757  10.026 -2.1567 -2.1279  1.4691
    6SAPS   H4S  708   1.588   2.596   9.960  0.0939 -0.0209  0.8776
    6SAPS   C25  709   1.762   2.711   9.886 -0.5668  0.2836  0.3212
    6SAPS   H5R  710   1.834   2.784   9.924  1.8988 -1.1247 -1.5094
    6SAPS   C26  711   1.765   2.663   9.762 -0.2297 -0.2367 -0.5158
    6SAPS   H6R  712   1.843   2.705   9.696 -0.9117 -0.6182 -1.5912
    6SAPS   C27  713   1.672   2.564   9.693  0.4262  0.8884  0.0306
    6SAPS   H7R  714   1.632   2.611   9.600  2.5763  1.5402 -0.5754
    6SAPS   H7S  715   1.577   2.547   9.749 -0.9657  1.9385 -1.9350
    6SAPS   C28  716   1.734   2.427   9.652 -0.1333 -0.3322  0.0254
    6SAPS   H8R  717   1.746   2.346   9.726  0.2621  0.7035  1.1113
    6SAPS   C29  718   1.791   2.412   9.528 -0.0331 -0.9245  0.4494
    6SAPS   H9R  719   1.838   2.313   9.516  1.3326 -0.5564  2.4441
    6SAPS  C210  720   1.805   2.512   9.419 -0.3039 -0.0173  0.8075
    6SAPS  H10R  721   1.812   2.609   9.473 -2.6536  0.5816  0.0721
    6SAPS  H10S  722   1.709   2.521   9.365  0.6818 -1.7576 -1.3020
    6SAPS  C211  723   1.925   2.500   9.332  0.6722  0.4493  0.2297
    6SAPS  H11R  724   2.022   2.485   9.381  0.1709  1.2426  1.4772
    6SAPS  C212  725   1.934   2.496   9.197 -0.6159  0.0783  0.2055
    6SAPS  H12R  726   2.032   2.499   9.149 -1.3990 -3.0957 -1.7584
    6SAPS  C213  727   1.811   2.505   9.102 -0.0489 -0.0806 -0.5993
    6SAPS  H13R  728   1.803   2.610   9.068  1.0097  0.0556 -0.4685
    6SAPS  H13S  729   1.717   2.493   9.159  1.2892 -1.8850  1.3275
    6SAPS  C214  730   1.824   2.403   8.991 -0.3806 -0.1096  0.4664
    6SAPS  H14R  731   1.869   2.310   9.028 -1.7150 -0.7646  0.4725
    6SAPS  C215  732   1.797   2.402   8.857  0.1472 -0.6505  0.8160
    6SAPS  H15R  733   1.813   2.307   8.805  1.2532  0.9218 -1.8143
    6SAPS  C216  734   1.738   2.519   8.780 -0.2513  0.4763  0.6489
    6SAPS  H16R  735   1.797   2.613   8.790 -3.0155  2.2757  0.6973
    6SAPS  H16S  736   1.638   2.549   8.816  0.1038  3.6631 -0.8317
    6SAPS  C217  737   1.720   2.478   8.629  0.0692 -0.2222  0.4813
    6SAPS  H17R  738   1.677   2.376   8.630 -0.4108 -0.0266 -0.0963
    6SAPS  H17S  739   1.818   2.478   8.576  1.3507  0.4447  2.7656
    6SAPS  C218  740   1.627   2.565   8.548  0.3878 -0.2956  0.8057
    6SAPS  H18R  741   1.666   2.668   8.562  0.3893 -0.0859 -0.5948
    6SAPS  H18S  742   1.524   2.578   8.587 -0.2099  2.2212 -1.4652
    6SAPS  C219  743   1.609   2.522   8.398  0.9078  0.5810  0.7270
    6SAPS  H19R  744   1.565   2.421   8.381  0.8062  0.9255 -1.1713
    6SAPS  H19S  745   1.707   2.523   8.346 -0.1562 -0.4826 -1.3751
    6SAPS  C220  746   1.515   2.617   8.324 -0.1097 -0.0986 -0.2669
    6SAPS  H20R  747   1.526   2.583   8.219  1.3799 -0.6212  0.0609
    6SAPS  H20S  748   1.558   2.719   8.337  0.6409 -0.4358 -0.1554
    6SAPS  H20T  749   1.414   2.620   8.370  1.0972  0.4515  2.4452
    6SAPS   C33  750   1.314   1.735  10.531  0.6508 -0.4882  0.2191
    6SAPS   H3X  751   1.224   1.764  10.590 -0.5712 -0.8957 -1.4235
    6SAPS   H3Y  752   1.334   1.632  10.568  0.1198 -0.6310  0.1007
    6SAPS   C34  753   1.299   1.737  10.385 -0.4347 -0.2527  0.5653
    6SAPS   H4X  754   1.329   1.835  10.343 -0.9429 -0.5821 -0.5956
    6SAPS   H4Y  755   1.193   1.713  10.359  0.3814  0.1393 -3.5140
    6SAPS   C35  756   1.388   1.644  10.304  0.5275  0.3342 -0.4239
    6SAPS   H5X  757   1.359   1.537  10.304 -0.7364  0.6433 -2.4843
    6SAPS   H5Y  758   1.495   1.659  10.328  0.3245  0.7857  0.1942
    6SAPS   C36  759   1.386   1.668  10.149  0.5256  0.5888 -0.2870
    6SAPS   H6X  760   1.405   1.773  10.120 -1.0572  1.3722  1.4205
    6SAPS   H6Y  761   1.283   1.645  10.115 -0.3960  2.1141  1.3589
    6SAPS   C37  762   1.506   1.596  10.081  0.6317  0.1460 -0.1054
    6SAPS   H7X  763   1.493   1.487  10.095 -2.4896  0.3438 -1.1980
    6SAPS   H7Y  764   1.604   1.616  10.131  0.1138 -0.4240  1.1445
    6SAPS   C38  765   1.512   1.616   9.929  0.2206 -0.3571 -0.4294
    6SAPS   H8X  766   1.532   1.723   9.910 -5.2844  1.0951  0.8772
    6SAPS   H8Y  767   1.418   1.575   9.886  0.9102 -0.4548 -1.8775
    6SAPS   C39  768   1.632   1.545   9.862 -0.0197  0.0061  0.3238
    6SAPS   H9X  769   1.623   1.435   9.873 -0.7907  0.0251 -0.0648
    6SAPS   H9Y  770   1.724   1.572   9.917  1.4622 -0.5647 -1.7904
    6SAPS  C310  771   1.649   1.565   9.711  0.2199 -0.2007  0.9546
    6SAPS  H10X  772   1.747   1.521   9.680  1.1346 -0.0414  3.5313
    6SAPS  H10Y  773   1.662   1.673   9.684  2.7247 -0.2459  1.8892
    6SAPS  C311  774   1.540   1.492   9.629  0.5524  0.6255  0.2848
    6SAPS  H11X  775   1.447   1.549   9.650 -1.3036 -1.8678 -0.9026
    6SAPS  H11Y  776   1.520   1.389   9.665  1.1142  0.5173  0.2822
    6SAPS  C312  777   1.570   1.485   9.481 -0.6536 -0.6153  0.1701
    6SAPS  H12X  778   1.652   1.410   9.475  1.4143  1.5565  0.6318
    6SAPS  H12Y  779   1.609   1.583   9.446  1.7122 -1.0895  1.3824
    6SAPS  C313  780   1.451   1.431   9.399 -0.3338 -0.2561 -0.2468
    6SAPS  H13X  781   1.357   1.466   9.446 -0.7588  0.7828 -1.8372
    6SAPS  H13Y  782   1.446   1.321   9.404 -0.8372 -0.2086  0.3367
    6SAPS  C314  783   1.469   1.469   9.252  0.9228  0.3745 -0.0975
    6SAPS  H14X  784   1.550   1.405   9.213  0.3544  0.4544 -1.4265
    6SAPS  H14Y  785   1.487   1.576   9.226 -2.5736  1.6052  2.0746
    6SAPS  C315  786   1.337   1.435   9.182 -0.3574  0.0812 -0.2534
    6SAPS  H15X  787   1.251   1.473   9.240  0.7998  1.7284  0.4378
    6SAPS  H15Y  788   1.342   1.324   9.184  2.9905  0.1628 -0.1711
    6SAPS  C316  789   1.352   1.483   9.036  0.7404 -0.6841 -0.3486
    6SAPS  H16X  790   1.459   1.494   9.008  1.4556 -0.2356  2.4079
    6SAPS  H16Y  791   1.305   1.583   9.030 -0.7973 -1.2904  1.0518
    6SAPS  C317  792   1.294   1.392   8.929 -0.6219 -0.6795  0.1489
    6SAPS  H17X  793   1.186   1.382   8.953 -1.0078  0.4785 -1.0445
    6SAPS  H17Y  794   1.338   1.291   8.935 -1.4425 -0.9841  1.2964
    6SAPS  C318  795   1.315   1.450   8.792 -0.2856 -0.0549 -0.0909
    6SAPS  H18X  796   1.283   1.556   8.789 -1.0146 -0.2378  1.0126
    6SAPS  H18Y  797   1.261   1.393   8.712  1.4017 -0.2786 -1.0814
    6SAPS  H18Z  798   1.423   1.455   8.767 -0.1141  1.3631  0.9072
    7SAPS     N  799   4.080   3.535  11.064 -0.0119  0.1066  0.1858
    7SAPS   HN1  800   4.033   3.485  10.985  0.4157  3.0647 -2.0325
    7SAPS   HN2  801   4.176   3.498  11.071  0.9041  2.1003 -1.3208
    7SAPS   HN3  802   4.031   3.495  11.147  1.4983 -0.0828  0.9899
    7SAPS   C12  803   4.079   3.687  11.047  0.2182 -0.2747 -0.7868
    7SAPS  H12A  804   4.007   3.721  10.974 -0.4419  1.1947  0.4934
    7SAPS   C13  805   4.032   3.745  11.182  0.4588  0.1124  0.6922
    7SAPS  O13A  806   3.978   3.673  11.273  0.1860  0.0728 -0.1873
    7SAPS  O13B  807   4.007   3.867  11.179 -0.4250 -0.4474  0.2757
    7SAPS   C11  808   4.214   3.744  11.013  0.0307 -0.5783 -0.6386
    7SAPS  H11A  809   4.294   3.713  11.085  2.8515  1.5701 -2.7244
    7SAPS  H11B  810   4.224   3.854  11.000 -0.7031 -0.0557  2.6645
    7SAPS     P  811   4.285   3.753  10.753 -0.2845  0.2131 -0.1801
    7SAPS   O13  812   4.375   3.868  10.772 -0.3075  0.4485  0.1540
    7SAPS   O14  813   4.319   3.655  10.651  0.1256  0.5484  0.4123
    7SAPS   O12  814   4.256   3.682  10.890 -0.0341 -0.4773 -0.4558
    7SAPS   O11  815   4.142   3.811  10.724 -0.2333 -0.2688 -0.2769
    7SAPS    C1  816   4.053   3.766  10.615 -0.1185 -0.0972 -0.9454
    7SAPS    HA  817   4.039   3.658  10.635  0.1259  0.2175  0.9575
    7SAPS    HB  818   3.952   3.808  10.635  1.6023  3.2911  1.1249
    7SAPS    C2  819   4.116   3.783  10.470  0.5185  0.0172 -0.7226
    7SAPS    HS  820   4.204   3.717  10.456 -0.4350 -1.4394  0.1123
    7SAPS   O21  821   4.139   3.925  10.445  0.5973 -0.0755  0.0055
    7SAPS   C21  822   4.256   3.948  10.375 -0.0738 -0.0247  0.0771
    7SAPS   O22  823   4.320   3.855  10.329 -0.1385 -0.1707 -0.1738
    7SAPS   C22  824   4.279   4.097  10.356 -0.7049 -0.2565  0.0709
    7SAPS   H2R  825   4.215   4.160  10.422 -1.3882  0.2214 -1.0460
    7SAPS   H2S  826   4.385   4.118  10.383 -0.6571 -1.5593  0.9177
    7SAPS    C3  827   4.005   3.736  10.366 -0.3058  0.7580  0.7897
    7SAPS    HX  828   3.915   3.800  10.376 -0.3075  1.4431 -3.0129
    7SAPS    HY  829   3.972   3.634  10.397  4.1650 -0.6441  1.2650
    7SAPS   O31  830   4.053   3.734  10.229  0.1806 -0.0791 -0.1523
    7SAPS   C31  831   4.121   3.625  10.190 -0.0907  0.3568 -0.0454
    7SAPS   O32  832   4.147   3.527  10.253 -0.4226  0.1803  0.0230
    7SAPS   C32  833   4.167   3.645  10.041  0.3724  0.2479  0.5332
    7SAPS   H2X  834   4.076   3.671   9.983  0.0807 -0.6395  0.5794
    7SAPS   H2Y  835   4.221   3.554  10.007 -0.1880  1.5168 -4.1350
    7SAPS   C23  836   4.244   4.141  10.209  0.3358  0.2846  0.4849
    7SAPS   H3R  837   4.258   4.057  10.137  0.0242  0.7760 -0.1454
    7SAPS   H3S  838   4.314   4.223  10.186 -1.3573  0.9071 -2.6722
    7SAPS   C24  839   4.110   4.205  10.182  0.1644  0.4492 -0.1871
    7SAPS   H4R  840   4.108   4.239  10.076 -1.2278 -2.2753 -1.0872
    7SAPS   H4S  841   4.080   4.289  10.248  0.8622 -0.0353  0.7642
    7SAPS   C25  842   4.003   4.095  10.194 -0.0537  0.4886  0.6351
    7SAPS   H5R  843   3.948   4.095  10.290 -2.1121 -0.2509 -0.5228
    7SAPS   C26  844   3.967   4.017  10.092 -0.1671  0.0503 -0.0458
    7SAPS   H6R  845   3.879   3.951  10.104  0.2340 -0.5204 -0.2137
    7SAPS   C27  846   4.017   4.010   9.953  0.0363 -0.0162 -0.2563
    7SAPS   H7R  847   4.020   3.905   9.919  0.8108 -0.7418  1.9982
    7SAPS   H7S  848   4.125   4.035   9.954  0.3551 -1.3579 -0.2110
    7SAPS   C28  849   3.960   4.093   9.841  0.6656  0.3129  0.0294
    7SAPS   H8R  850   3.874   4.156   9.869  0.7804  0.5304 -0.1042
    7SAPS   C29  851   3.989   4.096   9.711  0.6463 -0.5449  0.2220
    7SAPS   H9R  852   3.926   4.166   9.654  1.2094  1.5184  2.0469
    7SAPS  C210  853   4.105   4.025   9.647 -0.1267  0.5673  0.1262
    7SAPS  H10R  854   4.147   3.940   9.707  2.4202  1.0079 -0.9506
    7SAPS  H10S  855   4.198   4.086   9.649  0.8689 -0.9464  1.5403
    7SAPS  C211  856   4.091   3.987   9.499  0.3312 -0.5210 -0.4231
    7SAPS  H11R  857   3.993   3.956   9.459 -0.6472  3.1285 -0.9700
    7SAPS  C212  858   4.186   3.989   9.404  0.0651 -0.5156 -0.1655
    7SAPS  H12R  859   4.166   3.945   9.305  3.2880 -0.0697 -1.0480
    7SAPS  C213  860   4.327   4.029   9.406 -0.4162 -0.6441 -0.3888
    7SAPS  H13R  861   4.398   3.959   9.356  0.7200 -1.0174  1.7004
    7SAPS  H13S  862   4.355   4.034   9.513 -2.2204  1.8235  0.0279
    7SAPS  C214  863   4.333   4.157   9.325  0.7710  0.4989 -0.1843
    7SAPS  H14R  864   4.289   4.140   9.226  0.1404  1.7770 -0.1350
    7SAPS  C215  865   4.378   4.282   9.363 -0.5127  0.2911 -0.6192
    7SAPS  H15R  866   4.360   4.363   9.291 -0.2133  1.6553  0.8098
    7SAPS  C216  867   4.428   4.331   9.495 -0.0753  0.4343 -0.5091
    7SAPS  H16R  868   4.490   4.422   9.477  1.6249 -0.3515  1.0982
    7SAPS  H16S  869   4.489   4.251   9.543 -1.4076 -0.5556 -0.4691
    7SAPS  C217  870   4.307   4.375   9.579 -0.6303  0.1599 -0.9540
    7SAPS  H17R  871   4.259   4.285   9.622 -0.8818  1.1240  0.8185
    7SAPS  H17S  872   4.234   4.425   9.512 -2.9806  0.7618  1.9319
    7SAPS  C218  873   4.351   4.475   9.684 -0.2180  0.8152 -0.1810
    7SAPS  H18R  874   4.256   4.489   9.741 -1.5395 -2.0624 -1.5420
    7SAPS  H18S  875   4.387   4.567   9.633  1.1045 -0.4869 -1.6599
    7SAPS  C219  876   4.459   4.425   9.787  0.0284  0.6146  0.0744
    7SAPS  H19R  877   4.560   4.425   9.740 -0.3430 -2.3761 -0.8076
    7SAPS  H19S  878   4.446   4.322   9.826 -0.5826  1.2625  1.5998
    7SAPS  C220  879   4.465   4.525   9.900 -0.0020 -0.9666 -0.2090
    7SAPS  H20R  880   4.480   4.629   9.864 -0.9717 -0.8401 -0.2740
    7SAPS  H20S  881   4.548   4.487   9.963  2.0921 -0.0419 -2.3369
    7SAPS  H20T  882   4.362   4.527   9.942  0.2159  3.8093  0.3404
    7SAPS   C33  883   4.276   3.755  10.012 -0.6515 -0.7633 -0.0234
    7SAPS   H3X  884   4.357   3.740  10.087 -0.9165  0.5977  0.5514
    7SAPS   H3Y  885   4.230   3.851  10.040 -0.6012 -1.3239  2.1047
    7SAPS   C34  886   4.323   3.750   9.866  0.8599 -0.4322  0.4607
    7SAPS   H4X  887   4.376   3.844   9.839 -1.9498  0.8883 -0.6599
    7SAPS   H4Y  888   4.232   3.748   9.803  1.7933 -1.2361 -0.8740
    7SAPS   C35  889   4.418   3.633   9.833 -0.3758  0.3732 -0.2652
    7SAPS   H5X  890   4.379   3.534   9.867  0.8343  0.4511  1.4143
    7SAPS   H5Y  891   4.515   3.657   9.880 -0.9133  1.7608  0.1335
    7SAPS   C36  892   4.450   3.614   9.682 -0.0626 -0.0173 -0.0739
    7SAPS   H6X  893   4.535   3.545   9.664 -1.5846 -2.8422  2.9726
    7SAPS   H6Y  894   4.489   3.714   9.656 -0.0254  0.0928  0.4005
    7SAPS   C37  895   4.332   3.562   9.590 -0.3067  0.0582 -0.4442
    7SAPS   H7X  896   4.241   3.619   9.616 -0.0938  1.3107 -2.3352
    7SAPS   H7Y  897   4.324   3.452   9.609  1.0534  0.1404  0.6005
    7SAPS   C38  898   4.370   3.577   9.443 -0.2438  0.3620  0.0957
    7SAPS   H8X  899   4.454   3.507   9.424 -0.2923  0.4828 -0.5889
    7SAPS   H8Y  900   4.393   3.685   9.433  1.8201 -0.2645 -2.4842
    7SAPS   C39  901   4.261   3.549   9.337 -0.0023  0.8972 -0.6856
    7SAPS   H9X  902   4.162   3.581   9.374  0.4964  1.2909  0.3136
    7SAPS   H9Y  903   4.255   3.445   9.298  1.2087  0.5857 -0.0727
    7SAPS  C310  904   4.309   3.630   9.218  0.1750  0.3246 -0.4913
    7SAPS  H10X  905   4.415   3.610   9.190 -0.1058 -0.1549 -1.2550
    7SAPS  H10Y  906   4.313   3.737   9.246  0.3918 -0.0801  1.0524
    7SAPS  C311  907   4.218   3.606   9.096  0.6105  0.1860 -0.9007
    7SAPS  H11X  908   4.113   3.629   9.124  1.1945  0.0682  1.5215
    7SAPS  H11Y  909   4.209   3.498   9.072  1.3238 -0.0186 -0.2656
    7SAPS  C312  910   4.273   3.687   8.974  0.4959  0.4300  0.9064
    7SAPS  H12X  911   4.378   3.653   8.963 -0.0978 -0.8740 -1.1408
    7SAPS  H12Y  912   4.271   3.796   8.993 -0.3017  0.8927 -1.6147
    7SAPS  C313  913   4.195   3.655   8.848  0.1494  1.3890  0.2113
    7SAPS  H13X  914   4.242   3.685   8.752 -0.6591 -2.8105 -1.6424
    7SAPS  H13Y  915   4.117   3.733   8.857  0.6794  1.7925  1.4085
    7SAPS  C314  916   4.119   3.517   8.843 -0.2588 -0.7935 -0.4720
    7SAPS  H14X  917   4.047   3.504   8.927  0.9991  1.3291  1.0082
    7SAPS  H14Y  918   4.204   3.447   8.856 -0.6427 -1.1381  0.2494
    7SAPS  C315  919   4.042   3.492   8.712  0.7165  0.4691  0.2081
    7SAPS  H15X  920   4.124   3.469   8.641 -1.0766  0.4024 -1.8719
    7SAPS  H15Y  921   3.981   3.578   8.678 -0.1704 -0.1831  0.1370
    7SAPS  C316  922   3.955   3.373   8.727  0.0037  0.2134 -0.1075
    7SAPS  H16X  923   3.866   3.386   8.793 -0.4465  1.5602 -0.9555
    7SAPS  H16Y  924   4.019   3.289   8.761  0.9120  1.0316  0.2215
    7SAPS  C317  925   3.890   3.327   8.592 -0.6158 -0.3543 -0.5159
    7SAPS  H17X  926   3.966   3.314   8.513 -0.5205  2.0343 -0.8529
    7SAPS  H17Y  927   3.821   3.409   8.560  0.5524 -0.0027 -2.2033
    7SAPS  C318  928   3.826   3.190   8.600  0.3737  0.1962 -0.8549
    7SAPS  H18X  929   3.772   3.164   8.507 -2.8875 -1.9043  1.5339
    7SAPS  H18Y  930   3.750   3.201   8.680  1.4708  0.2540  0.2046
    7SAPS  H18Z  931   3.892   3.108   8.636 -2.6116 -0.5159  3.3590
    8SAPS     N  932   2.278   4.701  11.143  0.6707 -0.2155  0.4074
    8SAPS   HN1  933   2.301   4.727  11.045 -0.4677 -1.8326 -0.3245
    8SAPS   HN2  934   2.334   4.762  11.206 -0.8031  1.1974  0.3765
    8SAPS   HN3  935   2.321   4.607  11.156 -1.9947 -1.6241 -0.5053
    8SAPS   C12  936   2.132   4.708  11.154 -0.5571 -0.1377 -0.1417
    8SAPS  H12A  937   2.092   4.661  11.065 -1.5363 -0.0353  0.2435
    8SAPS   C13  938   2.084   4.626  11.283  0.1347 -0.7970  0.1565
    8SAPS  O13A  939   2.165   4.587  11.370  0.1554  1.0238  0.0795
    8SAPS  O13B  940   1.959   4.644  11.305 -0.6082  0.3138 -0.4377
    8SAPS   C11  941   2.089   4.858  11.172  0.2100 -0.0596  0.1841
    8SAPS  H11A  942   2.125   4.892  11.271 -1.4982  0.4873  0.6505
    8SAPS  H11B  943   1.978   4.850  11.169  0.1597 -0.9246  3.1236
    8SAPS     P  944   2.079   5.080  11.039 -0.0578  0.3608  0.1921
    8SAPS   O13  945   1.939   5.058  11.009  0.2618 -0.0739  0.0271
    8SAPS   O14  946   2.113   5.170  11.151 -0.0423  0.4994 -0.0851
    8SAPS   O12  947   2.144   4.934  11.064  0.2821 -0.3189  0.0862
    8SAPS   O11  948   2.143   5.132  10.902 -0.8209 -0.0465  0.3606
    8SAPS    C1  949   2.245   5.053  10.841  0.3676  0.3380 -0.8579
    8SAPS    HA  950   2.312   5.127  10.791  0.6850  0.0335 -0.8860
    8SAPS    HB  951   2.309   5.001  10.915  0.1705 -0.9201 -1.5656
    8SAPS    C2  952   2.192   4.948  10.742 -0.4648  0.0391  0.0905
    8SAPS    HS  953   2.131   4.879  10.804  1.6074 -0.6477  1.3734
    8SAPS   O21  954   2.298   4.878  10.683  0.4988 -0.4809  0.3375
    8SAPS   C21  955   2.371   4.801  10.765  0.5918 -0.5508  0.3415
    8SAPS   O22  956   2.334   4.778  10.879 -0.7211 -0.1267 -0.4268
    8SAPS   C22  957   2.496   4.748  10.694  0.7516 -0.4833 -0.0995
    8SAPS   H2R  958   2.563   4.834  10.676  0.1713  0.5094  2.3422
    8SAPS   H2S  959   2.545   4.681  10.768  2.1273  0.3260 -0.2555
    8SAPS    C3  960   2.093   5.021  10.644  0.4220 -0.7757 -0.2127
    8SAPS    HX  961   2.143   5.110  10.602 -2.2053  0.7602 -0.2217
    8SAPS    HY  962   2.008   5.066  10.701  1.1671 -2.0700  2.0057
    8SAPS   O31  963   2.031   4.940  10.540 -0.1403  0.1185  0.1679
    8SAPS   C31  964   1.945   5.014  10.479  0.1009  0.0962  0.1888
    8SAPS   O32  965   1.927   5.134  10.495 -0.0889 -0.2446  0.7159
    8SAPS   C32  966   1.877   4.934  10.359 -0.7135 -0.0973 -0.1620
    8SAPS   H2X  967   1.808   4.860  10.406  0.4341 -0.5080  0.9277
    8SAPS   H2Y  968   1.962   4.886  10.307  0.6212  0.6084  1.3271
    8SAPS   C23  969   2.474   4.662  10.565 -0.0265  0.2661  0.8042
    8SAPS   H3R  970   2.575   4.658  10.519 -0.7192  2.0646 -0.9247
    8SAPS   H3S  971   2.405   4.707  10.490 -2.6607 -4.6340  0.1037
    8SAPS   C24  972   2.445   4.511  10.590  0.0121  0.1224 -0.3945
    8SAPS   H4R  973   2.377   4.498  10.677  2.4611  1.1782  1.7387
    8SAPS   H4S  974   2.543   4.467  10.618 -0.5358  0.0235  1.4362
    8SAPS   C25  975   2.385   4.455  10.458  0.9636 -0.0553 -0.2618
    8SAPS   H5R  976   2.464   4.419  10.391  0.9531  0.8445 -0.7603
    8SAPS   C26  977   2.256   4.462  10.417 -0.1217  0.1082  1.0641
    8SAPS   H6R  978   2.238   4.424  10.316 -0.3826 -0.3236  1.2722
    8SAPS   C27  979   2.148   4.525  10.492  0.2149  0.5791 -0.7118
    8SAPS   H7R  980   2.184   4.600  10.566  1.2893 -0.2497 -0.3662
    8SAPS   H7S  981   2.084   4.455  10.550  0.8370  0.3234 -0.3248
    8SAPS   C28  982   2.056   4.598  10.400  0.1765 -0.5087  0.6977
    8SAPS   H8R  983   2.104   4.688  10.359 -0.5522 -0.0436  0.8600
    8SAPS   C29  984   1.938   4.559  10.348 -0.9478 -0.2768  0.9153
    8SAPS   H9R  985   1.886   4.626  10.277  1.5271  0.7689  0.0488
    8SAPS  C210  986   1.874   4.426  10.380 -0.7415 -0.4378  0.1035
    8SAPS  H10R  987   1.921   4.367  10.461  0.2554  0.0314 -0.1207
    8SAPS  H10S  988   1.874   4.361  10.289  0.1164 -0.9925  0.4980
    8SAPS  C211  989   1.731   4.436  10.423  0.4661 -0.2850  0.4795
    8SAPS  H11R  990   1.712   4.435  10.531 -1.6975 -1.7320  0.1163
    8SAPS  C212  991   1.626   4.439  10.339  0.0977  0.1913  0.0002
    8SAPS  H12R  992   1.532   4.422  10.393  0.4332 -2.6809 -0.2292
    8SAPS  C213  993   1.622   4.425  10.191  0.1134 -0.0403 -0.3666
    8SAPS  H13R  994   1.719   4.456  10.147 -0.0865  1.2895  0.0964
    8SAPS  H13S  995   1.558   4.509  10.157 -0.9620 -1.8558 -2.9779
    8SAPS  C214  996   1.588   4.288  10.136 -0.2903 -0.3547  0.3777
    8SAPS  H14R  997   1.576   4.206  10.209 -1.0513 -1.2450 -0.7324
    8SAPS  C215  998   1.594   4.249  10.003 -0.3553 -0.3840  0.2472
    8SAPS  H15R  999   1.548   4.152   9.982  0.4828 -1.0111  1.2792
    8SAPS  C216 1000   1.632   4.340   9.883  0.1336  0.5681  0.3555
    8SAPS  H16R 1001   1.716   4.293   9.828  1.3925 -0.1382  2.8446
    8SAPS  H16S 1002   1.658   4.443   9.916  2.1291 -0.2376  1.3098
    8SAPS  C217 1003   1.505   4.359   9.791 -0.1380  0.1745  0.5667
    8SAPS  H17R 1004   1.472   4.264   9.744  0.9735  0.8084 -1.5710
    8SAPS  H17S 1005   1.524   4.432   9.709  1.9569 -0.5621  0.3651
    8SAPS  C218 1006   1.379   4.417   9.855 -0.6751  0.4075 -0.2974
    8SAPS  H18R 1007   1.337   4.345   9.929  0.5065  0.1335  0.1259
    8SAPS  H18S 1008   1.292   4.424   9.787 -1.9132  0.4371  1.2481
    8SAPS  C219 1009   1.389   4.559   9.894  0.7290 -0.6994 -0.9767
    8SAPS  H19R 1010   1.371   4.621   9.804 -0.5104  2.0981  1.1052
    8SAPS  H19S 1011   1.486   4.583   9.945 -0.0819  1.2115 -0.2656
    8SAPS  C220 1012   1.279   4.603   9.989  0.5278 -0.5857 -0.3412
    8SAPS  H20R 1013   1.178   4.568   9.960  1.0172  0.4229 -3.4054
    8SAPS  H20S 1014   1.274   4.712  10.009 -0.0496 -0.5930 -0.4394
    8SAPS  H20T 1015   1.292   4.545  10.083 -1.2581  0.8595  0.8169
    8SAPS   C33 1016   1.814   5.043  10.258  0.2890 -1.0003  0.3722
    8SAPS   H3X 1017   1.897   5.117  10.252 -1.3001  0.8606  0.8707
    8SAPS   H3Y 1018   1.727   5.095  10.301 -0.2885 -0.3254 -1.5563
    8SAPS   C34 1019   1.778   4.978  10.121  0.7726  0.7381  0.4908
    8SAPS   H4X 1020   1.872   4.928  10.090 -0.1038  0.2561 -1.4767
    8SAPS   H4Y 1021   1.739   5.057  10.053 -2.9308  1.3919  3.2242
    8SAPS   C35 1022   1.700   4.846  10.126 -1.0243 -0.2916 -0.3806
    8SAPS   H5X 1023   1.596   4.868  10.160 -1.0622 -2.5326  1.0793
    8SAPS   H5Y 1024   1.753   4.776  10.194 -2.5422  0.0205  1.1675
    8SAPS   C36 1025   1.687   4.794   9.989  0.0638 -0.7523  0.3604
    8SAPS   H6X 1026   1.635   4.696   9.985 -1.1311 -0.0749 -1.2825
    8SAPS   H6Y 1027   1.789   4.787   9.946 -0.5128 -0.1052 -1.1479
    8SAPS   C37 1028   1.597   4.871   9.893  0.2995 -0.0844  0.4368
    8SAPS   H7X 1029   1.606   4.982   9.883  0.2789  0.0251  1.5199
    8SAPS   H7Y 1030   1.488   4.868   9.915 -0.1208 -1.4886 -1.7904
    8SAPS   C38 1031   1.601   4.806   9.760  0.1827 -0.3117  0.3008
    8SAPS   H8X 1032   1.595   4.696   9.751  2.8502 -0.4400 -0.3183
    8SAPS   H8Y 1033   1.701   4.834   9.721  0.5159  0.7769  1.8522
    8SAPS   C39 1034   1.490   4.863   9.668  0.2906  0.3197  0.3414
    8SAPS   H9X 1035   1.483   4.973   9.679  1.2448  0.3246  0.9921
    8SAPS   H9Y 1036   1.393   4.814   9.691 -0.3276  2.5428  2.6211
    8SAPS  C310 1037   1.517   4.830   9.520  0.0934 -0.1826  0.2293
    8SAPS  H10X 1038   1.494   4.722   9.511 -0.6896  0.1231 -1.6182
    8SAPS  H10Y 1039   1.619   4.856   9.485 -0.5630  4.2678  1.3383
    8SAPS  C311 1040   1.418   4.887   9.416 -0.9778 -0.1626  0.0795
    8SAPS  H11X 1041   1.402   4.995   9.435  0.9005  0.1126  0.1755
    8SAPS  H11Y 1042   1.325   4.827   9.424  0.3323 -2.0948  1.1691
    8SAPS  C312 1043   1.483   4.871   9.276 -0.0525 -0.9593  0.0188
    8SAPS  H12X 1044   1.488   4.763   9.253  0.9888 -1.1512  1.1205
    8SAPS  H12Y 1045   1.590   4.901   9.278  0.2537 -2.1122  2.9293
    8SAPS  C313 1046   1.395   4.939   9.164 -0.8163 -0.1036 -0.4377
    8SAPS  H13X 1047   1.298   4.926   9.218 -0.2673  1.9103  1.0914
    8SAPS  H13Y 1048   1.393   4.889   9.064  3.3541  1.4907 -1.4241
    8SAPS  C314 1049   1.441   5.084   9.148  0.2604 -0.1402 -0.3582
    8SAPS  H14X 1050   1.474   5.129   9.244  1.1764  2.1574 -1.7135
    8SAPS  H14Y 1051   1.353   5.138   9.107  0.6602 -1.2486 -2.7705
    8SAPS  C315 1052   1.549   5.107   9.050  0.3617  0.1997 -0.1246
    8SAPS  H15X 1053   1.516   5.067   8.952  1.4288  0.9639 -0.8111
    8SAPS  H15Y 1054   1.637   5.046   9.080  0.5680  0.5039 -0.0977
    8SAPS  C316 1055   1.590   5.255   9.030 -0.1024 -0.6689  0.1875
    8SAPS  H16X 1056   1.618   5.293   9.130  0.5378  2.0990 -1.0032
    8SAPS  H16Y 1057   1.494   5.310   9.015  0.5438  1.0472  2.1658
    8SAPS  C317 1058   1.697   5.281   8.928 -0.4553 -0.6351  0.1821
    8SAPS  H17X 1059   1.717   5.390   8.918  0.7569 -0.9533 -1.1588
    8SAPS  H17Y 1060   1.663   5.238   8.832  0.3204  1.4104 -1.0550
    8SAPS  C318 1061   1.835   5.222   8.970  0.1417  0.8226  0.2967
    8SAPS  H18X 1062   1.834   5.111   8.977 -0.6746  0.9452  2.7172
    8SAPS  H18Y 1063   1.847   5.260   9.074  0.6469 -1.5390  1.1304
    8SAPS  H18Z 1064   1.922   5.252   8.909  0.3064  1.3638  0.7923
    9SAPS     N 1065   3.797   0.989   6.313 -0.0508  0.2525  0.4641
    9SAPS   HN1 1066   3.843   0.964   6.403 -0.1677  1.1078  0.7590
    9SAPS   HN2 1067   3.844   0.938   6.235 -1.0977 -1.0579  0.6583
    9SAPS   HN3 1068   3.802   1.089   6.286  0.0218  0.5161  1.4363
    9SAPS   C12 1069   3.652   0.946   6.313  0.3371  0.9523 -0.2656
    9SAPS  H12A 1070   3.616   0.957   6.212  0.0155 -1.7734 -0.4868
    9SAPS   C13 1071   3.624   0.805   6.357  0.0686  0.1509 -0.5572
    9SAPS  O13A 1072   3.714   0.727   6.382 -0.2120  0.5343 -0.8837
    9SAPS  O13B 1073   3.506   0.761   6.358 -0.1386 -0.0484  0.1478
    9SAPS   C11 1074   3.582   1.040   6.423 -0.1028  1.6896  0.3870
    9SAPS  H11A 1075   3.643   1.032   6.515  0.3999 -1.6629 -0.1773
    9SAPS  H11B 1076   3.478   1.008   6.448  0.8286 -1.9289 -0.0787
    9SAPS     P 1077   3.680   1.286   6.445  0.1128 -0.1171  0.1161
    9SAPS   O13 1078   3.817   1.235   6.464 -0.2426  0.1546 -0.1036
    9SAPS   O14 1079   3.664   1.410   6.360 -0.0039 -0.6315 -0.0173
    9SAPS   O12 1080   3.590   1.173   6.383  0.0700 -0.2645 -0.5088
    9SAPS   O11 1081   3.607   1.303   6.587  0.5025  0.0684 -0.4524
    9SAPS    C1 1082   3.586   1.420   6.654  0.1743 -0.6143 -0.2341
    9SAPS    HA 1083   3.544   1.503   6.593  1.3914 -0.5615 -1.0074
    9SAPS    HB 1084   3.505   1.393   6.726  1.9494 -3.0782  0.8924
    9SAPS    C2 1085   3.717   1.469   6.724  0.7401 -1.2846 -0.2020
    9SAPS    HS 1086   3.795   1.473   6.645  0.8158 -1.5120 -0.1370
    9SAPS   O21 1087   3.751   1.370   6.819 -0.4477  0.1180 -0.3746
    9SAPS   C21 1088   3.876   1.382   6.868 -0.1662  0.5379  0.4481
    9SAPS   O22 1089   3.958   1.462   6.835 -0.3585  0.0145  0.0806
    9SAPS   C22 1090   3.908   1.281   6.984  0.0550 -0.5988  0.0805
    9SAPS   H2R 1091   3.834   1.296   7.066  0.2911  0.5962  0.0871
    9SAPS   H2S 1092   3.885   1.183   6.937  0.1569 -0.6930  0.2278
    9SAPS    C3 1093   3.711   1.608   6.780  0.1810  0.0904 -0.4218
    9SAPS    HX 1094   3.670   1.678   6.705  0.9899  0.4253 -0.5520
    9SAPS    HY 1095   3.815   1.643   6.798  0.3537 -0.8965  0.5326
    9SAPS   O31 1096   3.635   1.614   6.902 -0.6326  0.6379  0.6598
    9SAPS   C31 1097   3.696   1.637   7.017  0.6443 -0.2839 -0.2808
    9SAPS   O32 1098   3.814   1.654   7.037  0.8092 -0.0466 -0.0382
    9SAPS   C32 1099   3.587   1.645   7.124  0.0055 -0.1817  0.0627
    9SAPS   H2X 1100   3.537   1.546   7.115  0.7373 -0.4150 -1.5710
    9SAPS   H2Y 1101   3.511   1.717   7.087 -1.5386 -2.2331 -0.8636
    9SAPS   C23 1102   4.049   1.301   7.040 -0.2697 -0.1002 -0.2522
    9SAPS   H3R 1103   4.040   1.373   7.124 -0.0826  0.2120 -0.5006
    9SAPS   H3S 1104   4.119   1.343   6.965 -2.2381  1.6740 -1.1476
    9SAPS   C24 1105   4.105   1.170   7.099 -0.2738  0.5432  0.3877
    9SAPS   H4R 1106   4.096   1.086   7.026  0.4395  0.7952  0.0032
    9SAPS   H4S 1107   4.044   1.139   7.186  0.9020  0.0847  1.0575
    9SAPS   C25 1108   4.244   1.196   7.147 -0.8413 -0.2171 -0.9625
    9SAPS   H5R 1109   4.317   1.206   7.065  1.4106 -0.1033  1.0000
    9SAPS   C26 1110   4.280   1.209   7.275 -0.1434 -0.1373  0.5949
    9SAPS   H6R 1111   4.385   1.231   7.302  0.1641 -0.1178 -0.5721
    9SAPS   C27 1112   4.196   1.212   7.399 -0.5515  0.0399 -0.6062
    9SAPS   H7R 1113   4.209   1.125   7.466  0.3385  1.6962  1.4295
    9SAPS   H7S 1114   4.091   1.216   7.362  0.9951  1.0579 -5.1271
    9SAPS   C28 1115   4.221   1.338   7.483 -1.1462  1.7392 -0.5751
    9SAPS   H8R 1116   4.225   1.436   7.432  0.0336  2.1308  0.2542
    9SAPS   C29 1117   4.230   1.348   7.616  0.1732  0.3302 -0.6443
    9SAPS   H9R 1118   4.238   1.444   7.669 -0.5106  0.7468 -1.2814
    9SAPS  C210 1119   4.219   1.228   7.706  0.4196 -0.0529 -0.0734
    9SAPS  H10R 1120   4.260   1.139   7.654  3.4941  1.0634  0.3234
    9SAPS  H10S 1121   4.112   1.223   7.735  0.2185 -0.0857 -0.8017
    9SAPS  C211 1122   4.301   1.249   7.834  0.6994  0.3873  0.2156
    9SAPS  H11R 1123   4.400   1.200   7.833  0.5306  0.0391 -2.3541
    9SAPS  C212 1124   4.272   1.319   7.950  0.6819  0.3408  0.4560
    9SAPS  H12R 1125   4.352   1.345   8.021 -0.5130 -0.2514  2.0428
    9SAPS  C213 1126   4.144   1.386   7.976 -0.1626  0.0215 -0.8616
    9SAPS  H13R 1127   4.070   1.362   7.896  0.1258  2.6074 -1.9373
    9SAPS  H13S 1128   4.158   1.495   7.963 -0.8222  0.1506 -0.5392
    9SAPS  C214 1129   4.097   1.368   8.122  0.6923  0.5207 -0.0260
    9SAPS  H14R 1130   4.133   1.447   8.190  0.7747  1.3129 -0.9716
    9SAPS  C215 1131   4.035   1.256   8.166  0.1219 -0.0785 -0.0175
    9SAPS  H15R 1132   3.987   1.243   8.264 -1.5034 -0.0452 -0.7910
    9SAPS  C216 1133   3.998   1.138   8.086 -0.4605 -0.5508 -0.1418
    9SAPS  H16R 1134   3.982   1.048   8.149  0.6821 -1.9235 -1.7523
    9SAPS  H16S 1135   4.079   1.116   8.012 -0.6538 -0.8267 -0.2726
    9SAPS  C217 1136   3.864   1.156   8.012  0.6023  0.2892  0.1056
    9SAPS  H17R 1137   3.862   1.259   7.971  1.3678  0.0809 -0.4563
    9SAPS  H17S 1138   3.786   1.162   8.091  0.8392  0.0508  0.3591
    9SAPS  C218 1139   3.832   1.061   7.900 -0.2939  0.5604 -0.0873
    9SAPS  H18R 1140   3.840   0.952   7.921 -2.2194  0.7565  1.8509
    9SAPS  H18S 1141   3.916   1.088   7.834  1.5773 -1.6093  1.3147
    9SAPS  C219 1142   3.703   1.096   7.821  0.1055 -0.4434 -0.1843
    9SAPS  H19R 1143   3.708   1.201   7.783  1.4412 -0.2657  0.4589
    9SAPS  H19S 1144   3.617   1.094   7.891  0.4580  0.4352  0.2825
    9SAPS  C220 1145   3.681   0.999   7.709 -0.2052 -0.2273  0.3142
    9SAPS  H20R 1146   3.580   1.016   7.665 -0.4464 -2.2480  0.0439
    9SAPS  H20S 1147   3.681   0.893   7.740  0.2641 -0.2079  0.3813
    9SAPS  H20T 1148   3.752   1.007   7.625 -1.8817 -0.3983 -1.1363
    9SAPS   C33 1149   3.633   1.678   7.266  0.3253 -0.0720  0.2821
    9SAPS   H3X 1150   3.716   1.609   7.293  0.7381  0.8811  1.5350
    9SAPS   H3Y 1151   3.544   1.665   7.332  0.1881 -1.1932 -0.1173
    9SAPS   C34 1152   3.670   1.822   7.286  0.3597 -0.3419  0.5642
    9SAPS   H4X 1153   3.578   1.884   7.287  0.0761 -0.7662  0.6517
    9SAPS   H4Y 1154   3.727   1.855   7.196  0.5282 -0.6303  0.5659
    9SAPS   C35 1155   3.741   1.865   7.414  0.1040  0.3565  0.0680
    9SAPS   H5X 1156   3.835   1.807   7.424 -0.4758 -0.7403 -0.6994
    9SAPS   H5Y 1157   3.670   1.842   7.496 -0.7782  0.2898 -0.7173
    9SAPS   C36 1158   3.775   2.021   7.407 -0.2629  0.2865 -0.2783
    9SAPS   H6X 1159   3.677   2.072   7.414 -0.1721  0.4705 -0.3712
    9SAPS   H6Y 1160   3.834   2.053   7.319  1.1602  0.9278  0.8766
    9SAPS   C37 1161   3.850   2.066   7.530  0.2348 -0.1144 -0.5865
    9SAPS   H7X 1162   3.873   2.174   7.526  0.6892 -0.2477 -1.5571
    9SAPS   H7Y 1163   3.951   2.021   7.519  0.3208 -0.0005 -0.2767
    9SAPS   C38 1164   3.783   2.023   7.663 -0.4504  0.4134  0.3342
    9SAPS   H8X 1165   3.791   1.912   7.651 -0.6763  0.6251 -2.1394
    9SAPS   H8Y 1166   3.675   2.044   7.674 -0.7718 -0.3119 -1.2574
    9SAPS   C39 1167   3.851   2.077   7.784 -0.2152  0.2640 -0.5856
    9SAPS   H9X 1168   3.872   2.185   7.775 -2.6040  0.8092  0.1315
    9SAPS   H9Y 1169   3.943   2.014   7.786 -0.1691  0.3443 -0.1210
    9SAPS  C310 1170   3.758   2.048   7.905  0.0992  0.2215 -0.3166
    9SAPS  H10X 1171   3.736   1.939   7.904 -0.3074  0.3073 -0.6511
    9SAPS  H10Y 1172   3.662   2.103   7.896  0.0002  0.2889  0.9960
    9SAPS  C311 1173   3.819   2.089   8.039 -0.9197  0.1632  0.0085
    9SAPS  H11X 1174   3.827   2.199   8.026 -1.0100  0.2833  0.9852
    9SAPS  H11Y 1175   3.922   2.047   8.042 -0.4078  1.4486  0.6791
    9SAPS  C312 1176   3.739   2.059   8.162  0.0183 -0.0729 -0.1990
    9SAPS  H12X 1177   3.809   2.077   8.246  0.1009 -1.2050 -0.0191
    9SAPS  H12Y 1178   3.728   1.948   8.160 -4.5210  0.1894  2.4579
    9SAPS  C313 1179   3.614   2.133   8.187 -0.5837 -0.0388  0.3170
    9SAPS  H13X 1180   3.553   2.109   8.098  2.0490 -2.1668 -0.9705
    9SAPS  H13Y 1181   3.629   2.243   8.182  1.6463 -0.4273 -2.4920
    9SAPS  C314 1182   3.553   2.081   8.320 -0.3942  0.1040 -0.5686
    9SAPS  H14X 1183   3.623   2.109   8.402 -2.2724  0.2524  1.0202
    9SAPS  H14Y 1184   3.537   1.972   8.315 -2.8198  0.3839  0.4534
    9SAPS  C315 1185   3.416   2.138   8.347  0.2239 -0.3440  0.9235
    9SAPS  H15X 1186   3.360   2.085   8.427 -0.2156 -2.8490 -0.9745
    9SAPS  H15Y 1187   3.358   2.134   8.252  0.2889  1.5308  0.7826
    9SAPS  C316 1188   3.438   2.288   8.391 -0.4523  0.1983  0.0658
    9SAPS  H16X 1189   3.454   2.354   8.304  2.0073 -1.1631 -0.5501
    9SAPS  H16Y 1190   3.530   2.294   8.453 -0.1140 -4.3506  0.1671
    9SAPS  C317 1191   3.327   2.338   8.487 -0.0381  0.4645 -0.3227
    9SAPS  H17X 1192   3.227   2.307   8.450  0.3749 -1.2131 -0.0718
    9SAPS  H17Y 1193   3.334   2.449   8.491  0.8783  0.3686  1.1769
    9SAPS  C318 1194   3.340   2.294   8.636  0.2184 -0.1147 -0.0026
    9SAPS  H18X 1195   3.433   2.334   8.682  1.7499 -2.3178 -1.0634
    9SAPS  H18Y 1196   3.359   2.184   8.637 -0.6812 -0.2830 -0.8798
    9SAPS  H18Z 1197   3.250   2.327   8.693  0.6345  0.6965  0.1960
   10SAPS     N 1198   3.875   0.583   6.234  0.3052 -0.0255  0.3163
   10SAPS   HN1 1199   3.802   0.647   6.271 -0.6926 -1.0568  0.1800
   10SAPS   HN2 1200   3.845   0.556   6.139 -1.5221 -3.1214  1.6805
   10SAPS   HN3 1201   3.871   0.493   6.287 -1.2683  0.6787  1.4535
   10SAPS   C12 1202   4.013   0.648   6.242  0.0655  0.2583 -0.5224
   10SAPS  H12A 1203   4.081   0.589   6.183  0.7128 -0.4517  0.9043
   10SAPS   C13 1204   4.013   0.792   6.181 -0.1904  0.7043  0.1351
   10SAPS  O13A 1205   3.909   0.841   6.120 -0.0545  0.0569 -0.1769
   10SAPS  O13B 1206   4.125   0.849   6.175 -0.1443  0.1609 -0.1693
   10SAPS   C11 1207   4.056   0.653   6.385  0.2960 -0.4945 -0.5260
   10SAPS  H11A 1208   3.974   0.699   6.445  2.0934  1.7745  0.2676
   10SAPS  H11B 1209   4.148   0.712   6.403 -1.4230  1.1553  3.7107
   10SAPS     P 1210   4.194   0.445   6.472 -0.1979 -0.0952  0.2755
   10SAPS   O13 1211   4.169   0.297   6.479  0.4249 -0.0070 -0.0587
   10SAPS   O14 1212   4.297   0.484   6.380  0.3510 -0.3511  0.9213
   10SAPS   O12 1213   4.064   0.525   6.448 -0.1455 -0.0722 -0.1615
   10SAPS   O11 1214   4.244   0.489   6.619 -0.8398  0.2235 -0.1599
   10SAPS    C1 1215   4.132   0.550   6.697 -0.2252 -0.0011 -0.1050
   10SAPS    HA 1216   4.107   0.650   6.657 -2.7622 -0.6869 -0.3691
   10SAPS    HB 1217   4.040   0.488   6.702  0.4483 -1.2168 -2.2781
   10SAPS    C2 1218   4.173   0.572   6.849 -0.0556  0.7380  0.3599
   10SAPS    HS 1219   4.277   0.611   6.851  0.0093  0.5256  1.6034
   10SAPS   O21 1220   4.156   0.454   6.929  0.3010 -0.3186  0.2386
   10SAPS   C21 1221   4.262   0.373   6.943 -0.0277  0.7721  0.1888
   10SAPS   O22 1222   4.380   0.395   6.908 -0.4911  0.0387 -0.3965
   10SAPS   C22 1223   4.212   0.248   7.016 -1.2108  0.2001  0.4464
   10SAPS   H2R 1224   4.154   0.280   7.105  0.9501  0.8865  1.6400
   10SAPS   H2S 1225   4.148   0.192   6.944  0.2622 -0.4128 -0.4151
   10SAPS    C3 1226   4.079   0.681   6.909  1.0858 -0.1340  0.0105
   10SAPS    HX 1227   3.977   0.655   6.872  0.5615 -0.0398  1.3495
   10SAPS    HY 1228   4.084   0.780   6.859 -0.5722 -0.0454 -0.0316
   10SAPS   O31 1229   4.090   0.695   7.058 -0.3017  0.1419  0.1717
   10SAPS   C31 1230   4.173   0.772   7.108  0.1393  0.3195  0.5380
   10SAPS   O32 1231   4.260   0.838   7.046  0.2574 -0.4661 -0.5653
   10SAPS   C32 1232   4.168   0.760   7.256  0.9494  0.4999  0.3728
   10SAPS   H2X 1233   4.174   0.654   7.288  1.0379  0.3498 -0.1462
   10SAPS   H2Y 1234   4.074   0.804   7.296  0.1779 -2.2259  1.6690
   10SAPS   C23 1235   4.325   0.156   7.060  0.5502 -0.7623  0.9729
   10SAPS   H3R 1236   4.381   0.195   7.147 -0.3990  3.6012 -0.2597
   10SAPS   H3S 1237   4.390   0.145   6.970 -1.3163 -2.0799 -0.2570
   10SAPS   C24 1238   4.278   0.011   7.077 -0.2023 -0.3334  0.3184
   10SAPS   H4R 1239   4.235  -0.023   6.981  1.1658  0.6123 -0.6526
   10SAPS   H4S 1240   4.196   0.011   7.152  0.4494 -2.6761  1.0610
   10SAPS   C25 1241   4.382  -0.091   7.102 -0.2196 -0.1968 -0.1807
   10SAPS   H5R 1242   4.443  -0.124   7.016 -0.5962 -0.6409 -0.2775
   10SAPS   C26 1243   4.423  -0.150   7.216 -0.8421 -0.1275 -0.4746
   10SAPS   H6R 1244   4.502  -0.225   7.204 -0.3796  0.0457  1.3309
   10SAPS   C27 1245   4.371  -0.121   7.357  0.6929 -0.4936  0.1354
   10SAPS   H7R 1246   4.301  -0.035   7.355  0.1594 -0.9621 -4.0155
   10SAPS   H7S 1247   4.451  -0.084   7.425 -1.5386  0.7570  2.1705
   10SAPS   C28 1248   4.299  -0.247   7.394  0.0503 -0.3424  0.3835
   10SAPS   H8R 1249   4.268  -0.302   7.304  0.0953 -0.9714  0.7471
   10SAPS   C29 1250   4.306  -0.313   7.509  0.0031  0.4638  0.0049
   10SAPS   H9R 1251   4.249  -0.407   7.516  1.5096 -0.4428  0.2964
   10SAPS  C210 1252   4.394  -0.266   7.619 -0.8687 -0.2001 -0.0617
   10SAPS  H10R 1253   4.345  -0.183   7.675 -0.1271  0.3342 -0.1985
   10SAPS  H10S 1254   4.490  -0.224   7.583 -1.4578  0.7453 -0.5674
   10SAPS  C211 1255   4.410  -0.381   7.717 -0.2487 -0.0968  0.5419
   10SAPS  H11R 1256   4.499  -0.440   7.690  1.0615  0.1362  4.0891
   10SAPS  C212 1257   4.342  -0.416   7.827 -0.0397 -0.2546  0.6610
   10SAPS  H12R 1258   4.386  -0.499   7.884  1.8364 -0.2710 -0.7764
   10SAPS  C213 1259   4.218  -0.351   7.890 -0.1254  0.3716  0.0341
   10SAPS  H13R 1260   4.142  -0.428   7.914 -1.9987  1.9645 -0.6173
   10SAPS  H13S 1261   4.173  -0.285   7.813  0.5577 -1.1109 -1.6787
   10SAPS  C214 1262   4.265  -0.267   8.008  0.3701 -0.9524 -0.5385
   10SAPS  H14R 1263   4.317  -0.177   7.972 -2.1668  0.5476 -0.5649
   10SAPS  C215 1264   4.267  -0.299   8.140  0.2557  0.2485 -0.9453
   10SAPS  H15R 1265   4.320  -0.236   8.213 -0.4987  1.0508 -1.0920
   10SAPS  C216 1266   4.215  -0.429   8.197 -0.0688 -0.1919  0.2366
   10SAPS  H16R 1267   4.281  -0.518   8.189 -1.3074 -1.3329  2.2516
   10SAPS  H16S 1268   4.116  -0.457   8.154 -0.8292  1.0349  1.1621
   10SAPS  C217 1269   4.179  -0.423   8.347 -0.5507 -0.1846 -0.1381
   10SAPS  H17R 1270   4.260  -0.382   8.412  0.4336 -1.4757 -0.5349
   10SAPS  H17S 1271   4.157  -0.526   8.381  0.1310 -0.0752  0.6692
   10SAPS  C218 1272   4.053  -0.342   8.366  0.3120 -0.8606  0.0863
   10SAPS  H18R 1273   3.968  -0.413   8.377  0.8844 -1.3055  1.7365
   10SAPS  H18S 1274   4.036  -0.277   8.278  3.3970  0.8716  0.7147
   10SAPS  C219 1275   4.052  -0.252   8.492  0.1086  0.2714 -0.0702
   10SAPS  H19R 1276   4.098  -0.313   8.573 -1.2063  1.3683  1.5205
   10SAPS  H19S 1277   3.947  -0.220   8.505 -0.5516 -0.9169 -2.1791
   10SAPS  C220 1278   4.134  -0.127   8.477  0.1259 -0.2816 -0.0291
   10SAPS  H20R 1279   4.139  -0.073   8.574  1.0191  2.4393 -1.5444
   10SAPS  H20S 1280   4.078  -0.063   8.405 -1.1623 -0.6199  0.6537
   10SAPS  H20T 1281   4.231  -0.157   8.433  0.0563  0.4665 -0.7194
   10SAPS   C33 1282   4.286   0.832   7.326 -0.2743  0.0209  0.5134
   10SAPS   H3X 1283   4.278   0.935   7.284 -2.6116 -0.1055  0.5947
   10SAPS   H3Y 1284   4.384   0.794   7.290 -0.0012 -0.8136  2.1073
   10SAPS   C34 1285   4.272   0.847   7.479 -0.6266  0.5916  0.1847
   10SAPS   H4X 1286   4.164   0.851   7.508 -0.0343  0.0622  2.5642
   10SAPS   H4Y 1287   4.320   0.936   7.524  0.0390  0.8477 -1.0307
   10SAPS   C35 1288   4.328   0.729   7.560 -0.5101  0.5821 -0.5115
   10SAPS   H5X 1289   4.438   0.718   7.547 -0.5792  0.2567 -0.8007
   10SAPS   H5Y 1290   4.282   0.641   7.511  0.5930  0.4227 -1.2692
   10SAPS   C36 1291   4.280   0.737   7.709 -0.1455 -0.5280 -0.0387
   10SAPS   H6X 1292   4.306   0.642   7.761  0.8063  0.5751  1.5258
   10SAPS   H6Y 1293   4.171   0.752   7.708 -0.4059 -2.2349 -1.4294
   10SAPS   C37 1294   4.344   0.852   7.798  0.3509 -0.1746  0.5085
   10SAPS   H7X 1295   4.276   0.939   7.807  1.5117  0.5223  2.9739
   10SAPS   H7Y 1296   4.434   0.889   7.744 -0.2392 -1.4272 -1.3566
   10SAPS   C38 1297   4.378   0.810   7.942  0.9884  0.6115 -0.0654
   10SAPS   H8X 1298   4.436   0.717   7.963 -0.5671  0.2242  2.8119
   10SAPS   H8Y 1299   4.281   0.798   7.995 -0.1028  0.7760 -1.9751
   10SAPS   C39 1300   4.442   0.913   8.036 -0.4979 -0.3500 -0.1521
   10SAPS   H9X 1301   4.383   1.006   8.025 -0.3114 -0.1740  0.3525
   10SAPS   H9Y 1302   4.548   0.925   8.008 -0.0785 -0.1966  1.4566
   10SAPS  C310 1303   4.434   0.875   8.182  0.0958  0.1335  0.6157
   10SAPS  H10X 1304   4.499   0.787   8.201 -0.7357 -0.4915  0.5982
   10SAPS  H10Y 1305   4.334   0.847   8.222  0.3499  0.4868  1.5020
   10SAPS  C311 1306   4.487   0.990   8.275 -0.4877 -0.5497  0.4887
   10SAPS  H11X 1307   4.565   1.041   8.215 -0.3720  0.5124  1.5122
   10SAPS  H11Y 1308   4.530   0.949   8.369 -0.8562 -0.7878  0.5556
   10SAPS  C312 1309   4.368   1.087   8.306 -0.3558  0.0710 -0.8558
   10SAPS  H12X 1310   4.285   1.029   8.352 -0.2480 -2.0322 -3.2227
   10SAPS  H12Y 1311   4.329   1.119   8.208 -1.9488  1.6342  0.2543
   10SAPS  C313 1312   4.426   1.207   8.384  0.3057  0.4561 -0.3215
   10SAPS  H13X 1313   4.533   1.222   8.356  1.0147  0.9395  2.4999
   10SAPS  H13Y 1314   4.428   1.185   8.493 -0.8752  1.8282 -0.0175
   10SAPS  C314 1315   4.351   1.338   8.357 -0.0028  0.5960  0.3283
   10SAPS  H14X 1316   4.243   1.332   8.382  0.5695  1.1693  3.1319
   10SAPS  H14Y 1317   4.351   1.359   8.248 -0.2952  0.5454  0.3222
   10SAPS  C315 1318   4.397   1.453   8.441  0.3130  0.1271  0.1268
   10SAPS  H15X 1319   4.494   1.485   8.397  0.1426  2.4936  1.3954
   10SAPS  H15Y 1320   4.429   1.424   8.543  0.1809 -1.3714 -0.2515
   10SAPS  C316 1321   4.308   1.578   8.445  0.1190 -0.4263  0.8326
   10SAPS  H16X 1322   4.212   1.541   8.485  0.1176 -0.5249  0.7387
   10SAPS  H16Y 1323   4.295   1.625   8.345 -2.6920  2.0907  2.2975
   10SAPS  C317 1324   4.347   1.695   8.534  0.3968  0.7296 -0.7877
   10SAPS  H17X 1325   4.371   1.645   8.630 -1.1351  1.1601 -0.1690
   10SAPS  H17Y 1326   4.253   1.754   8.541  0.4551  0.6926  0.2913
   10SAPS  C318 1327   4.456   1.782   8.489 -0.0518 -0.0964 -0.3431
   10SAPS  H18X 1328   4.442   1.799   8.380 -0.5365  0.3370 -0.2132
   10SAPS  H18Y 1329   4.554   1.734   8.511 -1.0016 -1.9938 -0.1818
   10SAPS  H18Z 1330   4.458   1.882   8.537  1.5403 -1.1059  1.8062
   11SAPS     N 1331   5.714   3.553   6.047 -0.0843 -0.4015 -0.3171
   11SAPS   HN1 1332   5.804   3.551   5.996  0.8406 -0.9942  1.3216
   11SAPS   HN2 1333   5.719   3.484   6.124 -5.2462  1.0126  1.5031
   11SAPS   HN3 1334   5.641   3.518   5.980  0.3810  0.6027 -1.3627
   11SAPS   C12 1335   5.688   3.696   6.086  0.1749 -0.6966  0.7132
   11SAPS  H12A 1336   5.691   3.759   5.999  0.1129 -1.0197  0.4760
   11SAPS   C13 1337   5.566   3.726   6.178 -0.4398  0.0469 -0.8102
   11SAPS  O13A 1338   5.526   3.637   6.259  0.7178 -0.0886 -0.2239
   11SAPS  O13B 1339   5.526   3.848   6.190 -0.2654 -0.0844  0.2422
   11SAPS   C11 1340   5.812   3.745   6.164 -0.4384 -0.0415 -0.0199
   11SAPS  H11A 1341   5.819   3.688   6.259  0.8130 -1.3670 -0.8871
   11SAPS  H11B 1342   5.799   3.853   6.188  1.3551 -0.2854  2.1697
   11SAPS     P 1343   6.019   3.836   6.032  0.1703 -0.1089 -0.3482
   11SAPS   O13 1344   6.139   3.783   5.956  0.1326  0.0120 -0.5163
   11SAPS   O14 1345   5.926   3.913   5.945 -0.2918  0.0907  0.4438
   11SAPS   O12 1346   5.931   3.712   6.088  0.1416 -0.1187  0.1372
   11SAPS   O11 1347   6.055   3.924   6.157  0.5872 -0.1304  0.8487
   11SAPS    C1 1348   6.166   3.900   6.232  0.3055  0.4832  0.1631
   11SAPS    HA 1349   6.247   3.861   6.166 -0.7226  1.9304 -1.9852
   11SAPS    HB 1350   6.203   3.994   6.279  0.9946 -0.9523  2.5992
   11SAPS    C2 1351   6.143   3.783   6.332 -0.4633 -0.2379  1.0364
   11SAPS    HS 1352   6.108   3.693   6.277  2.0399 -2.0878  2.3800
   11SAPS   O21 1353   6.039   3.821   6.423  0.3915  0.1873 -0.8406
   11SAPS   C21 1354   5.992   3.730   6.502  0.0850  0.0741  0.0911
   11SAPS   O22 1355   6.040   3.618   6.512 -0.6960  0.2893  0.3761
   11SAPS   C22 1356   5.878   3.787   6.596  0.0351  0.6098  0.4936
   11SAPS   H2R 1357   5.786   3.800   6.534  0.6501 -0.2088 -0.6202
   11SAPS   H2S 1358   5.866   3.705   6.670  0.6746 -0.2931 -0.3832
   11SAPS    C3 1359   6.272   3.739   6.404 -0.5442 -0.3566 -0.2548
   11SAPS    HX 1360   6.334   3.693   6.324  1.3343 -1.6962  1.9056
   11SAPS    HY 1361   6.256   3.656   6.476  0.0849 -0.8668 -0.6906
   11SAPS   O31 1362   6.333   3.858   6.467  0.2721  0.1468 -0.3646
   11SAPS   C31 1363   6.340   3.856   6.594  0.5034  0.7500 -0.0345
   11SAPS   O32 1364   6.295   3.771   6.668 -0.1799 -0.0815 -0.3865
   11SAPS   C32 1365   6.389   3.993   6.628  0.1994  0.0102 -0.3938
   11SAPS   H2X 1366   6.304   4.062   6.607 -0.0113 -0.4120 -0.9233
   11SAPS   H2Y 1367   6.473   4.015   6.559  1.0744 -0.5144  0.4876
   11SAPS   C23 1368   5.906   3.919   6.669 -0.6016  0.6042  0.4787
   11SAPS   H3R 1369   5.810   3.970   6.693 -0.5071 -0.2055  2.6722
   11SAPS   H3S 1370   5.961   3.983   6.596  0.0450  1.9333  2.1206
   11SAPS   C24 1371   5.984   3.903   6.802  0.3920  0.4703  0.2584
   11SAPS   H4R 1372   6.072   3.839   6.779 -0.4400 -0.9417  0.8994
   11SAPS   H4S 1373   5.913   3.852   6.872  1.4605 -0.2179  0.8479
   11SAPS   C25 1374   6.032   4.024   6.871 -0.0346  0.6538  0.6019
   11SAPS   H5R 1375   6.064   4.106   6.805 -2.0614 -0.4081 -1.7718
   11SAPS   C26 1376   6.020   4.043   7.008 -1.1027  0.3423 -0.1438
   11SAPS   H6R 1377   6.069   4.130   7.055 -2.1424  0.3115  1.0260
   11SAPS   C27 1378   5.968   3.947   7.111  0.2170 -0.6124 -0.5834
   11SAPS   H7R 1379   5.877   3.889   7.084 -0.3216  0.4481 -1.0772
   11SAPS   H7S 1380   5.920   3.993   7.200 -1.9362 -0.2849 -1.8816
   11SAPS   C28 1381   6.073   3.841   7.151  0.0150  0.0885  0.0463
   11SAPS   H8R 1382   6.128   3.796   7.067 -1.0052  0.6013 -0.9099
   11SAPS   C29 1383   6.084   3.789   7.278 -0.3798  0.2798  0.1941
   11SAPS   H9R 1384   6.161   3.715   7.302 -1.2074 -0.4266  0.7340
   11SAPS  C210 1385   6.013   3.816   7.405 -0.0651  0.3605 -0.1963
   11SAPS  H10R 1386   6.008   3.721   7.463 -0.6874 -1.2426 -2.7769
   11SAPS  H10S 1387   5.904   3.828   7.385  0.4343  1.0722 -2.6067
   11SAPS  C211 1388   6.053   3.937   7.484 -0.3230  0.0109  0.3387
   11SAPS  H11R 1389   6.057   4.033   7.430 -0.1011 -0.7057 -0.9415
   11SAPS  C212 1390   6.091   3.937   7.616 -0.1479  0.4947 -0.8214
   11SAPS  H12R 1391   6.127   4.035   7.649  0.8870 -0.6463  1.5597
   11SAPS  C213 1392   6.092   3.821   7.716  0.6079 -0.2717 -0.1369
   11SAPS  H13R 1393   6.196   3.781   7.719  1.0546  0.9860  1.7764
   11SAPS  H13S 1394   6.020   3.741   7.686  2.2913 -2.4738  1.4653
   11SAPS  C214 1395   6.068   3.876   7.862 -0.1912  0.2746  0.8837
   11SAPS  H14R 1396   6.000   3.962   7.861  0.6678  0.9546 -0.5998
   11SAPS  C215 1397   6.118   3.829   7.977  0.1982 -0.1619 -0.0579
   11SAPS  H15R 1398   6.091   3.881   8.070 -0.6279  1.3777 -1.1268
   11SAPS  C216 1399   6.211   3.711   7.986 -0.1533  0.1002 -0.2691
   11SAPS  H16R 1400   6.225   3.653   7.892  2.0607 -0.9836  0.6782
   11SAPS  H16S 1401   6.176   3.648   8.070  0.8009  0.6313  0.5354
   11SAPS  C217 1402   6.363   3.729   8.018 -0.5556 -0.0937  0.6083
   11SAPS  H17R 1403   6.406   3.816   7.964 -2.1655  0.9160  0.9244
   11SAPS  H17S 1404   6.421   3.640   7.984 -0.3332  0.5573 -0.7311
   11SAPS  C218 1405   6.401   3.753   8.165  0.1216  0.2932 -0.6627
   11SAPS  H18R 1406   6.375   3.655   8.209  1.1634 -0.0553 -0.7976
   11SAPS  H18S 1407   6.334   3.832   8.205 -0.4649 -1.6837  2.3637
   11SAPS  C219 1408   6.550   3.776   8.170  0.0193 -0.1759  1.0009
   11SAPS  H19R 1409   6.570   3.880   8.136 -4.3220 -0.5033 -3.0334
   11SAPS  H19S 1410   6.593   3.705   8.097 -0.4554  0.7870 -0.2392
   11SAPS  C220 1411   6.620   3.756   8.307 -0.6739  0.1923  0.2405
   11SAPS  H20R 1412   6.594   3.829   8.386  0.3413  1.2144 -0.3636
   11SAPS  H20S 1413   6.730   3.767   8.298 -0.7073 -0.3553 -1.0811
   11SAPS  H20T 1414   6.603   3.655   8.352  2.9734 -0.7273 -0.3038
   11SAPS   C33 1415   6.422   4.022   6.773  0.1227 -0.7389 -0.0618
   11SAPS   H3X 1416   6.489   3.946   6.818 -0.7703 -1.4779  0.0417
   11SAPS   H3Y 1417   6.325   4.034   6.827 -0.2656  0.8487 -1.0959
   11SAPS   C34 1418   6.512   4.145   6.782  0.4224 -0.0105  0.2717
   11SAPS   H4X 1419   6.468   4.238   6.741 -0.1790 -0.8535 -1.0551
   11SAPS   H4Y 1420   6.618   4.129   6.751  0.6060 -2.1671  1.8996
   11SAPS   C35 1421   6.540   4.180   6.935  0.8121 -0.5125 -0.5468
   11SAPS   H5X 1422   6.627   4.249   6.931  2.3362 -2.1756  2.4209
   11SAPS   H5Y 1423   6.559   4.087   6.993 -0.0987 -0.1481  0.3503
   11SAPS   C36 1424   6.414   4.248   6.998 -0.0935  0.2696 -0.2125
   11SAPS   H6X 1425   6.329   4.177   7.005 -0.6405  0.9425  0.1107
   11SAPS   H6Y 1426   6.386   4.336   6.937 -2.0714  0.4777  0.9615
   11SAPS   C37 1427   6.430   4.305   7.139 -0.2907  0.4395  0.1248
   11SAPS   H7X 1428   6.466   4.410   7.138  2.3058 -0.4015  0.8573
   11SAPS   H7Y 1429   6.515   4.253   7.188  0.6184  1.1731 -0.6288
   11SAPS   C38 1430   6.311   4.281   7.226 -0.1453  0.5398  0.6816
   11SAPS   H8X 1431   6.284   4.173   7.228  0.9494  0.1733 -2.4596
   11SAPS   H8Y 1432   6.217   4.322   7.183 -0.3977  0.9087  1.5671
   11SAPS   C39 1433   6.338   4.321   7.372 -0.3996  0.6485 -0.1773
   11SAPS   H9X 1434   6.334   4.432   7.369  0.4268  0.6898  0.2286
   11SAPS   H9Y 1435   6.442   4.297   7.401 -0.0604 -1.8667 -3.1533
   11SAPS  C310 1436   6.232   4.257   7.465 -0.7463 -0.0888 -0.6264
   11SAPS  H10X 1437   6.246   4.150   7.494 -2.4163 -0.8060 -2.3326
   11SAPS  H10Y 1438   6.131   4.276   7.422 -0.8036  0.5061 -0.2314
   11SAPS  C311 1439   6.256   4.338   7.597  0.1596 -0.0239 -0.2925
   11SAPS  H11X 1440   6.261   4.448   7.582  0.9746  0.3108  2.0742
   11SAPS  H11Y 1441   6.361   4.322   7.629 -0.3384  0.0571  1.4566
   11SAPS  C312 1442   6.153   4.298   7.705  0.3718 -0.1226  0.5206
   11SAPS  H12X 1443   6.157   4.189   7.729 -0.8699  0.0795  1.7278
   11SAPS  H12Y 1444   6.054   4.311   7.656  2.0424  2.1493 -2.3870
   11SAPS  C313 1445   6.174   4.389   7.827  0.6457 -0.1768 -0.2170
   11SAPS  H13X 1446   6.154   4.495   7.801  0.6021  0.0768  0.8188
   11SAPS  H13Y 1447   6.281   4.388   7.857  0.7774  2.1553 -0.5017
   11SAPS  C314 1448   6.097   4.357   7.956 -0.4497 -0.3459 -0.0363
   11SAPS  H14X 1449   6.159   4.295   8.024  1.4291  0.3124 -1.0924
   11SAPS  H14Y 1450   6.004   4.303   7.929 -0.2415 -0.5869 -0.2873
   11SAPS  C315 1451   6.059   4.473   8.046  0.4108  0.1406  0.1915
   11SAPS  H15X 1452   6.153   4.525   8.074  0.7198 -0.4754  0.2909
   11SAPS  H15Y 1453   6.023   4.428   8.141 -0.8825  0.3758 -0.1831
   11SAPS  C316 1454   5.964   4.579   7.990 -0.2894  0.2011  0.2514
   11SAPS  H16X 1455   6.017   4.624   7.903  0.7995 -2.9223 -0.8160
   11SAPS  H16Y 1456   5.948   4.648   8.075 -0.3237 -1.5734  1.7248
   11SAPS  C317 1457   5.822   4.534   7.943  0.3443  0.1513 -0.3195
   11SAPS  H17X 1458   5.821   4.440   7.884  2.0550 -1.1072  1.6114
   11SAPS  H17Y 1459   5.767   4.609   7.881 -0.6236 -0.5533 -0.3232
   11SAPS  C318 1460   5.736   4.511   8.069 -0.2392  0.6912  0.1180
   11SAPS  H18X 1461   5.732   4.609   8.121  2.3884 -0.3299  2.3995
   11SAPS  H18Y 1462   5.800   4.443   8.129  0.6583 -0.8196 -2.4434
   11SAPS  H18Z 1463   5.633   4.483   8.039  0.8124 -0.5729 -2.5091
   12SAPS     N 1464   6.042   5.005   6.014  1.0708  0.3198 -0.2554
   12SAPS   HN1 1465   6.019   5.051   5.923 -0.7597 -1.2192 -0.5955
   12SAPS   HN2 1466   6.145   4.990   6.015  1.0248 -0.1212 -1.4100
   12SAPS   HN3 1467   5.997   4.912   6.002  0.3294  0.6523 -0.0804
   12SAPS   C12 1468   5.995   5.062   6.139 -0.6556 -0.7727  0.5230
   12SAPS  H12A 1469   6.015   5.000   6.225  0.8958 -0.3837  0.4524
   12SAPS   C13 1470   6.079   5.181   6.188  0.6320 -0.6340  0.1605
   12SAPS  O13A 1471   6.183   5.217   6.123 -0.8330 -0.6726 -0.4138
   12SAPS  O13B 1472   6.025   5.260   6.263  0.3974 -0.1201 -1.0177
   12SAPS   C11 1473   5.839   5.094   6.115  0.4664 -0.4996 -0.8665
   12SAPS  H11A 1474   5.837   5.163   6.028  0.2042 -0.4018 -0.7861
   12SAPS  H11B 1475   5.813   5.147   6.210 -1.1303 -1.0972 -0.9485
   12SAPS     P 1476   5.621   4.938   6.111 -0.3426 -0.3681 -0.0932
   12SAPS   O13 1477   5.563   4.999   5.991  0.7008 -0.4767 -0.7625
   12SAPS   O14 1478   5.597   4.795   6.143  0.5378 -0.4617 -0.5163
   12SAPS   O12 1479   5.780   4.964   6.104  0.5908 -0.1520  0.2799
   12SAPS   O11 1480   5.578   5.019   6.242 -0.3577  0.2132 -0.8917
   12SAPS    C1 1481   5.587   4.973   6.379 -0.8312 -0.3460  0.3209
   12SAPS    HA 1482   5.496   4.920   6.412 -2.2253  3.1066  2.3060
   12SAPS    HB 1483   5.680   4.914   6.392 -0.1033  0.5338 -0.7347
   12SAPS    C2 1484   5.607   5.100   6.474 -0.2484 -0.1793 -0.7051
   12SAPS    HS 1485   5.565   5.195   6.435 -1.5052 -0.6953 -0.6282
   12SAPS   O21 1486   5.748   5.121   6.501  0.4969 -0.5841  0.2024
   12SAPS   C21 1487   5.779   5.230   6.570  0.1907  0.9897  0.3545
   12SAPS   O22 1488   5.697   5.313   6.613  0.0086 -0.2159  0.0525
   12SAPS   C22 1489   5.925   5.234   6.614 -0.1300 -0.0867 -0.2304
   12SAPS   H2R 1490   5.941   5.138   6.669 -0.8483 -0.6863 -1.0503
   12SAPS   H2S 1491   5.987   5.225   6.522  0.9924  1.5410  0.3426
   12SAPS    C3 1492   5.534   5.062   6.606  0.0937  0.6759 -1.1676
   12SAPS    HX 1493   5.428   5.047   6.577  0.2663 -0.2837 -1.3023
   12SAPS    HY 1494   5.543   5.149   6.675  3.6450 -1.1893  0.8342
   12SAPS   O31 1495   5.584   4.938   6.664  0.8774 -0.6662 -0.6567
   12SAPS   C31 1496   5.506   4.823   6.658 -0.0332 -0.2380  0.4603
   12SAPS   O32 1497   5.393   4.817   6.612  0.1649 -0.7719  0.5002
   12SAPS   C32 1498   5.590   4.702   6.713  1.0643 -0.0521  0.5345
   12SAPS   H2X 1499   5.699   4.716   6.693  0.7170  2.6212  0.3868
   12SAPS   H2Y 1500   5.564   4.613   6.652 -1.9029  0.0814  1.5230
   12SAPS   C23 1501   5.947   5.361   6.702 -0.0824  0.0978 -0.2464
   12SAPS   H3R 1502   5.890   5.363   6.797  0.1474  2.2275 -0.1302
   12SAPS   H3S 1503   5.908   5.451   6.649  3.6123  1.9687  0.0187
   12SAPS   C24 1504   6.094   5.386   6.728  0.1356 -0.0675  0.0111
   12SAPS   H4R 1505   6.129   5.487   6.759  2.5429 -1.0633  0.7202
   12SAPS   H4S 1506   6.145   5.382   6.629 -0.5220 -1.3564 -0.2775
   12SAPS   C25 1507   6.139   5.284   6.828 -0.0846 -0.1578 -0.1277
   12SAPS   H5R 1508   6.073   5.267   6.914 -0.2956 -2.0420 -0.6420
   12SAPS   C26 1509   6.249   5.209   6.829  0.5922 -0.5373 -0.5687
   12SAPS   H6R 1510   6.267   5.122   6.894 -1.1494 -0.9631 -0.6318
   12SAPS   C27 1511   6.356   5.217   6.729  0.7190 -0.6487  0.0019
   12SAPS   H7R 1512   6.369   5.318   6.685 -1.1442 -1.3003 -2.1173
   12SAPS   H7S 1513   6.312   5.155   6.649  0.4220 -0.4605  0.0187
   12SAPS   C28 1514   6.489   5.177   6.780  0.3214  0.1757 -0.0296
   12SAPS   H8R 1515   6.548   5.266   6.807  0.4785  0.1016 -0.1265
   12SAPS   C29 1516   6.543   5.049   6.768 -1.0063  0.0813 -0.0172
   12SAPS   H9R 1517   6.647   5.041   6.801 -1.4496  1.0388  1.6807
   12SAPS  C210 1518   6.476   4.927   6.714 -0.2609 -0.0466 -0.0933
   12SAPS  H10R 1519   6.475   4.927   6.603 -0.3498  0.1520 -0.0929
   12SAPS  H10S 1520   6.370   4.949   6.741 -0.1263  0.5293 -0.0099
   12SAPS  C211 1521   6.517   4.797   6.771  0.9217 -0.2113  0.7001
   12SAPS  H11R 1522   6.580   4.734   6.707 -1.3844 -0.7663 -1.0963
   12SAPS  C212 1523   6.461   4.741   6.876  0.3269 -0.6506  0.5944
   12SAPS  H12R 1524   6.487   4.637   6.903  1.8371  0.1857  2.5276
   12SAPS  C213 1525   6.350   4.789   6.966 -0.1409  0.6708  0.1295
   12SAPS  H13R 1526   6.340   4.900   6.962 -1.4523  0.5804  0.5709
   12SAPS  H13S 1527   6.388   4.763   7.067  1.5212  1.7592 -0.1908
   12SAPS  C214 1528   6.219   4.726   6.939 -0.7071 -0.6074 -0.3049
   12SAPS  H14R 1529   6.173   4.733   6.839  2.2026 -1.0592 -1.7208
   12SAPS  C215 1530   6.138   4.668   7.030 -0.3618 -0.9202  0.5648
   12SAPS  H15R 1531   6.042   4.626   6.997 -1.1615  0.8179  0.6129
   12SAPS  C216 1532   6.168   4.655   7.176 -0.0144 -0.3651  0.1735
   12SAPS  H16R 1533   6.217   4.745   7.220 -2.0281 -0.1396  2.0187
   12SAPS  H16S 1534   6.241   4.573   7.188 -0.8336 -1.0714  0.3707
   12SAPS  C217 1535   6.048   4.636   7.258 -0.2835  0.2586 -0.2579
   12SAPS  H17R 1536   5.986   4.547   7.234 -0.6799  0.9983 -2.0356
   12SAPS  H17S 1537   5.986   4.722   7.225 -0.7621  1.6215  3.8887
   12SAPS  C218 1538   6.068   4.655   7.407 -0.1841  0.1284 -0.2340
   12SAPS  H18R 1539   6.120   4.748   7.437  0.3239 -0.7837  1.8029
   12SAPS  H18S 1540   6.133   4.571   7.443 -0.7373 -1.4632 -2.8324
   12SAPS  C219 1541   5.936   4.662   7.491  0.5115 -0.0331  0.1119
   12SAPS  H19R 1542   5.870   4.576   7.469  0.9654 -0.1070 -0.9694
   12SAPS  H19S 1543   5.871   4.740   7.446  0.6795  0.4477  0.6891
   12SAPS  C220 1544   5.953   4.675   7.637 -0.0383 -0.1685 -0.1361
   12SAPS  H20R 1545   5.993   4.581   7.683  1.4028  0.6369  0.3039
   12SAPS  H20S 1546   5.867   4.707   7.699  0.3013 -0.0559  0.2880
   12SAPS  H20T 1547   6.030   4.754   7.650 -0.3265  0.2898 -1.1764
   12SAPS   C33 1548   5.567   4.681   6.861 -0.7037  0.4762 -0.1466
   12SAPS   H3X 1549   5.580   4.571   6.871 -1.4846  0.1940 -1.9608
   12SAPS   H3Y 1550   5.460   4.690   6.888 -0.5181 -1.9946  1.5346
   12SAPS   C34 1551   5.667   4.734   6.968 -0.2367 -0.3661 -0.3539
   12SAPS   H4X 1552   5.768   4.692   6.948  0.7406  0.3497  2.7062
   12SAPS   H4Y 1553   5.638   4.709   7.072 -0.4258  4.3263  0.8364
   12SAPS   C35 1554   5.680   4.887   6.973  1.0146  0.2129  0.2656
   12SAPS   H5X 1555   5.581   4.932   6.990 -0.6678 -2.0348 -3.0330
   12SAPS   H5Y 1556   5.720   4.914   6.873 -0.6687 -1.9654 -1.0262
   12SAPS   C36 1557   5.780   4.948   7.072  0.1033 -0.5470 -0.5624
   12SAPS   H6X 1558   5.878   4.901   7.050 -0.4475 -1.1503 -1.7285
   12SAPS   H6Y 1559   5.763   4.903   7.173  1.8917 -0.8503 -0.3886
   12SAPS   C37 1560   5.800   5.100   7.075 -0.6490  0.0454 -0.0049
   12SAPS   H7X 1561   5.712   5.151   7.121 -0.5337  0.1528  0.0963
   12SAPS   H7Y 1562   5.812   5.135   6.970  2.2107 -1.9304 -0.3857
   12SAPS   C38 1563   5.931   5.147   7.141  0.6361 -0.6404 -0.1619
   12SAPS   H8X 1564   5.951   5.254   7.121  0.2837 -0.4671  0.3775
   12SAPS   H8Y 1565   6.025   5.101   7.105  0.6686  1.6888 -3.2122
   12SAPS   C39 1566   5.936   5.115   7.290  0.0805  0.5605  0.3632
   12SAPS   H9X 1567   5.938   5.004   7.298 -2.1957  0.5496  1.3396
   12SAPS   H9Y 1568   5.846   5.153   7.342 -0.5855 -0.6003  0.0770
   12SAPS  C310 1569   6.060   5.177   7.360 -0.1629  0.2701  0.7778
   12SAPS  H10X 1570   6.061   5.280   7.317  0.6977  0.6618  1.7137
   12SAPS  H10Y 1571   6.151   5.127   7.323 -1.1722 -1.5204  0.6850
   12SAPS  C311 1572   6.050   5.178   7.506  0.2097 -0.7203  0.0242
   12SAPS  H11X 1573   5.943   5.183   7.535 -0.4517 -1.4744 -2.2177
   12SAPS  H11Y 1574   6.108   5.256   7.560  2.8129 -2.4741 -0.1115
   12SAPS  C312 1575   6.117   5.058   7.573 -0.2157  0.4782  0.1164
   12SAPS  H12X 1576   6.222   5.061   7.537  0.1854  1.3054  1.3191
   12SAPS  H12Y 1577   6.077   4.960   7.540 -0.7145  0.5731  0.4345
   12SAPS  C313 1578   6.129   5.056   7.730  0.0331 -0.9073 -0.4552
   12SAPS  H13X 1579   6.025   5.038   7.767 -0.5591 -0.5575 -1.9365
   12SAPS  H13Y 1580   6.161   5.152   7.775  0.7014 -0.1096 -2.6107
   12SAPS  C314 1581   6.226   4.941   7.772 -0.5714  0.1366  0.6433
   12SAPS  H14X 1582   6.328   4.983   7.763 -1.0567  0.9050 -1.5518
   12SAPS  H14Y 1583   6.203   4.850   7.712 -1.8111  0.0330  1.2562
   12SAPS  C315 1584   6.213   4.894   7.918  0.3179  0.0236 -0.3391
   12SAPS  H15X 1585   6.107   4.863   7.928  0.1395  0.7338  0.0108
   12SAPS  H15Y 1586   6.218   4.974   7.996 -1.0047  0.5833 -0.8062
   12SAPS  C316 1587   6.297   4.771   7.945  0.2907  0.5012  0.3510
   12SAPS  H16X 1588   6.271   4.697   7.866  0.1676  0.3890  0.4923
   12SAPS  H16Y 1589   6.246   4.732   8.036 -1.7751  2.6148  0.1312
   12SAPS  C317 1590   6.446   4.789   7.952  0.1638 -0.8054 -0.9780
   12SAPS  H17X 1591   6.483   4.844   7.863 -3.9665  1.2760 -1.5649
   12SAPS  H17Y 1592   6.500   4.693   7.966  1.1132 -0.2117 -0.5710
   12SAPS  C318 1593   6.477   4.873   8.082  0.7034  0.1269  0.4795
   12SAPS  H18X 1594   6.392   4.859   8.151  0.2748  0.3256 -0.0017
   12SAPS  H18Y 1595   6.497   4.978   8.050 -1.1285  0.9997  2.0987
   12SAPS  H18Z 1596   6.578   4.845   8.120  0.9730  1.9028  1.1360
   13SAPS     N 1597   5.350   2.193   6.151 -0.4284  0.4894 -0.5997
   13SAPS   HN1 1598   5.284   2.113   6.141  0.9302 -0.7931  0.4690
   13SAPS   HN2 1599   5.395   2.198   6.244  0.6392  0.6425 -1.1150
   13SAPS   HN3 1600   5.295   2.280   6.136  0.2152  1.3642  1.9690
   13SAPS   C12 1601   5.461   2.197   6.044 -1.1146  1.1997  0.6834
   13SAPS  H12A 1602   5.545   2.135   6.071 -0.6600  1.5538  0.0904
   13SAPS   C13 1603   5.412   2.177   5.901 -0.1530 -0.3856 -0.3865
   13SAPS  O13A 1604   5.287   2.170   5.878  0.1847  0.1788 -0.1738
   13SAPS  O13B 1605   5.493   2.161   5.809 -0.4183  0.0479 -0.9146
   13SAPS   C11 1606   5.527   2.335   6.043  0.5191  0.1791  0.6277
   13SAPS  H11A 1607   5.443   2.396   6.002  0.3836 -0.0490  0.5651
   13SAPS  H11B 1608   5.619   2.341   5.982  2.1487 -1.9859  2.7807
   13SAPS     P 1609   5.668   2.451   6.231  0.2178  0.2525 -0.2691
   13SAPS   O13 1610   5.701   2.555   6.130 -0.0112 -0.0524 -0.4229
   13SAPS   O14 1611   5.644   2.491   6.371  0.6652  0.5021 -0.1040
   13SAPS   O12 1612   5.557   2.363   6.176  0.2566  0.2992 -0.8822
   13SAPS   O11 1613   5.802   2.359   6.225 -0.0948 -0.3160 -0.0218
   13SAPS    C1 1614   5.795   2.223   6.259 -0.2451  0.6877 -0.2463
   13SAPS    HA 1615   5.691   2.185   6.255  0.5918 -1.7827  0.6745
   13SAPS    HB 1616   5.846   2.163   6.180  0.3476  0.4005  0.3479
   13SAPS    C2 1617   5.877   2.198   6.394 -0.1807  0.2491 -0.2420
   13SAPS    HS 1618   5.857   2.094   6.427  1.4172 -0.0225 -0.0912
   13SAPS   O21 1619   5.845   2.292   6.503 -0.2029  0.2776  0.0045
   13SAPS   C21 1620   5.735   2.273   6.566  0.3660  0.9945  0.3358
   13SAPS   O22 1621   5.644   2.200   6.526  0.3546  0.6603 -0.1510
   13SAPS   C22 1622   5.728   2.365   6.684  0.3785 -0.1237 -0.2475
   13SAPS   H2R 1623   5.778   2.460   6.657  1.5954  0.2979  3.2808
   13SAPS   H2S 1624   5.620   2.393   6.691  1.1529  2.1792  3.3507
   13SAPS    C3 1625   6.024   2.210   6.369 -0.0730  0.5552 -0.5934
   13SAPS    HX 1626   6.065   2.313   6.355  0.6902  0.4680  0.9720
   13SAPS    HY 1627   6.047   2.149   6.279  0.8521  1.5456 -1.0430
   13SAPS   O31 1628   6.090   2.140   6.480 -0.6258 -0.0763  0.6071
   13SAPS   C31 1629   6.219   2.115   6.479  0.4670  0.2183 -0.7723
   13SAPS   O32 1630   6.297   2.150   6.393 -0.4494  0.2625  0.4259
   13SAPS   C32 1631   6.253   2.032   6.600  0.1228  0.0877  0.5824
   13SAPS   H2X 1632   6.194   1.938   6.605 -0.4446  0.3419 -1.2367
   13SAPS   H2Y 1633   6.243   2.095   6.691  1.4203  1.7995 -0.4404
   13SAPS   C23 1634   5.777   2.304   6.818 -0.2064  1.0391 -0.3070
   13SAPS   H3R 1635   5.883   2.273   6.808 -1.0201 -2.7314  1.9551
   13SAPS   H3S 1636   5.725   2.207   6.828  1.9573 -0.1424 -0.1757
   13SAPS   C24 1637   5.772   2.405   6.944  0.1564 -0.3203 -0.4923
   13SAPS   H4R 1638   5.805   2.508   6.917  1.6346  0.0227  2.4154
   13SAPS   H4S 1639   5.848   2.366   7.015 -1.6434 -0.1379  1.5952
   13SAPS   C25 1640   5.641   2.421   7.013  0.2652 -0.2451 -0.7277
   13SAPS   H5R 1641   5.557   2.455   6.950  0.7203  1.3932 -0.4757
   13SAPS   C26 1642   5.610   2.402   7.139 -0.0150  0.7930 -0.2430
   13SAPS   H6R 1643   5.506   2.429   7.164  0.3719 -0.3514  2.8874
   13SAPS   C27 1644   5.698   2.360   7.252 -0.9531 -0.4854 -0.0523
   13SAPS   H7R 1645   5.780   2.300   7.207 -1.1509  0.2821 -1.4520
   13SAPS   H7S 1646   5.639   2.293   7.318  1.2957 -1.9060  0.5753
   13SAPS   C28 1647   5.757   2.483   7.324 -0.4410 -0.1812 -0.2670
   13SAPS   H8R 1648   5.825   2.546   7.266  1.1114 -0.0547  1.6163
   13SAPS   C29 1649   5.729   2.516   7.456  0.0931  0.3553  0.3542
   13SAPS   H9R 1650   5.767   2.614   7.488 -0.2129  1.0746 -1.4447
   13SAPS  C210 1651   5.639   2.444   7.552 -0.2952  0.1248 -0.0932
   13SAPS  H10R 1652   5.612   2.353   7.495 -0.0386  0.6482 -1.0513
   13SAPS  H10S 1653   5.552   2.504   7.587 -0.0513  0.4966 -0.1215
   13SAPS  C211 1654   5.724   2.402   7.664 -0.5093 -0.6792  0.4142
   13SAPS  H11R 1655   5.816   2.347   7.641 -0.3770 -0.5305  0.5809
   13SAPS  C212 1656   5.687   2.386   7.794 -0.2102 -0.7550 -0.4911
   13SAPS  H12R 1657   5.760   2.343   7.864 -1.2107 -3.7159 -1.2128
   13SAPS  C213 1658   5.550   2.410   7.857 -0.4958  0.7296 -0.3755
   13SAPS  H13R 1659   5.531   2.326   7.928 -0.8689 -0.8713 -2.3435
   13SAPS  H13S 1660   5.471   2.397   7.780 -1.5547 -1.0805  0.9392
   13SAPS  C214 1661   5.518   2.545   7.920  0.3128  0.2243  0.2953
   13SAPS  H14R 1662   5.501   2.616   7.838 -0.6551 -2.1732 -1.6484
   13SAPS  C215 1663   5.511   2.582   8.050  0.3137  0.1720  0.2006
   13SAPS  H15R 1664   5.483   2.686   8.071 -1.3874 -0.1527 -0.4443
   13SAPS  C216 1665   5.544   2.484   8.166  0.0013 -1.0002 -0.1737
   13SAPS  H16R 1666   5.627   2.427   8.120 -0.1240  0.7732 -2.7188
   13SAPS  H16S 1667   5.465   2.406   8.176  2.1167 -3.2793 -0.8062
   13SAPS  C217 1668   5.577   2.559   8.297  0.3683 -0.0798 -0.0310
   13SAPS  H17R 1669   5.654   2.639   8.296 -0.1484  0.4023 -1.1631
   13SAPS  H17S 1670   5.615   2.480   8.367  1.5481 -0.1306 -0.7132
   13SAPS  C218 1671   5.455   2.621   8.358  0.4187 -0.0821  0.2684
   13SAPS  H18R 1672   5.372   2.549   8.376 -1.4108  2.2328  1.4422
   13SAPS  H18S 1673   5.398   2.684   8.285 -0.0002 -0.2175  0.4764
   13SAPS  C219 1674   5.467   2.692   8.495 -0.5117 -0.0882 -0.1150
   13SAPS  H19R 1675   5.547   2.769   8.487 -2.2474  1.5873 -1.9631
   13SAPS  H19S 1676   5.495   2.616   8.570 -0.2465 -0.2327 -0.3562
   13SAPS  C220 1677   5.339   2.766   8.542 -0.7981 -0.4724 -0.3610
   13SAPS  H20R 1678   5.305   2.844   8.470  0.7062 -0.7742 -1.4185
   13SAPS  H20S 1679   5.365   2.835   8.626  0.5765 -0.2032 -1.0039
   13SAPS  H20T 1680   5.258   2.692   8.559 -0.1650 -1.7062 -2.5651
   13SAPS   C33 1681   6.398   1.996   6.604  0.1731  0.0482 -0.6941
   13SAPS   H3X 1682   6.461   2.086   6.625  0.1983 -0.2457  0.5409
   13SAPS   H3Y 1683   6.434   1.941   6.515 -0.4465 -0.7649 -0.4433
   13SAPS   C34 1684   6.431   1.897   6.722  0.0340  0.6527 -0.3537
   13SAPS   H4X 1685   6.538   1.868   6.715 -0.1781 -0.4582  0.9432
   13SAPS   H4Y 1686   6.373   1.803   6.717  0.5228  0.4331 -2.4035
   13SAPS   C35 1687   6.421   1.956   6.860 -0.3587  0.3500  0.5066
   13SAPS   H5X 1688   6.312   1.950   6.880 -0.5720 -1.6859 -1.0876
   13SAPS   H5Y 1689   6.452   2.062   6.869 -0.8949  0.4415  1.3892
   13SAPS   C36 1690   6.493   1.881   6.972  0.1583 -0.8507  0.2214
   13SAPS   H6X 1691   6.598   1.881   6.936  0.1851 -0.1344  0.2776
   13SAPS   H6Y 1692   6.465   1.774   6.964 -1.7119 -0.4101  0.6438
   13SAPS   C37 1693   6.478   1.953   7.108 -0.1111 -0.0981  0.0610
   13SAPS   H7X 1694   6.370   1.934   7.131 -0.3094  0.1521 -0.6632
   13SAPS   H7Y 1695   6.504   2.061   7.112 -3.1975  0.6722  0.6069
   13SAPS   C38 1696   6.571   1.899   7.219 -0.3324 -0.2284 -0.9745
   13SAPS   H8X 1697   6.673   1.940   7.202  1.4299 -2.6112  3.1282
   13SAPS   H8Y 1698   6.572   1.788   7.232  0.1197  0.1378  2.6219
   13SAPS   C39 1699   6.531   1.940   7.368 -0.1598  0.0674  0.5501
   13SAPS   H9X 1700   6.470   2.032   7.355 -0.5795 -0.0677  1.5172
   13SAPS   H9Y 1701   6.619   1.945   7.435  0.4106  1.4362 -0.2687
   13SAPS  C310 1702   6.434   1.843   7.441  0.6764 -0.1068 -0.2686
   13SAPS  H10X 1703   6.496   1.768   7.495  1.5573  0.0185 -1.0956
   13SAPS  H10Y 1704   6.373   1.794   7.362  1.3397  3.0826 -2.8612
   13SAPS  C311 1705   6.331   1.918   7.534  0.0429  0.0221  1.1106
   13SAPS  H11X 1706   6.227   1.879   7.530 -0.0824  0.6008 -2.2477
   13SAPS  H11Y 1707   6.318   2.022   7.499  1.1228 -0.3552 -0.4616
   13SAPS  C312 1708   6.365   1.916   7.676  0.1465  0.2709 -0.2776
   13SAPS  H12X 1709   6.294   1.977   7.736 -1.5743 -0.1405 -1.8442
   13SAPS  H12Y 1710   6.469   1.950   7.694  0.8195 -1.4626 -0.7911
   13SAPS  C313 1711   6.340   1.781   7.744 -0.2516  0.6047 -0.4160
   13SAPS  H13X 1712   6.376   1.694   7.684 -1.3295 -1.9564  2.4931
   13SAPS  H13Y 1713   6.231   1.764   7.755  0.0559 -0.3404  1.4392
   13SAPS  C314 1714   6.404   1.773   7.882 -0.1882 -0.6505 -0.1291
   13SAPS  H14X 1715   6.353   1.848   7.946  1.6939  0.9742 -0.5056
   13SAPS  H14Y 1716   6.511   1.801   7.881 -0.3844  0.1044 -2.4808
   13SAPS  C315 1717   6.400   1.629   7.938  0.0535  0.0037  0.4849
   13SAPS  H15X 1718   6.464   1.561   7.878  1.1118  1.6601 -0.2949
   13SAPS  H15Y 1719   6.296   1.590   7.937 -0.5669  1.6386 -1.0208
   13SAPS  C316 1720   6.470   1.637   8.076 -0.5706  0.0945  0.4384
   13SAPS  H16X 1721   6.435   1.709   8.154 -0.3738  4.7959 -3.5547
   13SAPS  H16Y 1722   6.567   1.683   8.047 -0.4967 -0.4082 -0.1025
   13SAPS  C317 1723   6.511   1.506   8.139 -0.1085  0.2129 -0.4978
   13SAPS  H17X 1724   6.594   1.520   8.211  0.6891 -2.3951 -0.8454
   13SAPS  H17Y 1725   6.564   1.439   8.067  4.3151  1.1138  1.7750
   13SAPS  C318 1726   6.404   1.426   8.202 -0.1355 -0.2120  0.1272
   13SAPS  H18X 1727   6.338   1.483   8.271 -0.5657  1.0243 -1.2728
   13SAPS  H18Y 1728   6.443   1.341   8.261  1.9778  0.3264 -0.4696
   13SAPS  H18Z 1729   6.327   1.390   8.130 -0.8379  0.2674  0.6350
   14SAPS     N 1730   6.026   3.979   5.698  0.1232 -0.2978 -0.6042
   14SAPS   HN1 1731   6.121   4.002   5.734 -0.7120  0.0582  1.4253
   14SAPS   HN2 1732   5.968   3.955   5.781 -1.9295  2.2662 -1.2320
   14SAPS   HN3 1733   6.022   3.892   5.641  0.6313  0.2289 -1.4634
   14SAPS   C12 1734   5.976   4.111   5.640  0.2348  0.0729 -0.3046
   14SAPS  H12A 1735   6.025   4.137   5.548  0.8743 -2.5447 -0.7289
   14SAPS   C13 1736   5.818   4.114   5.610  0.4693 -0.4762  0.4491
   14SAPS  O13A 1737   5.746   4.014   5.621  0.2518  0.0846  0.2751
   14SAPS  O13B 1738   5.784   4.218   5.550 -0.7848  0.3706  0.4754
   14SAPS   C11 1739   6.016   4.225   5.744  0.4991  0.1138 -0.1894
   14SAPS  H11A 1740   5.969   4.201   5.841  3.9864 -1.0548  1.2779
   14SAPS  H11B 1741   5.968   4.321   5.713 -2.1895 -1.0724  0.1804
   14SAPS     P 1742   6.239   4.277   5.877  0.3183 -0.4603 -0.3062
   14SAPS   O13 1743   6.300   4.153   5.925 -0.2715 -0.1421 -0.4807
   14SAPS   O14 1744   6.327   4.394   5.848 -0.5338  0.4406 -1.1125
   14SAPS   O12 1745   6.160   4.240   5.748 -0.0659  0.5135  0.6882
   14SAPS   O11 1746   6.122   4.314   5.978  0.5173  0.2992 -0.4658
   14SAPS    C1 1747   6.081   4.237   6.098 -0.0030 -1.4320  1.1091
   14SAPS    HA 1748   6.022   4.148   6.068 -1.4961 -0.4586  1.1031
   14SAPS    HB 1749   6.170   4.203   6.156  1.1110  0.7556  0.7498
   14SAPS    C2 1750   5.975   4.307   6.183  0.0491 -0.0303 -0.0114
   14SAPS    HS 1751   5.875   4.297   6.137  0.8991 -2.3448 -1.4594
   14SAPS   O21 1752   6.003   4.448   6.206  0.1797 -0.1190  0.0465
   14SAPS   C21 1753   5.892   4.520   6.234 -0.1723 -0.0064 -0.1026
   14SAPS   O22 1754   5.777   4.477   6.235  0.4865  0.1652  0.7685
   14SAPS   C22 1755   5.934   4.658   6.234 -0.6282  0.6353  0.6640
   14SAPS   H2R 1756   6.044   4.669   6.231 -0.7774  2.2252  0.1258
   14SAPS   H2S 1757   5.882   4.709   6.150  0.2996  2.4019  1.1202
   14SAPS    C3 1758   5.963   4.229   6.317 -0.1374 -0.5875  0.5321
   14SAPS    HX 1759   6.067   4.230   6.354  0.1165  1.2392 -0.1640
   14SAPS    HY 1760   5.957   4.120   6.295  1.6971 -0.7567  0.8224
   14SAPS   O31 1761   5.872   4.290   6.413  0.4194  0.1008 -0.7214
   14SAPS   C31 1762   5.745   4.249   6.402  0.2565 -0.4538 -0.6290
   14SAPS   O32 1763   5.705   4.167   6.322 -0.5586 -0.3856  0.0211
   14SAPS   C32 1764   5.663   4.322   6.505  0.5228 -0.1978 -0.0657
   14SAPS   H2X 1765   5.562   4.346   6.465  0.6805  0.9464  0.1958
   14SAPS   H2Y 1766   5.708   4.419   6.537  1.2841 -0.6268  0.1734
   14SAPS   C23 1767   5.869   4.729   6.356 -0.0624  0.3870  0.3239
   14SAPS   H3R 1768   5.758   4.726   6.354 -0.0427 -1.1599  0.6558
   14SAPS   H3S 1769   5.903   4.831   6.329  0.9952 -0.2344 -0.7969
   14SAPS   C24 1770   5.931   4.698   6.499 -0.2334 -0.3636 -0.2522
   14SAPS   H4R 1771   6.021   4.634   6.482  2.3547  1.7802  4.2512
   14SAPS   H4S 1772   5.861   4.634   6.557 -0.2312 -0.1174  0.0238
   14SAPS   C25 1773   5.968   4.816   6.579 -0.3907 -0.5419 -0.2958
   14SAPS   H5R 1774   5.880   4.872   6.612 -1.2530 -1.3634 -1.1697
   14SAPS   C26 1775   6.085   4.870   6.571 -0.0326  0.9583  0.0633
   14SAPS   H6R 1776   6.115   4.957   6.632  0.1630 -1.2422  3.1734
   14SAPS   C27 1777   6.197   4.826   6.481 -0.0784 -0.0652  0.4389
   14SAPS   H7R 1778   6.170   4.739   6.418  0.8719 -0.3037  0.3459
   14SAPS   H7S 1779   6.270   4.782   6.552 -0.2437  0.0116  0.6571
   14SAPS   C28 1780   6.264   4.920   6.388 -0.1362  0.5954  0.1657
   14SAPS   H8R 1781   6.209   5.015   6.378 -0.6378  0.2582 -0.3410
   14SAPS   C29 1782   6.380   4.896   6.319 -0.0830 -0.1306 -0.5913
   14SAPS   H9R 1783   6.427   4.987   6.279  2.6989 -1.0957  0.3438
   14SAPS  C210 1784   6.473   4.778   6.312  0.7485 -0.0704 -0.0898
   14SAPS  H10R 1785   6.473   4.730   6.212 -0.5833 -0.2345 -0.0273
   14SAPS  H10S 1786   6.441   4.695   6.379 -1.4270 -0.3447 -1.4286
   14SAPS  C211 1787   6.613   4.818   6.351  0.0426  0.2206  0.5142
   14SAPS  H11R 1788   6.644   4.918   6.317 -0.3947  0.2565  0.2266
   14SAPS  C212 1789   6.706   4.748   6.412 -0.2047 -0.0342 -0.4055
   14SAPS  H12R 1790   6.804   4.798   6.423  0.1034 -1.2218  2.8753
   14SAPS  C213 1791   6.693   4.601   6.443 -0.5097 -0.6423  0.2872
   14SAPS  H13R 1792   6.652   4.542   6.358 -1.9621 -1.1499  1.3249
   14SAPS  H13S 1793   6.624   4.583   6.528  0.6800 -0.6139  1.2647
   14SAPS  C214 1794   6.825   4.542   6.488  0.0780  0.2775  0.1153
   14SAPS  H14R 1795   6.867   4.476   6.411  1.1637  2.6925 -1.4256
   14SAPS  C215 1796   6.894   4.567   6.593 -0.2402 -0.4267  0.0465
   14SAPS  H15R 1797   6.989   4.516   6.613  1.7639  3.7501  1.8664
   14SAPS  C216 1798   6.855   4.676   6.694 -0.2728 -0.3116  0.1587
   14SAPS  H16R 1799   6.769   4.737   6.660 -0.0510  0.5238  1.0938
   14SAPS  H16S 1800   6.947   4.735   6.714 -0.7610 -0.1556  2.0240
   14SAPS  C217 1801   6.796   4.614   6.822  0.0616 -0.9793  0.1002
   14SAPS  H17R 1802   6.706   4.560   6.786 -2.0778  1.1742  2.0231
   14SAPS  H17S 1803   6.755   4.692   6.890 -0.9968  0.0396 -1.6529
   14SAPS  C218 1804   6.890   4.530   6.910 -0.1134  0.1397  0.0209
   14SAPS  H18R 1805   6.975   4.590   6.948 -0.3296  0.6716 -0.3298
   14SAPS  H18S 1806   6.926   4.443   6.851 -0.8442 -0.1347 -0.0262
   14SAPS  C219 1807   6.806   4.479   7.029 -0.5495 -0.3875  0.7864
   14SAPS  H19R 1808   6.865   4.398   7.077  0.1482  0.4822  1.4209
   14SAPS  H19S 1809   6.719   4.426   6.985 -0.8913  1.7723 -1.2841
   14SAPS  C220 1810   6.768   4.579   7.142  0.1422 -0.1145 -0.5676
   14SAPS  H20R 1811   6.695   4.529   7.210  0.7155  0.1885  0.2750
   14SAPS  H20S 1812   6.713   4.663   7.094 -1.1205 -0.7340 -0.2147
   14SAPS  H20T 1813   6.865   4.608   7.188 -0.2644 -1.6795  1.3350
   14SAPS   C33 1814   5.625   4.241   6.631 -1.0232 -0.3672  0.2761
   14SAPS   H3X 1815   5.605   4.307   6.719  0.3527 -0.1043  0.3987
   14SAPS   H3Y 1816   5.720   4.187   6.650  0.2312  0.9932 -1.9480
   14SAPS   C34 1817   5.514   4.138   6.604 -0.1940 -0.2349 -0.6165
   14SAPS   H4X 1818   5.526   4.087   6.506 -3.3597 -1.5623 -0.3972
   14SAPS   H4Y 1819   5.418   4.193   6.604  0.4442  1.0430  3.7580
   14SAPS   C35 1820   5.506   4.022   6.705  0.3655  0.3238 -0.0929
   14SAPS   H5X 1821   5.603   3.967   6.696 -0.2601 -0.5364 -1.7772
   14SAPS   H5Y 1822   5.427   3.954   6.667 -0.3568  1.4641 -0.6382
   14SAPS   C36 1823   5.469   4.068   6.851  0.5036  0.4010  0.3626
   14SAPS   H6X 1824   5.373   4.122   6.838 -0.7158 -1.6635  0.5820
   14SAPS   H6Y 1825   5.533   4.152   6.885 -2.0806  2.4894  0.2361
   14SAPS   C37 1826   5.471   3.954   6.957 -0.5673  0.1490 -0.0882
   14SAPS   H7X 1827   5.402   3.873   6.924 -0.6452  1.0283 -2.1402
   14SAPS   H7Y 1828   5.438   3.997   7.054  2.2193  2.2837 -0.0306
   14SAPS   C38 1829   5.611   3.892   6.982  0.3761 -0.4271 -0.0089
   14SAPS   H8X 1830   5.660   3.965   7.050  1.7709 -2.1117  0.8368
   14SAPS   H8Y 1831   5.675   3.894   6.891  2.1684 -0.7320  1.2287
   14SAPS   C39 1832   5.610   3.750   7.036  0.0036 -0.2077  0.3378
   14SAPS   H9X 1833   5.714   3.711   7.035  0.1707  0.0910  2.6657
   14SAPS   H9Y 1834   5.553   3.686   6.966 -1.6501 -0.5863  2.0099
   14SAPS  C310 1835   5.548   3.732   7.179  0.0593 -0.1373  0.0278
   14SAPS  H10X 1836   5.550   3.621   7.177  1.2301 -0.1230  0.0893
   14SAPS  H10Y 1837   5.447   3.776   7.173 -0.8798 -2.1994  0.2954
   14SAPS  C311 1838   5.632   3.785   7.288  0.5222 -0.3049 -0.4395
   14SAPS  H11X 1839   5.661   3.886   7.253 -0.1898 -0.4521 -1.4952
   14SAPS  H11Y 1840   5.732   3.736   7.279  1.2467  1.4897 -2.4829
   14SAPS  C312 1841   5.572   3.784   7.426 -0.1354  0.3275 -0.0189
   14SAPS  H12X 1842   5.579   3.681   7.469  1.5833  0.9184  1.1826
   14SAPS  H12Y 1843   5.463   3.799   7.414 -0.2556  0.2161  0.9037
   14SAPS  C313 1844   5.641   3.886   7.519  0.5447 -0.3795 -0.3617
   14SAPS  H13X 1845   5.629   3.986   7.472 -0.9824 -0.1906  0.3780
   14SAPS  H13Y 1846   5.749   3.861   7.526  0.6614  0.5632  1.3318
   14SAPS  C314 1847   5.564   3.906   7.654  0.1684 -0.2964  0.0402
   14SAPS  H14X 1848   5.513   3.809   7.672 -0.7472 -0.0599 -1.2088
   14SAPS  H14Y 1849   5.493   3.990   7.638  1.4032  0.7185 -0.1577
   14SAPS  C315 1850   5.653   3.955   7.769  0.4424 -0.1180  0.1251
   14SAPS  H15X 1851   5.705   4.043   7.726  2.8999 -1.0571  1.0917
   14SAPS  H15Y 1852   5.726   3.874   7.791  0.5203  0.5322  2.3307
   14SAPS  C316 1853   5.577   3.991   7.888 -0.7952  0.1724 -0.1218
   14SAPS  H16X 1854   5.512   3.906   7.916  0.1209 -0.3227  0.5545
   14SAPS  H16Y 1855   5.507   4.073   7.864 -2.1386 -0.5383  1.3073
   14SAPS  C317 1856   5.667   4.037   8.012 -0.3377 -0.1282 -0.1575
   14SAPS  H17X 1857   5.734   3.950   8.027 -1.2021 -0.7312  0.2587
   14SAPS  H17Y 1858   5.598   4.051   8.098 -0.8271 -1.0024 -0.4089
   14SAPS  C318 1859   5.742   4.161   7.992 -1.1029 -0.7296 -0.0812
   14SAPS  H18X 1860   5.671   4.242   7.964 -1.0764  0.2315  2.5029
   14SAPS  H18Y 1861   5.801   4.151   7.898  0.0611 -2.7641  0.8375
   14SAPS  H18Z 1862   5.808   4.199   8.073  1.7428 -2.3392 -1.5874
   15SAPS     N 1863   6.382   3.901   5.937  0.3029 -0.7527 -0.2038
   15SAPS   HN1 1864   6.438   3.876   6.021  1.2931  0.4285 -0.5045
   15SAPS   HN2 1865   6.374   4.003   5.922 -0.1373 -0.6102  0.9077
   15SAPS   HN3 1866   6.282   3.872   5.945 -0.1289  0.2310 -1.8857
   15SAPS   C12 1867   6.461   3.835   5.821  0.6618 -0.7995  0.0462
   15SAPS  H12A 1868   6.459   3.727   5.827  1.9473 -0.7528  1.5055
   15SAPS   C13 1869   6.404   3.876   5.683  0.4247  0.0276  0.6147
   15SAPS  O13A 1870   6.310   3.962   5.669 -0.4025  0.0266  0.2969
   15SAPS  O13B 1871   6.469   3.834   5.581 -0.4175 -0.2871  0.3442
   15SAPS   C11 1872   6.609   3.893   5.836 -0.0114 -0.6821  0.5460
   15SAPS  H11A 1873   6.614   4.004   5.829  0.1706 -0.6945  0.4525
   15SAPS  H11B 1874   6.670   3.851   5.753 -1.4670 -0.0863 -0.8510
   15SAPS     P 1875   6.801   3.774   5.955  0.2104  0.1213 -0.7100
   15SAPS   O13 1876   6.798   3.659   5.864  0.6457  0.2984  0.1466
   15SAPS   O14 1877   6.905   3.871   5.922  0.3187  0.0230  0.1291
   15SAPS   O12 1878   6.658   3.845   5.963 -0.6290 -0.2260  0.6889
   15SAPS   O11 1879   6.824   3.704   6.095 -0.4716 -0.0683 -0.6196
   15SAPS    C1 1880   6.710   3.648   6.164 -0.1039  0.7110  0.2276
   15SAPS    HA 1881   6.615   3.648   6.106  0.2381 -1.3083 -0.3592
   15SAPS    HB 1882   6.734   3.542   6.185 -1.2661  0.3886 -0.0619
   15SAPS    C2 1883   6.683   3.723   6.301 -0.3064  0.1275 -0.0997
   15SAPS    HS 1884   6.592   3.686   6.352 -1.9945  2.4374 -1.3122
   15SAPS   O21 1885   6.684   3.871   6.295  0.7346  0.0486 -0.9045
   15SAPS   C21 1886   6.584   3.934   6.239 -0.2495  0.3233  0.0788
   15SAPS   O22 1887   6.485   3.888   6.185 -0.0487  0.2822  0.1210
   15SAPS   C22 1888   6.606   4.089   6.255  0.7780  0.0468  0.9175
   15SAPS   H2R 1889   6.661   4.096   6.351  2.1164  1.9394  0.0280
   15SAPS   H2S 1890   6.674   4.130   6.178 -1.3014  4.1111  1.1521
   15SAPS    C3 1891   6.793   3.674   6.404 -0.0349  0.4238 -0.1334
   15SAPS    HX 1892   6.889   3.711   6.361 -0.1687  1.2878  0.2972
   15SAPS    HY 1893   6.795   3.563   6.406 -0.7443  0.4298  2.0287
   15SAPS   O31 1894   6.792   3.745   6.527  0.3537 -0.1561 -0.0265
   15SAPS   C31 1895   6.744   3.675   6.633 -0.1619  0.5633  0.9937
   15SAPS   O32 1896   6.703   3.561   6.618 -0.9678 -0.7706  0.4438
   15SAPS   C32 1897   6.734   3.768   6.759 -0.7292  0.1511 -0.0125
   15SAPS   H2X 1898   6.680   3.857   6.720 -0.2002  0.7063  0.4980
   15SAPS   H2Y 1899   6.840   3.795   6.779 -0.4474  1.2463 -2.6798
   15SAPS   C23 1900   6.471   4.174   6.259  0.8157  0.0581  0.0003
   15SAPS   H3R 1901   6.412   4.123   6.338  1.1641  0.6740  0.6718
   15SAPS   H3S 1902   6.409   4.181   6.167 -0.8042  1.5636  1.1882
   15SAPS   C24 1903   6.497   4.318   6.305  0.9451 -0.0320 -0.1626
   15SAPS   H4R 1904   6.574   4.365   6.240 -1.0000  2.3657 -0.8275
   15SAPS   H4S 1905   6.551   4.321   6.403  1.1204 -0.7064 -0.2393
   15SAPS   C25 1906   6.374   4.405   6.289 -0.1966 -0.2518 -0.4696
   15SAPS   H5R 1907   6.350   4.444   6.189 -2.5603  0.5215  0.3622
   15SAPS   C26 1908   6.275   4.428   6.378  0.3901  0.6640  0.2004
   15SAPS   H6R 1909   6.194   4.494   6.346  1.5734  0.6752 -2.9161
   15SAPS   C27 1910   6.265   4.371   6.516 -0.4229  0.6393  0.0630
   15SAPS   H7R 1911   6.333   4.284   6.531  0.7982  1.4580 -0.6854
   15SAPS   H7S 1912   6.170   4.315   6.527 -0.9523  0.8938 -2.9217
   15SAPS   C28 1913   6.290   4.462   6.630  0.1732 -0.1248 -0.2327
   15SAPS   H8R 1914   6.361   4.546   6.620 -0.3587  0.1273 -2.0238
   15SAPS   C29 1915   6.241   4.443   6.753  0.5074 -1.0812  0.3529
   15SAPS   H9R 1916   6.277   4.509   6.834 -1.5513 -1.6544  1.8011
   15SAPS  C210 1917   6.134   4.340   6.789 -0.3636 -0.0371 -0.1625
   15SAPS  H10R 1918   6.144   4.316   6.897  0.5473 -1.7955 -0.6151
   15SAPS  H10S 1919   6.159   4.244   6.739 -0.1365 -0.8300  1.4264
   15SAPS  C211 1920   6.003   4.396   6.747  0.2726 -0.6619  0.3722
   15SAPS  H11R 1921   5.998   4.444   6.649  0.5237 -0.1112  0.6254
   15SAPS  C212 1922   5.894   4.424   6.822 -0.1480 -0.6005  0.0082
   15SAPS  H12R 1923   5.808   4.476   6.776  0.9834  0.9928 -0.3471
   15SAPS  C213 1924   5.872   4.397   6.972 -0.0115  0.5059  0.0332
   15SAPS  H13R 1925   5.823   4.487   7.016 -1.2430  0.1248 -0.5282
   15SAPS  H13S 1926   5.967   4.390   7.030 -0.8719 -0.6253  1.3357
   15SAPS  C214 1927   5.783   4.278   7.007 -0.2992 -0.7892 -0.0796
   15SAPS  H14R 1928   5.815   4.192   6.947  1.1268  1.1716 -2.2342
   15SAPS  C215 1929   5.684   4.265   7.097 -0.3393 -0.1466  0.2433
   15SAPS  H15R 1930   5.615   4.180   7.089 -1.5902  0.8920 -0.0574
   15SAPS  C216 1931   5.625   4.363   7.198 -0.1561 -0.5995  0.3378
   15SAPS  H16R 1932   5.518   4.371   7.169 -0.1777 -0.1071  0.5424
   15SAPS  H16S 1933   5.664   4.466   7.184  0.1051 -0.2136  3.5430
   15SAPS  C217 1934   5.640   4.307   7.343 -0.6789 -0.6294  0.0144
   15SAPS  H17R 1935   5.744   4.330   7.374 -1.1110 -0.0791  1.0578
   15SAPS  H17S 1936   5.617   4.198   7.341  0.2749 -0.8253 -1.6285
   15SAPS  C218 1937   5.538   4.379   7.432  0.1091  0.0582 -0.7158
   15SAPS  H18R 1938   5.444   4.380   7.372  0.8277 -2.3043 -1.9436
   15SAPS  H18S 1939   5.576   4.483   7.443 -0.5024  0.5742 -3.1150
   15SAPS  C219 1940   5.507   4.313   7.572  0.2577  0.1894  0.4175
   15SAPS  H19R 1941   5.606   4.299   7.621  0.6650 -3.5032 -1.2998
   15SAPS  H19S 1942   5.471   4.211   7.546 -0.2999  0.4036  0.3554
   15SAPS  C220 1943   5.411   4.384   7.658 -0.5027 -0.1294 -0.3025
   15SAPS  H20R 1944   5.361   4.314   7.730  1.0974 -1.9496 -0.9244
   15SAPS  H20S 1945   5.335   4.434   7.593  0.5490  0.7764 -0.8477
   15SAPS  H20T 1946   5.454   4.470   7.714  2.0238 -0.9451 -0.9486
   15SAPS   C33 1947   6.664   3.705   6.878  0.1076 -0.0022 -0.0396
   15SAPS   H3X 1948   6.696   3.601   6.903  1.8355  0.8021  1.2107
   15SAPS   H3Y 1949   6.555   3.690   6.866  0.2798  0.4483 -2.3454
   15SAPS   C34 1950   6.697   3.789   7.011  0.2646 -0.4484 -0.5129
   15SAPS   H4X 1951   6.653   3.887   6.983 -0.2812 -0.2807  0.8965
   15SAPS   H4Y 1952   6.806   3.805   7.027 -0.1510 -1.0868  3.3275
   15SAPS   C35 1953   6.631   3.739   7.132 -0.0675 -0.0402 -0.3292
   15SAPS   H5X 1954   6.688   3.662   7.188  2.9321  2.7217  0.5939
   15SAPS   H5Y 1955   6.530   3.701   7.104 -0.0093  0.6915 -1.5652
   15SAPS   C36 1956   6.623   3.855   7.233 -0.6807  0.5149  0.0096
   15SAPS   H6X 1957   6.580   3.947   7.189 -1.1166  0.8602  1.1416
   15SAPS   H6Y 1958   6.726   3.869   7.274 -0.5310 -0.6584  0.0621
   15SAPS   C37 1959   6.551   3.817   7.364  0.2110 -0.6798 -0.6600
   15SAPS   H7X 1960   6.591   3.726   7.415 -0.4834 -0.5681  0.1023
   15SAPS   H7Y 1961   6.445   3.790   7.344  0.9245 -3.7247 -0.5345
   15SAPS   C38 1962   6.557   3.937   7.462  0.2966 -0.1406  0.3844
   15SAPS   H8X 1963   6.512   4.029   7.419  3.2534  0.6521 -1.1703
   15SAPS   H8Y 1964   6.666   3.960   7.473  0.5466  0.6127 -3.0505
   15SAPS   C39 1965   6.502   3.894   7.603 -0.1773 -0.8693 -0.0177
   15SAPS   H9X 1966   6.578   3.823   7.641  0.3449  0.6099  1.7680
   15SAPS   H9Y 1967   6.410   3.833   7.593 -0.2960 -0.7944  0.6215
   15SAPS  C310 1968   6.462   4.000   7.702  0.3112 -0.1897  0.4156
   15SAPS  H10X 1969   6.424   3.948   7.792  2.6568  0.2785  1.7066
   15SAPS  H10Y 1970   6.383   4.070   7.667 -1.3174 -2.3234 -0.2330
   15SAPS  C311 1971   6.571   4.083   7.768 -0.0473 -0.1309 -0.9674
   15SAPS  H11X 1972   6.628   4.139   7.692  0.7397 -0.9972 -1.0295
   15SAPS  H11Y 1973   6.633   4.008   7.822  0.7107  1.8142  0.9646
   15SAPS  C312 1974   6.518   4.181   7.880  0.1036  0.3287 -0.2271
   15SAPS  H12X 1975   6.449   4.128   7.949  0.1593  0.9607  0.3153
   15SAPS  H12Y 1976   6.460   4.256   7.822 -1.0272 -1.7177 -1.8259
   15SAPS  C313 1977   6.629   4.250   7.954 -0.2067  0.0741 -0.6802
   15SAPS  H13X 1978   6.705   4.288   7.883  0.0705  1.8706  0.5630
   15SAPS  H13Y 1979   6.676   4.181   8.029 -0.4124  1.1369  0.4388
   15SAPS  C314 1980   6.582   4.374   8.034  1.0146  0.9133  0.3069
   15SAPS  H14X 1981   6.570   4.451   7.955  1.0458  2.8846  2.1759
   15SAPS  H14Y 1982   6.663   4.402   8.105  0.3994  2.0937  0.5570
   15SAPS  C315 1983   6.460   4.343   8.118  0.1461  0.1918  0.2107
   15SAPS  H15X 1984   6.476   4.244   8.165  0.0344  1.3103  2.6565
   15SAPS  H15Y 1985   6.370   4.347   8.053 -0.7343 -1.6484  1.2790
   15SAPS  C316 1986   6.439   4.433   8.242  0.3244 -0.2719  0.2127
   15SAPS  H16X 1987   6.414   4.536   8.209  0.8444 -0.0433  0.5458
   15SAPS  H16Y 1988   6.537   4.446   8.293  0.4629 -0.8791  0.1084
   15SAPS  C317 1989   6.327   4.371   8.330  0.1275  0.4104 -0.6520
   15SAPS  H17X 1990   6.371   4.276   8.369  0.5067 -0.2427 -2.6357
   15SAPS  H17Y 1991   6.234   4.350   8.273 -1.2008  0.9157  1.2634
   15SAPS  C318 1992   6.292   4.462   8.453  0.2079 -0.0167 -0.2199
   15SAPS  H18X 1993   6.279   4.565   8.413  1.8812 -0.7172 -2.6903
   15SAPS  H18Y 1994   6.384   4.469   8.516  1.2418  0.7721 -1.7696
   15SAPS  H18Z 1995   6.204   4.421   8.506  0.9642 -0.5118  0.6756
   16SAPS     N 1996   1.929   5.318   6.639  1.5594 -1.4567  0.3958
   16SAPS   HN1 1997   1.851   5.263   6.680 -0.6423 -0.2734 -2.0468
   16SAPS   HN2 1998   2.014   5.267   6.608  1.5527 -0.4869 -1.2986
   16SAPS   HN3 1999   1.956   5.386   6.713  1.5722 -2.1212  1.0015
   16SAPS   C12 2000   1.887   5.398   6.524 -0.7245 -0.8196 -0.1039
   16SAPS  H12A 2001   1.974   5.453   6.491 -0.5320 -0.0278  1.6465
   16SAPS   C13 2002   1.840   5.312   6.394  0.6076 -0.4575  0.6636
   16SAPS  O13A 2003   1.811   5.190   6.392 -0.0563 -0.2781 -0.1994
   16SAPS  O13B 2004   1.840   5.383   6.282 -0.8547 -0.0402 -0.1816
   16SAPS   C11 2005   1.763   5.477   6.574 -0.7391  0.1521 -0.0415
   16SAPS  H11A 2006   1.690   5.412   6.627  0.4307 -0.2210  1.1351
   16SAPS  H11B 2007   1.706   5.500   6.481 -0.2343 -1.9934 -0.8969
   16SAPS     P 2008   1.854   5.722   6.611  0.6014  0.0124 -0.0181
   16SAPS   O13 2009   1.918   5.803   6.720  0.1433 -0.6247 -0.0385
   16SAPS   O14 2010   1.941   5.693   6.492  0.5373  0.5689 -0.0192
   16SAPS   O12 2011   1.790   5.594   6.659 -0.2012  0.8817 -0.0061
   16SAPS   O11 2012   1.729   5.807   6.558 -0.3246 -0.0230  0.1559
   16SAPS    C1 2013   1.595   5.796   6.591 -0.5724 -0.2548  0.2020
   16SAPS    HA 2014   1.531   5.828   6.505 -0.7537  1.7693  1.0618
   16SAPS    HB 2015   1.570   5.694   6.625  1.5661 -1.0810 -0.6379
   16SAPS    C2 2016   1.555   5.883   6.714 -0.4966 -0.3440  0.5597
   16SAPS    HS 2017   1.590   5.984   6.684 -2.5775 -0.1027 -1.1883
   16SAPS   O21 2018   1.621   5.824   6.830 -0.0383  0.1860 -0.4648
   16SAPS   C21 2019   1.693   5.901   6.903 -0.6509 -0.2111 -0.0114
   16SAPS   O22 2020   1.707   6.023   6.897  0.2130 -0.0389 -0.4961
   16SAPS   C22 2021   1.769   5.810   6.999 -0.3140 -0.0745  0.0608
   16SAPS   H2R 2022   1.762   5.704   6.969  0.4048 -0.1122  0.0165
   16SAPS   H2S 2023   1.874   5.844   6.990 -0.8023  1.4843 -0.0010
   16SAPS    C3 2024   1.401   5.886   6.739  1.0681 -0.2993  0.0097
   16SAPS    HX 2025   1.373   5.779   6.732 -0.2471  0.0316 -0.0315
   16SAPS    HY 2026   1.347   5.936   6.656 -1.3891 -2.6893  0.0795
   16SAPS   O31 2027   1.367   5.930   6.870 -0.3291 -0.5728  0.0781
   16SAPS   C31 2028   1.301   6.044   6.875  0.8127 -0.4938 -0.6978
   16SAPS   O32 2029   1.295   6.128   6.785 -0.3611 -0.0242 -0.1801
   16SAPS   C32 2030   1.249   6.071   7.014  0.3558 -0.1292 -0.6877
   16SAPS   H2X 2031   1.263   5.974   7.066  2.5226  1.2415  1.3953
   16SAPS   H2Y 2032   1.145   6.108   7.017  0.0866 -0.9468  0.2071
   16SAPS   C23 2033   1.732   5.830   7.144 -0.1626  0.9752  0.1063
   16SAPS   H3R 2034   1.623   5.833   7.166 -0.3546  1.8134 -0.9575
   16SAPS   H3S 2035   1.779   5.925   7.177 -2.2792  1.5269  1.5903
   16SAPS   C24 2036   1.780   5.714   7.231  0.2074  0.8592 -0.0716
   16SAPS   H4R 2037   1.754   5.617   7.184  0.0429  1.3841 -1.0908
   16SAPS   H4S 2038   1.735   5.709   7.332 -1.2699  1.1977 -0.6885
   16SAPS   C25 2039   1.932   5.729   7.238  0.0973  0.1018 -0.3024
   16SAPS   H5R 2040   1.984   5.683   7.154 -0.5341 -1.3832  0.1088
   16SAPS   C26 2041   2.014   5.762   7.342 -0.2149  0.2923 -0.0055
   16SAPS   H6R 2042   2.123   5.767   7.326  0.1102  0.9077  2.2802
   16SAPS   C27 2043   1.967   5.796   7.480 -1.0370 -0.6686  0.2872
   16SAPS   H7R 2044   2.030   5.738   7.551  0.0707  0.5850  0.3598
   16SAPS   H7S 2045   1.865   5.762   7.506 -1.3831  1.6351  2.0973
   16SAPS   C28 2046   1.976   5.939   7.514  0.7098  0.2297  0.5319
   16SAPS   H8R 2047   1.983   6.005   7.426  2.2677  0.3760  0.7588
   16SAPS   C29 2048   1.958   5.993   7.635  0.6623  0.1155 -0.2730
   16SAPS   H9R 2049   1.946   6.102   7.628 -2.3709 -0.2642 -2.0915
   16SAPS  C210 2050   1.931   5.913   7.767 -0.4317 -0.2017  0.9890
   16SAPS  H10R 2051   1.898   5.811   7.738 -1.7487  0.4748  0.0427
   16SAPS  H10S 2052   1.842   5.959   7.816  0.1699  2.8566 -0.6068
   16SAPS  C211 2053   2.048   5.893   7.854  0.8899  0.4390  0.9120
   16SAPS  H11R 2054   2.148   5.909   7.812  0.7201 -0.9405 -0.0541
   16SAPS  C212 2055   2.037   5.868   7.989 -0.2463 -0.3908  0.1851
   16SAPS  H12R 2056   2.121   5.850   8.058  1.3658 -0.2662 -1.7068
   16SAPS  C213 2057   1.912   5.853   8.072  0.1037 -0.0514  0.0432
   16SAPS  H13R 2058   1.926   5.766   8.140  0.9691  0.1421  0.1145
   16SAPS  H13S 2059   1.814   5.828   8.025  0.8963 -0.5169 -1.3766
   16SAPS  C214 2060   1.891   5.986   8.149 -0.6853  0.4578 -0.0289
   16SAPS  H14R 2061   1.898   6.082   8.095 -1.8127  1.0802  0.9020
   16SAPS  C215 2062   1.870   5.997   8.279 -0.3501  0.2020  0.3272
   16SAPS  H15R 2063   1.881   6.100   8.316 -0.3568  0.3695 -0.1393
   16SAPS  C216 2064   1.850   5.899   8.391 -0.6862  0.0086 -0.2647
   16SAPS  H16R 2065   1.864   5.803   8.336 -1.7981  0.8439 -2.0626
   16SAPS  H16S 2066   1.749   5.907   8.437  0.3215 -0.7809  2.1411
   16SAPS  C217 2067   1.952   5.888   8.503 -0.6444  0.8253 -0.2355
   16SAPS  H17R 2068   1.905   5.829   8.584  1.6090 -1.7042 -0.6970
   16SAPS  H17S 2069   1.974   5.984   8.554 -0.2193 -0.0490  1.2362
   16SAPS  C218 2070   2.084   5.815   8.464 -0.4131  0.1710  0.1778
   16SAPS  H18R 2071   2.132   5.877   8.385 -0.2293  1.1742  1.0786
   16SAPS  H18S 2072   2.069   5.717   8.414  2.6035  0.3183 -1.1605
   16SAPS  C219 2073   2.181   5.810   8.577  0.0291  0.0250  0.4019
   16SAPS  H19R 2074   2.130   5.753   8.658 -1.3105 -0.5271 -0.8088
   16SAPS  H19S 2075   2.205   5.914   8.607 -2.3575  0.5184  0.6918
   16SAPS  C220 2076   2.316   5.739   8.537  0.7276  0.0434  0.1871
   16SAPS  H20R 2077   2.311   5.632   8.563 -1.4658  0.4664  1.6551
   16SAPS  H20S 2078   2.401   5.786   8.591 -1.8851  0.8887  3.7606
   16SAPS  H20T 2079   2.336   5.738   8.427  0.5796  2.6558  0.0996
   16SAPS   C33 2080   1.325   6.190   7.079 -0.3774  0.3610  0.1973
   16SAPS   H3X 2081   1.270   6.230   7.167  2.0789  2.0612  1.0041
   16SAPS   H3Y 2082   1.333   6.268   7.001  0.1698  1.0720  0.9642
   16SAPS   C34 2083   1.467   6.148   7.132  0.2570  1.0981  0.6521
   16SAPS   H4X 2084   1.517   6.241   7.166 -0.2041  1.1536  1.1804
   16SAPS   H4Y 2085   1.524   6.104   7.047 -2.7311  0.9167 -1.3561
   16SAPS   C35 2086   1.462   6.043   7.245 -0.3116  0.0274 -0.7499
   16SAPS   H5X 2087   1.565   6.037   7.285 -0.7336  0.6142  0.4426
   16SAPS   H5Y 2088   1.449   5.937   7.215  0.2472  0.0975 -1.2336
   16SAPS   C36 2089   1.378   6.084   7.369 -0.2267 -0.6302 -0.5180
   16SAPS   H6X 2090   1.276   6.059   7.335 -0.4017 -1.2535  0.4382
   16SAPS   H6Y 2091   1.396   6.193   7.374 -0.6894 -0.6234  1.8595
   16SAPS   C37 2092   1.418   6.002   7.492 -0.0632  0.5828  0.0360
   16SAPS   H7X 2093   1.411   5.894   7.466 -2.7467  0.4052  1.3005
   16SAPS   H7Y 2094   1.339   6.011   7.570 -0.8828 -0.3253 -0.6706
   16SAPS   C38 2095   1.552   6.048   7.554 -0.1871 -0.6671  0.8364
   16SAPS   H8X 2096   1.625   6.039   7.470 -1.2676 -1.2606 -0.0613
   16SAPS   H8Y 2097   1.590   5.972   7.625  1.0660 -0.7563  0.0711
   16SAPS   C39 2098   1.564   6.187   7.606 -0.6507 -0.6398  0.7482
   16SAPS   H9X 2099   1.489   6.203   7.686 -0.8773 -0.0820  0.4251
   16SAPS   H9Y 2100   1.521   6.260   7.534 -2.4677  0.0934  2.5482
   16SAPS  C310 2101   1.703   6.208   7.654 -0.2011  0.3646  0.3221
   16SAPS  H10X 2102   1.767   6.228   7.566 -0.3145 -1.0857 -0.1050
   16SAPS  H10Y 2103   1.743   6.114   7.697 -0.5921  0.2649  0.4721
   16SAPS  C311 2104   1.725   6.319   7.757  1.0004  0.3851 -0.9166
   16SAPS  H11X 2105   1.658   6.296   7.843 -1.3134  0.9298 -2.5333
   16SAPS  H11Y 2106   1.701   6.424   7.727 -1.1041  0.0946 -0.2992
   16SAPS  C312 2107   1.876   6.319   7.805  0.4486  0.0307 -0.2810
   16SAPS  H12X 2108   1.930   6.365   7.720  0.3524  0.8157  0.0791
   16SAPS  H12Y 2109   1.899   6.213   7.829  0.0351 -0.2689 -1.1636
   16SAPS  C313 2110   1.895   6.409   7.931 -0.5590 -0.4133 -0.3109
   16SAPS  H13X 2111   1.833   6.376   8.017 -0.2283 -0.4581 -0.0882
   16SAPS  H13Y 2112   1.854   6.508   7.902  3.7107  1.3170 -0.8878
   16SAPS  C314 2113   2.037   6.431   7.991  0.1152  0.1254 -0.0755
   16SAPS  H14X 2114   2.118   6.425   7.914  0.9780 -2.9205  1.0013
   16SAPS  H14Y 2115   2.058   6.351   8.066  1.1156 -1.4171 -1.9287
   16SAPS  C315 2116   2.034   6.559   8.074 -0.6724  0.2649  0.0232
   16SAPS  H15X 2117   1.955   6.552   8.152  1.0874 -3.1146  1.5963
   16SAPS  H15Y 2118   2.006   6.645   8.010 -2.7321  0.9773  1.7940
   16SAPS  C316 2119   2.169   6.584   8.139 -0.5977 -0.1846  0.2509
   16SAPS  H16X 2120   2.231   6.647   8.071  1.3241  0.5631  2.6060
   16SAPS  H16Y 2121   2.226   6.494   8.170  0.3077 -0.0849 -1.0795
   16SAPS  C317 2122   2.163   6.684   8.256 -0.2150  0.4406 -0.0205
   16SAPS  H17X 2123   2.262   6.702   8.303 -0.6949  0.3497  1.0428
   16SAPS  H17Y 2124   2.097   6.638   8.332  0.1655  0.4496  0.3144
   16SAPS  C318 2125   2.099   6.818   8.219 -0.5837 -0.4180 -0.5238
   16SAPS  H18X 2126   2.175   6.868   8.155 -0.3342 -1.2090 -0.8555
   16SAPS  H18Y 2127   2.096   6.882   8.310  1.1674  3.1050 -2.8057
   16SAPS  H18Z 2128   1.998   6.802   8.175 -1.6332 -0.2389  1.7727
   17SAPC     N 2129   0.243   1.873  10.555  0.0904 -0.0841 -0.5614
   17SAPC   C12 2130   0.157   1.859  10.429 -0.4966  0.4918 -0.7945
   17SAPC  H12A 2131   0.197   1.914  10.345 -0.9299  1.6318 -0.2500
   17SAPC  H12B 2132   0.061   1.899  10.458 -0.0867  0.2369  0.9722
   17SAPC   C13 2133   0.262   2.021  10.581 -0.3578  0.8382  0.3347
   17SAPC  H13A 2134   0.170   2.076  10.593  0.0396  1.1885  1.8758
   17SAPC  H13B 2135   0.311   2.028  10.677 -1.4646 -1.1965  1.0677
   17SAPC  H13C 2136   0.316   2.068  10.500 -0.5894 -0.8529 -0.8355
   17SAPC   C14 2137   0.177   1.804  10.670 -0.2430 -0.2244  0.4094
   17SAPC  H14A 2138   0.234   1.807  10.761 -1.1618 -0.4300  0.9984
   17SAPC  H14B 2139   0.078   1.843  10.690  0.2331  1.6592 -0.8043
   17SAPC  H14C 2140   0.156   1.699  10.653 -2.0314 -0.2268  2.4406
   17SAPC   C15 2141   0.382   1.811  10.539  0.4025  0.1300 -0.1588
   17SAPC  H15A 2142   0.372   1.713  10.495  0.1839  1.2417 -2.6267
   17SAPC  H15B 2143   0.456   1.862  10.480 -0.4620  0.7611 -0.7173
   17SAPC  H15C 2144   0.424   1.798  10.638  2.4227  0.4657 -0.9515
   17SAPC   C11 2145   0.135   1.706  10.399 -0.1527 -0.2386 -0.5832
   17SAPC  H11A 2146   0.230   1.652  10.422 -1.4155 -1.2584  2.5138
   17SAPC  H11B 2147   0.123   1.698  10.289  3.0794 -0.8524 -0.9459
   17SAPC     P 2148  -0.131   1.657  10.412  0.0526 -0.2756  0.1462
   17SAPC   O13 2149  -0.213   1.577  10.503 -0.0429  0.5816  0.3702
   17SAPC   O14 2150  -0.154   1.798  10.400 -0.3955 -0.0726 -0.6534
   17SAPC   O12 2151   0.018   1.648  10.466  0.9727  0.7890 -0.1457
   17SAPC   O11 2152  -0.112   1.581  10.270 -0.8136  0.1158 -0.6401
   17SAPC    C1 2153  -0.084   1.444  10.251 -0.1363  0.1820  0.5305
   17SAPC    HA 2154   0.006   1.431  10.187 -1.2986 -1.1334 -0.8475
   17SAPC    HB 2155  -0.063   1.383  10.341 -0.7635  1.4489  1.5425
   17SAPC    C2 2156  -0.198   1.372  10.171  0.7958  0.5605  0.0687
   17SAPC    HS 2157  -0.202   1.270  10.213 -0.2478  0.4506 -0.2920
   17SAPC   O21 2158  -0.161   1.377  10.031  0.0343  0.1758 -0.5580
   17SAPC   C21 2159  -0.099   1.268   9.984 -0.7548  0.0926  0.7069
   17SAPC   O22 2160  -0.061   1.172  10.049 -0.0308 -0.0828 -0.6858
   17SAPC   C22 2161  -0.094   1.290   9.835 -0.1305 -1.0392 -0.1991
   17SAPC   H2R 2162  -0.195   1.304   9.789  1.0775 -0.4711 -2.7530
   17SAPC   H2S 2163  -0.027   1.378   9.827  0.3548 -1.2212  1.6700
   17SAPC    C3 2164  -0.343   1.427  10.202 -0.2768  0.0971 -0.4896
   17SAPC    HX 2165  -0.354   1.535  10.181  0.3397 -0.0314 -1.4825
   17SAPC    HY 2166  -0.369   1.416  10.310 -0.1308  1.3485 -0.3212
   17SAPC   O31 2167  -0.430   1.342  10.127  0.6178 -0.0770  0.0783
   17SAPC   C31 2168  -0.513   1.406  10.043  0.1958  0.0648  0.1443
   17SAPC   O32 2169  -0.519   1.530  10.038 -0.0652 -0.4081 -0.3741
   17SAPC   C32 2170  -0.599   1.306   9.965 -0.0933  0.2374  0.4000
   17SAPC   H2X 2171  -0.700   1.332  10.003 -0.5961 -1.7895  0.4659
   17SAPC   H2Y 2172  -0.569   1.200   9.980  0.3401  0.4063  0.7649
   17SAPC   C23 2173  -0.020   1.175   9.756 -0.2022 -0.4237  0.2035
   17SAPC   H3R 2174  -0.103   1.112   9.719  0.5621 -0.3680 -1.6861
   17SAPC   H3S 2175   0.053   1.117   9.815  0.4673 -0.4271 -0.6100
   17SAPC   C24 2176   0.056   1.230   9.634 -0.3499  0.7272 -0.4418
   17SAPC   H4R 2177   0.120   1.146   9.598  2.0661  1.7103  1.3736
   17SAPC   H4S 2178   0.127   1.307   9.672  0.3407 -0.5259  0.8357
   17SAPC   C25 2179  -0.031   1.283   9.521 -0.2733  0.6374  0.0254
   17SAPC   H5R 2180  -0.082   1.375   9.554 -1.4908 -0.2168  0.5534
   17SAPC   C26 2181  -0.032   1.249   9.392  0.0251  0.2030  0.4635
   17SAPC   H6R 2182  -0.101   1.302   9.325 -0.9222 -1.7390 -0.1357
   17SAPC   C27 2183   0.035   1.120   9.343 -0.0136  0.4376 -0.5934
   17SAPC   H7R 2184  -0.030   1.034   9.370  1.2478 -0.0166  1.0389
   17SAPC   H7S 2185   0.137   1.110   9.386  1.2936  2.7343 -2.9913
   17SAPC   C28 2186   0.047   1.119   9.191  0.4518  0.1134  0.1874
   17SAPC   H8R 2187   0.036   1.212   9.132 -3.4811 -0.9374 -0.9103
   17SAPC   C29 2188   0.064   1.001   9.123  0.3505  0.0056 -0.3663
   17SAPC   H9R 2189   0.053   1.006   9.014 -1.5187  0.6844 -0.1663
   17SAPC  C210 2190   0.081   0.871   9.193  0.8152 -0.1668  0.7889
   17SAPC  H10R 2191   0.010   0.795   9.153 -0.3728  0.2806  1.9908
   17SAPC  H10S 2192   0.058   0.869   9.302 -1.5654  4.0650  0.4887
   17SAPC  C211 2193   0.228   0.829   9.175  0.5493  0.6223  0.7242
   17SAPC  H11R 2194   0.271   0.824   9.276 -0.6899 -1.3765  1.1855
   17SAPC  C212 2195   0.294   0.801   9.060  0.2343 -1.0990 -0.1715
   17SAPC  H12R 2196   0.399   0.768   9.067 -0.4926 -3.3342  0.6987
   17SAPC  C213 2197   0.233   0.799   8.923 -1.7315  0.2220  0.2442
   17SAPC  H13R 2198   0.123   0.783   8.931 -1.7527 -1.1507 -2.3092
   17SAPC  H13S 2199   0.271   0.703   8.882 -0.9727 -1.0494  3.7569
   17SAPC  C214 2200   0.279   0.924   8.857  0.2995 -0.2062 -0.1052
   17SAPC  H14R 2201   0.245   1.016   8.906 -0.1473 -1.4907  2.0797
   17SAPC  C215 2202   0.371   0.944   8.762 -0.2492 -0.6577  0.7322
   17SAPC  H15R 2203   0.402   1.044   8.730  0.4582 -0.8793  0.7123
   17SAPC  C216 2204   0.443   0.844   8.685 -0.0694 -0.0372 -0.6297
   17SAPC  H16R 2205   0.417   0.741   8.718  0.7827 -0.6685 -1.8890
   17SAPC  H16S 2206   0.550   0.860   8.709 -0.6406  1.7129  0.8827
   17SAPC  C217 2207   0.418   0.853   8.528 -0.7483 -0.3450  0.9989
   17SAPC  H17R 2208   0.309   0.860   8.508 -0.5159 -3.5693 -1.8161
   17SAPC  H17S 2209   0.451   0.753   8.494  1.6291 -0.4578  3.5041
   17SAPC  C218 2210   0.486   0.961   8.448 -0.1220  0.0179  0.0938
   17SAPC  H18R 2211   0.471   1.060   8.498 -2.1338 -0.6374  0.8387
   17SAPC  H18S 2212   0.435   0.964   8.349  1.9553 -3.1944 -1.1178
   17SAPC  C219 2213   0.640   0.938   8.429 -0.5199 -0.0324  0.2146
   17SAPC  H19R 2214   0.672   0.839   8.389  0.3339  0.2230  0.2562
   17SAPC  H19S 2215   0.692   0.948   8.527  0.4155 -1.3085 -0.1253
   17SAPC  C220 2216   0.690   1.043   8.331  0.9460  0.1001 -0.5584
   17SAPC  H20R 2217   0.638   1.040   8.233 -0.0196  1.2592 -0.0848
   17SAPC  H20S 2218   0.798   1.036   8.303  1.0656 -1.3392  0.2389
   17SAPC  H20T 2219   0.677   1.142   8.379  1.4878 -0.1046  0.0256
   17SAPC   C33 2220  -0.598   1.326   9.811  0.1097  0.1873  0.0863
   17SAPC   H3X 2221  -0.638   1.425   9.782 -0.1769 -0.7961 -3.0361
   17SAPC   H3Y 2222  -0.668   1.256   9.761 -1.3029  2.3876 -1.0718
   17SAPC   C34 2223  -0.450   1.291   9.763  0.3940 -0.0930 -0.3730
   17SAPC   H4X 2224  -0.415   1.200   9.816  0.0410  0.5054  0.9001
   17SAPC   H4Y 2225  -0.383   1.377   9.786  0.1327 -0.3345  1.3572
   17SAPC   C35 2226  -0.420   1.267   9.614 -0.0151  0.2942  0.0309
   17SAPC   H5X 2227  -0.485   1.185   9.578  0.0886 -0.2424  1.0408
   17SAPC   H5Y 2228  -0.320   1.218   9.605  0.0575  0.4606 -0.0840
   17SAPC   C36 2229  -0.451   1.391   9.523 -0.0513 -0.1594 -0.1843
   17SAPC   H6X 2230  -0.426   1.489   9.569  0.5237  1.0192 -2.8832
   17SAPC   H6Y 2231  -0.561   1.390   9.509 -0.2329  1.9551  0.9321
   17SAPC   C37 2232  -0.381   1.391   9.389  0.7819 -0.5202 -0.6559
   17SAPC   H7X 2233  -0.271   1.384   9.403  0.6233 -2.0205 -0.1347
   17SAPC   H7Y 2234  -0.400   1.488   9.338  1.6342 -0.3888 -0.7295
   17SAPC   C38 2235  -0.412   1.274   9.289  0.6637 -0.1772 -0.4817
   17SAPC   H8X 2236  -0.522   1.254   9.286  0.4003  1.1321 -0.0020
   17SAPC   H8Y 2237  -0.357   1.184   9.324 -1.6819 -1.4892 -0.0217
   17SAPC   C39 2238  -0.364   1.300   9.146 -0.1268  0.0368  0.2925
   17SAPC   H9X 2239  -0.254   1.309   9.136 -0.0048  0.8125  2.1241
   17SAPC   H9Y 2240  -0.409   1.389   9.097 -1.0068  0.8031  2.4229
   17SAPC  C310 2241  -0.381   1.179   9.040 -0.8983 -0.4656  0.6417
   17SAPC  H10X 2242  -0.473   1.124   9.068 -0.5960 -1.0257  0.5468
   17SAPC  H10Y 2243  -0.310   1.095   9.055  0.9544  1.1458  1.1534
   17SAPC  C311 2244  -0.382   1.224   8.897  0.2724 -0.5660  0.6297
   17SAPC  H11X 2245  -0.284   1.267   8.867 -0.1580 -1.1288 -1.7226
   17SAPC  H11Y 2246  -0.465   1.297   8.883  0.7960  0.0255  0.5961
   17SAPC  C312 2247  -0.409   1.100   8.813 -0.1839 -0.3215  0.3586
   17SAPC  H12X 2248  -0.508   1.056   8.836 -1.1222  2.0846  0.9640
   17SAPC  H12Y 2249  -0.323   1.034   8.841 -0.3889 -1.6465 -1.9472
   17SAPC  C313 2250  -0.417   1.130   8.661  0.2592 -0.1135  0.7585
   17SAPC  H13X 2251  -0.332   1.195   8.631 -0.9721  0.5654 -1.3744
   17SAPC  H13Y 2252  -0.507   1.189   8.635  1.0399  0.5667 -0.4640
   17SAPC  C314 2253  -0.421   0.998   8.573  0.2096 -0.1665 -0.0609
   17SAPC  H14X 2254  -0.499   0.928   8.610 -1.8192  2.7043  1.2848
   17SAPC  H14Y 2255  -0.325   0.942   8.578  0.4221  0.0495 -1.4051
   17SAPC  C315 2256  -0.432   1.023   8.420  0.4872  0.1859  0.0761
   17SAPC  H15X 2257  -0.354   1.095   8.389  0.7744  0.6099  1.7788
   17SAPC  H15Y 2258  -0.532   1.068   8.400  0.5324 -0.2257 -1.1644
   17SAPC  C316 2259  -0.428   0.889   8.347  0.3048  0.2566  0.0279
   17SAPC  H16X 2260  -0.453   0.808   8.419 -0.5587 -0.2797 -0.8631
   17SAPC  H16Y 2261  -0.321   0.871   8.324  0.7784  0.5141  1.9777
   17SAPC  C317 2262  -0.516   0.873   8.225 -0.0402 -0.8661  0.3778
   17SAPC  H17X 2263  -0.609   0.932   8.235  0.4535 -0.4670  2.9883
   17SAPC  H17Y 2264  -0.553   0.768   8.223 -0.3465 -0.7571  0.4328
   17SAPC  C318 2265  -0.449   0.911   8.096  0.3833  0.1444 -0.1972
   17SAPC  H18X 2266  -0.396   1.009   8.095  0.9696 -0.0555  3.5593
   17SAPC  H18Y 2267  -0.365   0.841   8.074 -0.5639 -0.0394 -3.5985
   17SAPC  H18Z 2268  -0.516   0.894   8.009 -2.3879  1.6101  1.5934
   18SAPC     N 2269   0.572   0.900  11.016 -0.3046  0.1440 -0.4143
   18SAPC   C12 2270   0.556   0.838  10.890  0.0836  0.0126  0.1306
   18SAPC  H12A 2271   0.455   0.803  10.880 -0.3068  0.9541  0.7201
   18SAPC  H12B 2272   0.622   0.752  10.898  0.8189  0.6937  1.5207
   18SAPC   C13 2273   0.706   0.960  11.039  0.3993  0.5331  0.1957
   18SAPC  H13A 2274   0.781   0.891  11.075 -0.7250  0.1743  1.8979
   18SAPC  H13B 2275   0.742   1.026  10.961  0.1215 -1.1751 -1.4114
   18SAPC  H13C 2276   0.679   1.023  11.122  2.6050  0.2743  1.1394
   18SAPC   C14 2277   0.469   1.009  11.029  0.7664  0.9514 -0.2780
   18SAPC  H14A 2278   0.474   1.067  11.120 -2.7217  1.0374 -0.0899
   18SAPC  H14B 2279   0.481   1.074  10.944 -0.2287  1.4678 -0.0217
   18SAPC  H14C 2280   0.364   0.987  11.027  0.8475  0.6494 -1.5445
   18SAPC   C15 2281   0.544   0.804  11.122 -0.5165 -0.5746  0.0408
   18SAPC  H15A 2282   0.554   0.847  11.221  0.5404 -1.0365  0.1429
   18SAPC  H15B 2283   0.440   0.777  11.117 -0.9392  0.7888  1.2984
   18SAPC  H15C 2284   0.605   0.714  11.123 -1.5841 -1.3004  1.9888
   18SAPC   C11 2285   0.591   0.912  10.755  0.0196 -0.1862 -0.0080
   18SAPC  H11A 2286   0.605   0.846  10.667 -1.6930 -0.7582  0.1295
   18SAPC  H11B 2287   0.687   0.964  10.778 -0.2282  0.7110 -0.9775
   18SAPC     P 2288   0.351   0.968  10.678 -0.7144 -0.2634 -0.1028
   18SAPC   O13 2289   0.303   0.840  10.737 -0.7925 -0.1236  0.5482
   18SAPC   O14 2290   0.266   1.089  10.687  0.4162  0.3592  0.1937
   18SAPC   O12 2291   0.488   1.006  10.734  1.0609 -0.0955 -0.3308
   18SAPC   O11 2292   0.386   0.935  10.528 -0.2060 -0.0771  0.0081
   18SAPC    C1 2293   0.474   1.006  10.443 -0.4101  0.1936 -0.5137
   18SAPC    HA 2294   0.456   1.114  10.462 -1.6886  0.0754 -0.9827
   18SAPC    HB 2295   0.578   0.981  10.471 -0.1627  1.0141 -0.6845
   18SAPC    C2 2296   0.444   0.982  10.284 -0.1219 -0.4210 -1.0313
   18SAPC    HS 2297   0.424   0.874  10.267  0.1759 -0.5182 -0.7783
   18SAPC   O21 2298   0.556   1.036  10.211  0.0044 -0.3724  0.1867
   18SAPC   C21 2299   0.640   0.943  10.193  0.3809 -0.2430  0.4514
   18SAPC   O22 2300   0.636   0.829  10.233 -0.5009 -0.0802 -0.4195
   18SAPC   C22 2301   0.755   0.988  10.114  0.0720 -0.7160 -0.9442
   18SAPC   H2R 2302   0.714   1.041  10.026 -1.6395 -2.1567 -1.0368
   18SAPC   H2S 2303   0.816   1.051  10.183 -0.1917 -1.6452  0.1654
   18SAPC    C3 2304   0.318   1.059  10.241  0.1759  0.0371 -0.2828
   18SAPC    HX 2305   0.341   1.168  10.237  3.4410 -0.6077 -0.6462
   18SAPC    HY 2306   0.240   1.053  10.319  0.9328  2.9216  0.7635
   18SAPC   O31 2307   0.272   1.000  10.118  0.3193 -0.4731  0.6956
   18SAPC   C31 2308   0.164   0.924  10.116  0.0406 -0.0084  0.7537
   18SAPC   O32 2309   0.089   0.907  10.209 -0.3074  0.1071 -0.0875
   18SAPC   C32 2310   0.147   0.879   9.967 -0.1742 -0.1386  0.3803
   18SAPC   H2X 2311   0.230   0.927   9.911 -0.6369 -1.0843 -1.1224
   18SAPC   H2Y 2312   0.054   0.925   9.927  0.7558  2.4254  1.0805
   18SAPC   C23 2313   0.841   0.866  10.077 -0.5770  0.1068 -0.1360
   18SAPC   H3R 2314   0.786   0.775  10.045  0.8651 -0.0484 -2.2617
   18SAPC   H3S 2315   0.910   0.833  10.157  1.3179 -0.4450 -1.9726
   18SAPC   C24 2316   0.936   0.912   9.974  1.3857  0.1473  0.0908
   18SAPC   H4R 2317   1.026   0.847   9.969  0.8956 -0.5191 -0.2367
   18SAPC   H4S 2318   0.981   1.002  10.020  0.0500  1.3731 -0.9585
   18SAPC   C25 2319   0.885   0.943   9.835 -0.7869 -0.0514 -0.1385
   18SAPC   H5R 2320   0.821   1.032   9.825  1.4041  1.7821  1.5184
   18SAPC   C26 2321   0.909   0.873   9.724  0.1218 -0.4972 -0.9919
   18SAPC   H6R 2322   0.864   0.897   9.626 -0.1815 -2.0836 -1.2512
   18SAPC   C27 2323   0.999   0.757   9.698 -0.1483 -0.0838 -0.4733
   18SAPC   H7R 2324   1.076   0.742   9.777  0.3582  3.2807 -0.2439
   18SAPC   H7S 2325   1.060   0.795   9.613 -0.2136  0.2361 -0.3797
   18SAPC   C28 2326   0.940   0.622   9.676  0.1088 -0.3102 -0.2915
   18SAPC   H8R 2327   0.896   0.570   9.762  2.4344 -1.6167  0.1428
   18SAPC   C29 2328   0.938   0.564   9.555 -0.1375 -0.0356 -0.1076
   18SAPC   H9R 2329   0.896   0.464   9.540  0.2763 -0.3346  0.7266
   18SAPC  C210 2330   0.993   0.619   9.427  0.1389 -0.4723 -0.2815
   18SAPC  H10R 2331   0.942   0.711   9.390  0.9008  0.0315 -0.0871
   18SAPC  H10S 2332   0.988   0.545   9.345 -0.1694 -0.1674 -0.5389
   18SAPC  C211 2333   1.136   0.654   9.419  0.0524 -0.2708  0.1030
   18SAPC  H11R 2334   1.185   0.620   9.511  1.0049 -0.1225 -0.3387
   18SAPC  C212 2335   1.207   0.685   9.314  0.9427 -0.0590  0.7538
   18SAPC  H12R 2336   1.316   0.694   9.311  0.9686 -0.3899  0.6807
   18SAPC  C213 2337   1.169   0.706   9.172 -0.3155  0.9610 -0.9996
   18SAPC  H13R 2338   1.072   0.761   9.168 -0.4641  0.8045  0.4150
   18SAPC  H13S 2339   1.170   0.608   9.120  1.3945  0.3805  0.1066
   18SAPC  C214 2340   1.272   0.784   9.090 -0.7805  0.3300  0.2794
   18SAPC  H14R 2341   1.373   0.779   9.134 -0.2036 -3.2170 -1.3181
   18SAPC  C215 2342   1.259   0.854   8.976 -0.4536 -0.7751  0.1424
   18SAPC  H15R 2343   1.353   0.898   8.939  0.3537  1.1353  4.2537
   18SAPC  C216 2344   1.121   0.883   8.914  0.0561 -0.2051  0.4357
   18SAPC  H16R 2345   1.101   0.992   8.923  0.6676 -0.1882  1.6857
   18SAPC  H16S 2346   1.040   0.828   8.966 -0.5763 -0.9494 -1.2775
   18SAPC  C217 2347   1.128   0.824   8.771  0.0905 -0.2043  0.8600
   18SAPC  H17R 2348   1.028   0.825   8.722 -0.4054  2.0454  1.8469
   18SAPC  H17S 2349   1.148   0.715   8.776  0.3443 -0.0685  2.9107
   18SAPC  C218 2350   1.229   0.885   8.665  0.3742  0.5280 -0.7071
   18SAPC  H18R 2351   1.237   0.810   8.584  2.5227  1.1926 -1.1332
   18SAPC  H18S 2352   1.328   0.899   8.714  0.0952  1.0817 -0.2928
   18SAPC  C219 2353   1.194   1.012   8.604 -0.3451  0.0487  0.7005
   18SAPC  H19R 2354   1.263   1.020   8.517  1.3481 -1.0055  1.9364
   18SAPC  H19S 2355   1.206   1.090   8.682 -2.6178  0.8861  0.2800
   18SAPC  C220 2356   1.053   1.021   8.537  0.3048  0.5214 -0.6556
   18SAPC  H20R 2357   1.050   1.122   8.489 -0.4667  1.7286  1.8604
   18SAPC  H20S 2358   0.975   1.032   8.615  1.1370  1.0085  0.1192
   18SAPC  H20T 2359   1.028   0.931   8.478 -0.2614 -0.6028  1.2666
   18SAPC   C33 2360   0.140   0.724   9.935  0.4251 -0.3332 -0.5346
   18SAPC   H3X 2361   0.041   0.689   9.969 -0.1692  0.0377 -1.8511
   18SAPC   H3Y 2362   0.211   0.666   9.997 -2.4762 -1.6758  1.5868
   18SAPC   C34 2363   0.168   0.693   9.786  0.0703 -0.1770 -0.2789
   18SAPC   H4X 2364   0.157   0.583   9.776 -0.8712 -0.2092  1.0300
   18SAPC   H4Y 2365   0.273   0.718   9.760 -0.7142  2.0315 -1.4451
   18SAPC   C35 2366   0.075   0.749   9.682 -0.5280 -0.1523 -0.2869
   18SAPC   H5X 2367   0.070   0.860   9.673 -1.1593 -0.1484  0.0799
   18SAPC   H5Y 2368  -0.029   0.713   9.698 -0.7321 -0.5968 -2.5588
   18SAPC   C36 2369   0.104   0.690   9.545 -0.0285 -0.0075  0.2966
   18SAPC   H6X 2370   0.208   0.706   9.507 -0.4226 -0.3691 -0.9478
   18SAPC   H6Y 2371   0.032   0.727   9.469  0.2998 -0.8411 -0.4290
   18SAPC   C37 2372   0.094   0.529   9.534  0.2768  0.7240  1.0864
   18SAPC   H7X 2373  -0.002   0.503   9.582 -0.6530  0.2130 -1.0115
   18SAPC   H7Y 2374   0.185   0.497   9.590  0.6965 -1.2493 -0.6409
   18SAPC   C38 2375   0.105   0.468   9.397 -0.8230  0.3876  0.0233
   18SAPC   H8X 2376   0.154   0.369   9.414 -1.6454 -0.1774 -0.8280
   18SAPC   H8Y 2377   0.180   0.514   9.329  0.5562 -1.5773  0.1562
   18SAPC   C39 2378  -0.026   0.454   9.326 -0.6926 -0.3533  0.1715
   18SAPC   H9X 2379  -0.080   0.549   9.344  1.2152  0.7529  0.1374
   18SAPC   H9Y 2380  -0.073   0.366   9.376 -0.7673 -0.2104  0.3528
   18SAPC  C310 2381  -0.017   0.418   9.182  0.2673  0.5620 -1.0677
   18SAPC  H10X 2382   0.004   0.309   9.182 -0.3456  0.4162  1.2831
   18SAPC  H10Y 2383   0.064   0.484   9.145  0.3432  2.1102  1.7925
   18SAPC  C311 2384  -0.143   0.461   9.103 -0.2583  1.0698  1.0372
   18SAPC  H11X 2385  -0.161   0.570   9.116  1.3027  1.6970 -1.5965
   18SAPC  H11Y 2386  -0.219   0.398   9.153 -0.3960 -0.5235 -1.0955
   18SAPC  C312 2387  -0.135   0.429   8.952 -0.1041 -0.2643 -0.2739
   18SAPC  H12X 2388  -0.234   0.393   8.916 -0.4062 -0.6764  0.9558
   18SAPC  H12Y 2389  -0.071   0.343   8.921  0.0707  0.3221 -1.5538
   18SAPC  C313 2390  -0.076   0.547   8.878 -0.5868 -0.6259  0.1119
   18SAPC  H13X 2391   0.020   0.578   8.926  0.0958 -1.1786 -0.8728
   18SAPC  H13Y 2392  -0.129   0.642   8.900  0.5105 -0.2955  1.4182
   18SAPC  C314 2393  -0.046   0.513   8.731  0.0679  0.5712  0.1600
   18SAPC  H14X 2394  -0.134   0.464   8.684  0.2118 -0.7776  1.2797
   18SAPC  H14Y 2395   0.041   0.446   8.722 -0.5704 -0.2399 -0.0443
   18SAPC  C315 2396  -0.019   0.640   8.649  0.1469 -0.0492 -0.5628
   18SAPC  H15X 2397   0.079   0.687   8.674 -1.0466  1.9404  0.5002
   18SAPC  H15Y 2398  -0.102   0.712   8.666  1.1885  1.4007 -1.5146
   18SAPC  C316 2399  -0.007   0.604   8.502  0.0284  0.2236  1.1400
   18SAPC  H16X 2400  -0.081   0.524   8.479 -0.2317  1.3630 -2.3053
   18SAPC  H16Y 2401   0.092   0.554   8.491 -0.7948 -1.9517  3.1757
   18SAPC  C317 2402  -0.038   0.723   8.406 -0.3696  0.1822  0.0628
   18SAPC  H17X 2403   0.013   0.809   8.454  0.0816  1.5858 -2.8852
   18SAPC  H17Y 2404  -0.147   0.740   8.420 -0.1659  1.5806 -0.0338
   18SAPC  C318 2405   0.005   0.710   8.265  0.4740 -0.0568  0.7773
   18SAPC  H18X 2406  -0.017   0.806   8.213  0.5576 -1.6244 -2.2598
   18SAPC  H18Y 2407  -0.062   0.642   8.208 -0.7644  1.2255  0.6621
   18SAPC  H18Z 2408   0.110   0.676   8.264  1.4495  2.7449  2.5666
   19SAPC     N 2409   5.674   2.484  11.045  0.3516  0.2688  0.2818
   19SAPC   C12 2410   5.717   2.533  10.909 -0.7108 -0.9915  0.5947
   19SAPC  H12A 2411   5.687   2.637  10.900  0.2609 -0.5739  1.9274
   19SAPC  H12B 2412   5.651   2.493  10.834  0.1199  0.0688 -0.7419
   19SAPC   C13 2413   5.523   2.489  11.034 -0.4594 -0.0587 -0.2065
   19SAPC  H13A 2414   5.486   2.581  10.991 -1.1836 -0.2457  0.0198
   19SAPC  H13B 2415   5.481   2.403  10.985  2.4654 -0.4739 -2.0862
   19SAPC  H13C 2416   5.477   2.488  11.132  0.1447  0.5944  0.0865
   19SAPC   C14 2417   5.709   2.347  11.072 -0.0445 -0.7420  0.2938
   19SAPC  H14A 2418   5.709   2.315  11.175 -0.9641  2.6441  1.4069
   19SAPC  H14B 2419   5.642   2.283  11.016  2.1056 -1.9685 -0.9467
   19SAPC  H14C 2420   5.807   2.319  11.035 -0.3101 -0.2084 -0.8355
   19SAPC   C15 2421   5.736   2.567  11.146 -0.7238  0.4771  0.3812
   19SAPC  H15A 2422   5.690   2.553  11.243 -2.1111 -2.0016 -0.5788
   19SAPC  H15B 2423   5.840   2.535  11.147 -0.8958 -0.1002 -0.0270
   19SAPC  H15C 2424   5.728   2.672  11.126 -2.0586  0.9009  2.9294
   19SAPC   C11 2425   5.855   2.487  10.861 -0.5602 -0.4753  0.8957
   19SAPC  H11A 2426   5.837   2.380  10.840 -0.1663 -0.4461  0.3885
   19SAPC  H11B 2427   5.934   2.494  10.939 -0.6421  2.7511  0.7651
   19SAPC     P 2428   5.957   2.495  10.616 -0.3143 -0.2744  0.2399
   19SAPC   O13 2429   6.036   2.378  10.660 -0.5727 -0.0806  0.3253
   19SAPC   O14 2430   5.861   2.469  10.504 -0.2533  0.6953  0.9021
   19SAPC   O12 2431   5.892   2.568  10.742 -0.4294  0.2865  0.2802
   19SAPC   O11 2432   6.060   2.608  10.573 -0.4319 -0.3364 -0.2064
   19SAPC    C1 2433   6.008   2.741  10.552  0.0256 -0.3010 -0.1257
   19SAPC    HA 2434   5.899   2.751  10.568 -0.0353  1.4600 -1.5524
   19SAPC    HB 2435   6.055   2.812  10.624 -1.2402  0.0214  0.3982
   19SAPC    C2 2436   6.048   2.796  10.410 -0.3575  0.3994 -0.3777
   19SAPC    HS 2437   6.044   2.906  10.418 -1.0280  0.3782 -0.4297
   19SAPC   O21 2438   5.966   2.731  10.318  0.4762  0.0784 -0.0870
   19SAPC   C21 2439   5.856   2.799  10.283  0.9199  0.1698  1.0550
   19SAPC   O22 2440   5.836   2.919  10.304 -0.3703 -0.6455  0.3877
   19SAPC   C22 2441   5.775   2.706  10.205 -0.2670  0.0337 -0.2490
   19SAPC   H2R 2442   5.835   2.677  10.116 -1.0372  0.6239 -0.9626
   19SAPC   H2S 2443   5.753   2.617  10.268 -1.0703  0.8346  0.6095
   19SAPC    C3 2444   6.191   2.762  10.383 -0.3378 -0.0025 -0.4638
   19SAPC    HX 2445   6.211   2.653  10.376 -1.1449 -0.2090  0.3523
   19SAPC    HY 2446   6.254   2.795  10.469 -0.2767 -1.6973  0.1628
   19SAPC   O31 2447   6.239   2.841  10.273  0.6398  0.3164 -0.1974
   19SAPC   C31 2448   6.241   2.787  10.145 -0.1016  1.0301 -0.6455
   19SAPC   O32 2449   6.194   2.680  10.119  0.6635  0.1567 -0.0438
   19SAPC   C32 2450   6.329   2.873  10.058  0.0956 -1.2093 -0.6382
   19SAPC   H2X 2451   6.437   2.858  10.077 -0.0750 -2.0180 -0.2950
   19SAPC   H2Y 2452   6.312   2.980  10.079 -0.1906 -1.3535 -0.1358
   19SAPC   C23 2453   5.648   2.771  10.157 -0.7199  0.7236 -0.1588
   19SAPC   H3R 2454   5.689   2.833  10.075 -1.7752  3.2186  1.1446
   19SAPC   H3S 2455   5.609   2.820  10.249 -0.2724  0.6000  0.0986
   19SAPC   C24 2456   5.549   2.662  10.108 -0.0849 -0.4776  0.4707
   19SAPC   H4R 2457   5.445   2.697  10.127 -0.9937 -1.7490 -2.0298
   19SAPC   H4S 2458   5.553   2.567  10.165  1.8440 -1.3430 -1.0797
   19SAPC   C25 2459   5.559   2.631   9.958 -0.4784 -0.1271 -0.2669
   19SAPC   H5R 2460   5.512   2.701   9.887  0.0648  1.1488  0.6091
   19SAPC   C26 2461   5.597   2.511   9.908  1.0122  0.1000 -0.0072
   19SAPC   H6R 2462   5.607   2.495   9.800 -1.2813  0.6241 -0.3271
   19SAPC   C27 2463   5.642   2.402   9.995  0.6714  0.5373 -0.3776
   19SAPC   H7R 2464   5.552   2.374  10.055  0.8381 -0.4748 -0.5817
   19SAPC   H7S 2465   5.713   2.438  10.072  0.3783  0.8881 -0.2691
   19SAPC   C28 2466   5.710   2.267   9.956  0.5333  0.5408 -0.3462
   19SAPC   H8R 2467   5.792   2.236  10.022  0.2200 -1.1441 -0.7183
   19SAPC   C29 2468   5.675   2.186   9.853 -0.3483  0.4017  0.0336
   19SAPC   H9R 2469   5.745   2.104   9.832 -2.0595 -0.9750 -0.4724
   19SAPC  C210 2470   5.575   2.199   9.742  0.7625 -0.8624 -0.9048
   19SAPC  H10R 2471   5.619   2.157   9.650  0.0335  0.2937 -1.8011
   19SAPC  H10S 2472   5.559   2.307   9.718 -2.1205 -0.8709  0.7672
   19SAPC  C211 2473   5.455   2.129   9.781 -0.6895  0.3796  0.0490
   19SAPC  H11R 2474   5.426   2.146   9.885 -0.6552  1.3376 -0.0868
   19SAPC  C212 2475   5.371   2.065   9.702  0.2890 -0.3111  0.4882
   19SAPC  H12R 2476   5.277   2.023   9.741  0.9931 -1.2485  1.1943
   19SAPC  C213 2477   5.391   2.039   9.553 -0.4404  0.1735 -1.1742
   19SAPC  H13R 2478   5.484   1.983   9.530  0.8104  2.1222 -1.0387
   19SAPC  H13S 2479   5.409   2.139   9.507  0.1593 -0.6431 -2.7605
   19SAPC  C214 2480   5.271   1.982   9.480 -0.0479  0.0275  0.1708
   19SAPC  H14R 2481   5.177   1.976   9.537  0.9726  0.3876  1.9053
   19SAPC  C215 2482   5.274   1.935   9.352  0.9572 -0.3953 -0.2942
   19SAPC  H15R 2483   5.188   1.887   9.306  0.6322 -0.0043 -0.1055
   19SAPC  C216 2484   5.398   1.926   9.269 -0.7917  0.3312  0.2617
   19SAPC  H16R 2485   5.440   1.823   9.275 -2.2061 -0.1531  1.9112
   19SAPC  H16S 2486   5.480   1.987   9.311  1.5562 -2.3236 -0.2812
   19SAPC  C217 2487   5.386   1.964   9.120  0.2118 -0.6008  0.0420
   19SAPC  H17R 2488   5.378   2.074   9.104 -0.8818 -0.7273 -0.2921
   19SAPC  H17S 2489   5.296   1.911   9.081 -1.1959  0.1943  2.1468
   19SAPC  C218 2490   5.501   1.906   9.038 -0.0752  0.6957 -0.1607
   19SAPC  H18R 2491   5.499   1.795   9.050  2.1143  0.5477 -0.8681
   19SAPC  H18S 2492   5.594   1.932   9.093 -0.5181  1.7396  0.0897
   19SAPC  C219 2493   5.511   1.918   8.888 -0.8009 -0.3112 -0.0991
   19SAPC  H19R 2494   5.609   1.868   8.869  0.3490  0.6554  2.9591
   19SAPC  H19S 2495   5.527   2.022   8.852 -1.7447 -0.6622 -1.5983
   19SAPC  C220 2496   5.387   1.853   8.819 -0.0035 -0.3327 -0.0772
   19SAPC  H20R 2497   5.294   1.913   8.822 -0.2524 -0.7181 -0.1738
   19SAPC  H20S 2498   5.370   1.754   8.866 -0.3974 -0.1081  0.2475
   19SAPC  H20T 2499   5.423   1.841   8.715 -2.2535 -0.3753 -0.8717
   19SAPC   C33 2500   6.308   2.851   9.900 -0.7393  0.2278  0.2061
   19SAPC   H3X 2501   6.206   2.880   9.866 -0.9545 -1.1527 -0.3735
   19SAPC   H3Y 2502   6.307   2.741   9.888 -0.8335  0.2905 -0.3609
   19SAPC   C34 2503   6.427   2.911   9.821  0.2015 -0.0593  0.2697
   19SAPC   H4X 2504   6.509   2.840   9.847  0.6883  0.7953  1.1186
   19SAPC   H4Y 2505   6.462   3.004   9.871 -0.4500 -0.3665  1.3113
   19SAPC   C35 2506   6.405   2.930   9.673 -0.6175 -0.2167 -0.7552
   19SAPC   H5X 2507   6.484   2.991   9.623  0.1666 -1.1458 -0.6588
   19SAPC   H5Y 2508   6.309   2.986   9.673  0.1753  1.2008  0.4419
   19SAPC   C36 2509   6.415   2.794   9.597  0.1225  0.1304 -1.1879
   19SAPC   H6X 2510   6.323   2.739   9.627  0.7440  1.2257  3.1859
   19SAPC   H6Y 2511   6.510   2.749   9.631  0.4613  0.3813 -1.7931
   19SAPC   C37 2512   6.418   2.815   9.447  0.8828  0.4061  0.1213
   19SAPC   H7X 2513   6.450   2.718   9.404 -0.2372  0.2832 -0.4462
   19SAPC   H7Y 2514   6.505   2.884   9.435  0.6128  0.5414 -1.1697
   19SAPC   C38 2515   6.282   2.865   9.397  0.2527  0.1716  0.0657
   19SAPC   H8X 2516   6.255   2.958   9.451 -1.1899  0.3372 -0.8889
   19SAPC   H8Y 2517   6.207   2.786   9.423 -1.8923  2.3821  0.7620
   19SAPC   C39 2518   6.272   2.899   9.248  0.1833 -0.2618  0.2604
   19SAPC   H9X 2519   6.283   2.804   9.192  0.3588  0.2032 -0.5029
   19SAPC   H9Y 2520   6.364   2.955   9.221  0.0220 -0.1272 -0.0134
   19SAPC  C310 2521   6.137   2.967   9.202  0.1990 -0.4594  0.2382
   19SAPC  H10X 2522   6.136   2.999   9.096 -0.1097 -0.6876  0.1741
   19SAPC  H10Y 2523   6.131   3.058   9.266  0.4931  0.8454 -1.5757
   19SAPC  C311 2524   6.005   2.875   9.228 -0.3850 -0.3156 -0.2354
   19SAPC  H11X 2525   5.914   2.922   9.184 -2.0446 -2.8031  0.4042
   19SAPC  H11Y 2526   5.993   2.866   9.338 -0.9901 -3.4709 -0.5033
   19SAPC  C312 2527   6.013   2.731   9.162  0.4219 -0.2026 -0.3129
   19SAPC  H12X 2528   5.912   2.687   9.157 -0.7265  1.9070  2.8500
   19SAPC  H12Y 2529   6.074   2.663   9.226 -2.3763  2.0170  5.0670
   19SAPC  C313 2530   6.064   2.726   9.016 -0.4240 -0.5734  0.2868
   19SAPC  H13X 2531   6.165   2.771   9.006 -0.4802  0.0211  2.1661
   19SAPC  H13Y 2532   5.990   2.792   8.966 -3.1621 -2.1961  2.0717
   19SAPC  C314 2533   6.054   2.588   8.957 -0.1145 -0.1556 -0.5731
   19SAPC  H14X 2534   5.953   2.548   8.979 -0.5383  0.3102 -1.6673
   19SAPC  H14Y 2535   6.119   2.513   9.007 -1.7575 -0.7977  0.6251
   19SAPC  C315 2536   6.092   2.580   8.807 -0.4272  0.0203 -0.4870
   19SAPC  H15X 2537   6.118   2.475   8.785 -0.1132 -0.3059  1.4146
   19SAPC  H15Y 2538   6.170   2.657   8.789 -2.1375  1.7707 -0.6746
   19SAPC  C316 2539   5.982   2.619   8.718  0.1122 -0.4900 -0.4822
   19SAPC  H16X 2540   5.944   2.723   8.731  0.8393 -0.4747  1.5777
   19SAPC  H16Y 2541   5.900   2.548   8.740  0.0040 -0.0917  0.4178
   19SAPC  C317 2542   6.013   2.596   8.571 -0.5557  0.1906 -0.1677
   19SAPC  H17X 2543   6.061   2.497   8.554 -1.4100 -0.0708 -1.0853
   19SAPC  H17Y 2544   6.094   2.669   8.553 -0.0820 -0.6506 -1.4711
   19SAPC  C318 2545   5.894   2.619   8.472 -0.5013  0.0715 -0.4405
   19SAPC  H18X 2546   5.872   2.727   8.485  0.5198  0.0004  2.2492
   19SAPC  H18Y 2547   5.808   2.555   8.500  1.9757 -2.4601  1.7206
   19SAPC  H18Z 2548   5.919   2.600   8.366 -2.0827  1.6410 -1.1034
   20SAPC     N 2549   6.480   6.021  11.078  0.3048 -0.2884 -0.5631
   20SAPC   C12 2550   6.453   6.077  10.938 -0.2230 -0.0464 -0.6598
   20SAPC  H12A 2551   6.544   6.053  10.885 -0.1159  0.7974 -0.8599
   20SAPC  H12B 2552   6.450   6.185  10.948  2.7141  0.3119 -3.0957
   20SAPC   C13 2553   6.374   6.074  11.177  0.1485 -0.5021 -0.8992
   20SAPC  H13A 2554   6.393   6.033  11.275  1.7867  0.8799 -0.6195
   20SAPC  H13B 2555   6.371   6.182  11.179  2.2131 -0.4393  0.6714
   20SAPC  H13C 2556   6.280   6.035  11.143 -0.3990  0.4754 -0.5555
   20SAPC   C14 2557   6.486   5.869  11.082  0.3945  0.1675  0.5156
   20SAPC  H14A 2558   6.502   5.845  11.186  1.5371  3.0315  1.0454
   20SAPC  H14B 2559   6.395   5.815  11.057  0.9955 -1.8956  2.6081
   20SAPC  H14C 2560   6.561   5.828  11.016 -0.9907  0.2131 -1.1229
   20SAPC   C15 2561   6.607   6.077  11.124 -0.2336  0.1635 -0.0252
   20SAPC  H15A 2562   6.634   6.049  11.224 -0.3915 -2.1577 -0.6020
   20SAPC  H15B 2563   6.686   6.034  11.064 -0.4835  0.2974 -0.4510
   20SAPC  H15C 2564   6.618   6.184  11.114 -1.8083  0.5496  1.9065
   20SAPC   C11 2565   6.334   6.017  10.856 -0.1740  0.0760 -0.1018
   20SAPC  H11A 2566   6.361   5.910  10.856  0.7554  0.3043 -0.5956
   20SAPC  H11B 2567   6.334   6.049  10.750 -0.4065  1.5247  0.3236
   20SAPC     P 2568   6.131   6.177  10.884 -0.0317 -0.2796 -0.1858
   20SAPC   O13 2569   6.058   6.216  11.005  0.0648 -0.0172 -0.9357
   20SAPC   O14 2570   6.233   6.268  10.830  0.2630 -0.2482 -0.4717
   20SAPC   O12 2571   6.207   6.038  10.917  0.1232 -0.7841 -0.4628
   20SAPC   O11 2572   6.036   6.138  10.766  0.2876  0.1667 -0.6522
   20SAPC    C1 2573   6.007   6.004  10.731 -0.3677 -0.0803  0.3310
   20SAPC    HA 2574   6.065   5.927  10.787 -0.7486 -0.7326 -0.1561
   20SAPC    HB 2575   5.902   5.972  10.748  0.6363 -3.3551  0.7065
   20SAPC    C2 2576   6.035   5.984  10.581  0.4345  0.3796  0.4484
   20SAPC    HS 2577   6.144   5.989  10.560  0.3309  0.1144 -0.1462
   20SAPC   O21 2578   5.950   6.060  10.497 -0.4275 -0.1163  0.7663
   20SAPC   C21 2579   6.019   6.144  10.424 -0.4674  0.0866 -0.0816
   20SAPC   O22 2580   6.134   6.184  10.447 -0.0529  0.4388 -0.1718
   20SAPC   C22 2581   5.935   6.203  10.308  0.4843 -1.1317  0.1019
   20SAPC   H2R 2582   5.932   6.127  10.227 -0.0635  0.4736 -1.4222
   20SAPC   H2S 2583   5.829   6.213  10.341  0.6448  0.6354  0.1300
   20SAPC    C3 2584   6.009   5.833  10.551 -0.1326  0.9090 -0.3848
   20SAPC    HX 2585   5.902   5.812  10.573 -0.0081  0.3998 -0.2432
   20SAPC    HY 2586   6.078   5.774  10.616 -0.7337 -1.5734 -1.9272
   20SAPC   O31 2587   6.052   5.785  10.419  0.0676 -0.2849 -0.0070
   20SAPC   C31 2588   5.956   5.760  10.326 -0.9907 -0.1634  0.1283
   20SAPC   O32 2589   5.848   5.808  10.327  0.3570 -0.5293  0.2238
   20SAPC   C32 2590   6.012   5.686  10.200  0.5910  0.8593 -0.3566
   20SAPC   H2X 2591   5.921   5.633  10.165  0.7097  0.1285  0.4125
   20SAPC   H2Y 2592   6.093   5.615  10.225 -0.0932  0.3044  0.3305
   20SAPC   C23 2593   5.997   6.327  10.244  0.2895  0.4773  0.3486
   20SAPC   H3R 2594   6.105   6.314  10.220  0.1866 -1.1338  0.7410
   20SAPC   H3S 2595   5.985   6.413  10.314  3.1667  0.1469  1.3364
   20SAPC   C24 2596   5.924   6.371  10.115 -0.1076 -0.5268  0.6345
   20SAPC   H4R 2597   5.936   6.290  10.040 -0.0604 -0.2589  0.3517
   20SAPC   H4S 2598   5.958   6.472  10.085  0.5356 -0.1457  2.5245
   20SAPC   C25 2599   5.771   6.380  10.125 -0.6327 -0.7923  0.2799
   20SAPC   H5R 2600   5.716   6.289  10.152  0.3093 -0.9698  1.6585
   20SAPC   C26 2601   5.696   6.486  10.095  0.0318  0.7837 -0.7878
   20SAPC   H6R 2602   5.589   6.476  10.119  0.3112  0.1984  0.2179
   20SAPC   C27 2603   5.738   6.623  10.050  0.0308  0.4091 -0.2407
   20SAPC   H7R 2604   5.831   6.624   9.990  0.3181 -0.2217  0.1916
   20SAPC   H7S 2605   5.759   6.673  10.147 -0.2860  0.2400 -0.0838
   20SAPC   C28 2606   5.633   6.696   9.985  0.1826  0.2088  0.9147
   20SAPC   H8R 2607   5.554   6.731  10.054 -1.4272 -0.1921 -0.6944
   20SAPC   C29 2608   5.637   6.734   9.855  0.0072  0.5561 -0.1909
   20SAPC   H9R 2609   5.550   6.791   9.819 -1.8687  0.3998  3.8275
   20SAPC  C210 2610   5.745   6.705   9.754 -0.3681 -0.0005  0.0963
   20SAPC  H10R 2611   5.836   6.659   9.799 -0.0685  1.0099  0.5341
   20SAPC  H10S 2612   5.788   6.804   9.727 -2.0051  0.8497  0.5589
   20SAPC  C211 2613   5.684   6.628   9.647  0.4694 -0.5317  0.3135
   20SAPC  H11R 2614   5.638   6.533   9.678  0.8414 -0.2386  1.7689
   20SAPC  C212 2615   5.700   6.654   9.511  1.0382  0.1097  0.6076
   20SAPC  H12R 2616   5.653   6.594   9.432 -0.4083  2.2720 -0.2139
   20SAPC  C213 2617   5.765   6.776   9.456  0.0080  0.5601  0.2763
   20SAPC  H13R 2618   5.872   6.785   9.485 -0.2649  1.2872  1.0777
   20SAPC  H13S 2619   5.705   6.859   9.499  3.2344  2.7103  0.8407
   20SAPC  C214 2620   5.770   6.769   9.306 -0.2445 -0.6117 -0.1954
   20SAPC  H14R 2621   5.682   6.798   9.249  1.0732  2.0315 -0.9787
   20SAPC  C215 2622   5.883   6.736   9.236  0.2505 -0.5871  0.1801
   20SAPC  H15R 2623   5.878   6.728   9.127 -0.0459 -1.4432  0.2508
   20SAPC  C216 2624   6.014   6.687   9.291  0.2359  0.4480 -0.5169
   20SAPC  H16R 2625   5.992   6.586   9.332 -0.9507  0.3821 -1.2830
   20SAPC  H16S 2626   6.053   6.757   9.367  1.8599 -1.6580  0.6602
   20SAPC  C217 2627   6.112   6.639   9.183  0.3956  0.0353 -0.7199
   20SAPC  H17R 2628   6.061   6.564   9.119  0.8022 -1.2647  0.4445
   20SAPC  H17S 2629   6.196   6.594   9.240  0.0196  1.3301  0.9100
   20SAPC  C218 2630   6.176   6.749   9.095 -0.0459  0.7289  0.7003
   20SAPC  H18R 2631   6.105   6.793   9.022  0.6569  2.3939  0.9884
   20SAPC  H18S 2632   6.260   6.702   9.038 -0.1980  0.4207  0.7315
   20SAPC  C219 2633   6.225   6.861   9.187 -0.0445  0.1902 -0.6987
   20SAPC  H19R 2634   6.280   6.809   9.269  0.8461  1.5601 -0.3999
   20SAPC  H19S 2635   6.142   6.913   9.239 -1.1372 -0.9011 -1.3472
   20SAPC  C220 2636   6.319   6.956   9.116  0.2114  0.3806 -0.6063
   20SAPC  H20R 2637   6.405   6.895   9.080  0.5601  0.3255  0.3088
   20SAPC  H20S 2638   6.341   7.043   9.181  1.9062 -0.8203  0.4693
   20SAPC  H20T 2639   6.266   6.998   9.027 -1.1485 -0.6629 -0.3082
   20SAPC   C33 2640   6.048   5.780  10.080  0.1200 -0.6064 -0.0894
   20SAPC   H3X 2641   6.104   5.724  10.002  0.1148  0.1179 -0.6172
   20SAPC   H3Y 2642   6.106   5.870  10.110 -2.6355  1.4500 -0.7197
   20SAPC   C34 2643   5.930   5.853  10.028  0.7626  0.4412  0.2743
   20SAPC   H4X 2644   5.861   5.887  10.109  0.1230 -0.6777  0.2162
   20SAPC   H4Y 2645   5.859   5.780   9.984 -0.0591  1.3143  0.1307
   20SAPC   C35 2646   5.943   5.967   9.934  0.2786 -0.6427  0.5537
   20SAPC   H5X 2647   5.991   6.055   9.982 -0.5556  0.0509  0.1393
   20SAPC   H5Y 2648   5.836   5.997   9.922  0.8725  1.6300  0.6136
   20SAPC   C36 2649   5.987   5.939   9.794  0.5339 -0.1740 -0.1295
   20SAPC   H6X 2650   6.088   5.891   9.800  0.1797 -0.9748 -0.4617
   20SAPC   H6Y 2651   6.007   6.031   9.735  1.0120 -0.2951 -0.1618
   20SAPC   C37 2652   5.895   5.855   9.713  0.0856  0.3322 -0.2794
   20SAPC   H7X 2653   5.790   5.891   9.709 -0.4244 -1.3414 -2.8692
   20SAPC   H7Y 2654   5.883   5.755   9.759  2.2142  0.8261  1.4753
   20SAPC   C38 2655   5.952   5.837   9.571  0.2420  0.1830  0.4281
   20SAPC   H8X 2656   6.032   5.760   9.577 -0.5608 -0.9260 -2.4374
   20SAPC   H8Y 2657   5.990   5.936   9.539 -0.0422  0.0926 -0.1853
   20SAPC   C39 2658   5.859   5.785   9.463 -0.3764  0.6875 -0.2132
   20SAPC   H9X 2659   5.778   5.861   9.456 -0.5246  0.6378  0.8818
   20SAPC   H9Y 2660   5.829   5.682   9.491  1.5729 -0.0206 -0.6728
   20SAPC  C310 2661   5.925   5.772   9.329  0.1703 -0.0718 -0.3077
   20SAPC  H10X 2662   6.003   5.693   9.341 -1.7975 -2.0046  0.1374
   20SAPC  H10Y 2663   5.965   5.872   9.301 -1.5024  0.8737  0.6341
   20SAPC  C311 2664   5.825   5.727   9.224  0.1413 -0.3956 -0.7211
   20SAPC  H11X 2665   5.782   5.824   9.193  0.3401 -0.2795 -0.6318
   20SAPC  H11Y 2666   5.731   5.680   9.261  0.7711  0.7392  2.4988
   20SAPC  C312 2667   5.891   5.638   9.118  0.3141 -0.6018  1.2043
   20SAPC  H12X 2668   5.812   5.583   9.062 -0.1028  2.0747 -0.9578
   20SAPC  H12Y 2669   5.952   5.559   9.165 -1.6814 -0.7202  3.7430
   20SAPC  C313 2670   5.967   5.714   9.013 -0.2486  0.3434 -0.1529
   20SAPC  H13X 2671   6.016   5.636   8.950 -1.9855  0.4597 -1.6671
   20SAPC  H13Y 2672   6.041   5.786   9.054  0.4179 -0.5183  0.1734
   20SAPC  C314 2673   5.870   5.796   8.927  0.7464  0.1845 -0.2822
   20SAPC  H14X 2674   5.827   5.874   8.993 -0.3085 -0.7015  0.0876
   20SAPC  H14Y 2675   5.788   5.741   8.878  1.6303  0.2013 -1.8201
   20SAPC  C315 2676   5.949   5.866   8.815  0.3539 -0.3524 -0.4581
   20SAPC  H15X 2677   6.009   5.795   8.754 -2.1461 -3.4759  0.6017
   20SAPC  H15Y 2678   6.015   5.943   8.860 -1.7399  0.4440  1.3414
   20SAPC  C316 2679   5.854   5.935   8.719  0.3381 -0.7331  0.0218
   20SAPC  H16X 2680   5.796   6.006   8.782 -0.6153 -0.9852 -0.5727
   20SAPC  H16Y 2681   5.779   5.866   8.676  0.5564 -0.8818 -0.1207
   20SAPC  C317 2682   5.920   6.010   8.605 -0.0944  0.6158  0.3407
   20SAPC  H17X 2683   5.954   5.939   8.527 -0.6427 -2.3224  2.6704
   20SAPC  H17Y 2684   6.007   6.064   8.648  1.1316 -1.4715  0.5412
   20SAPC  C318 2685   5.808   6.101   8.539 -0.2145 -0.4469  0.1285
   20SAPC  H18X 2686   5.850   6.145   8.446  1.0266 -0.1959  0.8031
   20SAPC  H18Y 2687   5.782   6.176   8.616 -1.2101 -2.6973  2.0402
   20SAPC  H18Z 2688   5.718   6.041   8.512 -0.8083  0.7999 -0.6870
   21SAPC     N 2689   5.262   5.510  10.718  0.4162 -0.0918  0.4811
   21SAPC   C12 2690   5.381   5.516  10.627 -0.1385  0.0801  0.2900
   21SAPC  H12A 2691   5.469   5.566  10.664  1.2814 -2.4053  0.4402
   21SAPC  H12B 2692   5.363   5.574  10.538 -0.0198 -3.1943 -1.9600
   21SAPC   C13 2693   5.214   5.651  10.751 -0.1585 -0.0961  0.4907
   21SAPC  H13A 2694   5.130   5.659  10.818  0.3739 -0.2289  1.1783
   21SAPC  H13B 2695   5.286   5.706  10.810  0.2747  0.4440 -0.5245
   21SAPC  H13C 2696   5.207   5.710  10.661  1.1266 -0.3021  0.2408
   21SAPC   C14 2697   5.151   5.452  10.642 -0.1005 -0.0252 -0.3519
   21SAPC  H14A 2698   5.181   5.356  10.601 -0.3006 -0.0659 -0.4029
   21SAPC  H14B 2699   5.061   5.444  10.701  0.2760  1.2474  0.4160
   21SAPC  H14C 2700   5.125   5.512  10.557  0.2974 -0.5896 -0.8798
   21SAPC   C15 2701   5.292   5.433  10.839 -1.0797 -0.2973  0.6857
   21SAPC  H15A 2702   5.306   5.333  10.803  2.3185  1.0512 -2.0115
   21SAPC  H15B 2703   5.386   5.465  10.883 -0.7951 -0.6500  0.3385
   21SAPC  H15C 2704   5.219   5.447  10.918 -2.2998  0.8633 -0.6330
   21SAPC   C11 2705   5.417   5.378  10.568  0.5665 -0.4507  0.0104
   21SAPC  H11A 2706   5.486   5.397  10.483 -0.9491  1.1597 -0.8919
   21SAPC  H11B 2707   5.333   5.323  10.519  0.2154 -1.6378  1.9035
   21SAPC     P 2708   5.623   5.289  10.696  0.1872 -0.1028 -0.1125
   21SAPC   O13 2709   5.652   5.400  10.793 -0.2739  0.0792  0.3602
   21SAPC   O14 2710   5.655   5.158  10.741  0.3017 -0.2071  0.4878
   21SAPC   O12 2711   5.470   5.288  10.664 -0.1554  0.6527  0.1574
   21SAPC   O11 2712   5.689   5.309  10.557 -0.1407  0.0101 -0.5452
   21SAPC    C1 2713   5.674   5.208  10.457  0.1490 -0.3834  0.9917
   21SAPC    HA 2714   5.761   5.139  10.466 -0.3915 -1.2016  0.1041
   21SAPC    HB 2715   5.578   5.152  10.454 -0.4318  0.5929  1.1451
   21SAPC    C2 2716   5.686   5.277  10.321 -0.0878 -0.6396 -0.3693
   21SAPC    HS 2717   5.778   5.338  10.321 -1.9545  2.3302  2.0394
   21SAPC   O21 2718   5.569   5.356  10.303  0.1546 -0.1643  0.0710
   21SAPC   C21 2719   5.593   5.465  10.233 -0.4136  0.2647  0.2434
   21SAPC   O22 2720   5.701   5.517  10.209  0.8499  0.1962 -0.1627
   21SAPC   C22 2721   5.459   5.519  10.179  0.4538 -0.0434  1.0762
   21SAPC   H2R 2722   5.418   5.443  10.109  0.2823  0.5380  0.5408
   21SAPC   H2S 2723   5.397   5.533  10.270 -1.0694  2.2823 -0.2480
   21SAPC    C3 2724   5.703   5.182  10.198  0.9005  0.0416  0.1047
   21SAPC    HX 2725   5.599   5.146  10.191  1.1885 -0.9066  0.6411
   21SAPC    HY 2726   5.768   5.097  10.228  1.0732  0.1175 -0.0489
   21SAPC   O31 2727   5.750   5.251  10.083 -0.5169  0.1045  0.0842
   21SAPC   C31 2728   5.882   5.281  10.067 -0.1023 -0.4167 -0.2440
   21SAPC   O32 2729   5.963   5.246  10.149 -0.0250  0.0458 -0.4936
   21SAPC   C32 2730   5.905   5.365   9.953  0.4101  0.4807 -0.4276
   21SAPC   H2X 2731   5.899   5.471   9.986  3.6254  0.8522 -0.9476
   21SAPC   H2Y 2732   5.821   5.352   9.880 -0.9034  2.0778  0.7548
   21SAPC   C23 2733   5.474   5.656  10.097  0.0243  0.0252 -0.7471
   21SAPC   H3R 2734   5.561   5.712  10.137 -0.4675  0.3855 -0.1809
   21SAPC   H3S 2735   5.391   5.727  10.113 -0.0258 -0.6225  2.1667
   21SAPC   C24 2736   5.477   5.644   9.941 -0.1879 -0.1001  0.3433
   21SAPC   H4R 2737   5.435   5.730   9.885 -0.3808  0.2529  1.0278
   21SAPC   H4S 2738   5.414   5.558   9.908  3.6653 -2.5593 -0.8661
   21SAPC   C25 2739   5.617   5.627   9.899 -0.4202  0.3358 -0.2101
   21SAPC   H5R 2740   5.687   5.694   9.952 -0.1766 -0.4536  0.4561
   21SAPC   C26 2741   5.665   5.555   9.795 -0.7303  0.7469  0.9410
   21SAPC   H6R 2742   5.775   5.556   9.786 -0.8342  1.0966 -0.3101
   21SAPC   C27 2743   5.572   5.467   9.713  0.1553  0.2018 -0.1273
   21SAPC   H7R 2744   5.589   5.482   9.604 -0.3070 -1.8571 -0.5168
   21SAPC   H7S 2745   5.469   5.503   9.733 -0.0511 -1.1355  1.3097
   21SAPC   C28 2746   5.586   5.325   9.764 -0.1161 -0.3480 -0.2012
   21SAPC   H8R 2747   5.635   5.314   9.863  0.1004 -1.7184 -0.4465
   21SAPC   C29 2748   5.542   5.220   9.691 -1.0000 -0.2127 -0.1209
   21SAPC   H9R 2749   5.571   5.122   9.732 -0.0257  0.6640  1.3620
   21SAPC  C210 2750   5.479   5.218   9.552 -0.0813 -0.0573 -0.7566
   21SAPC  H10R 2751   5.478   5.320   9.507  0.4590 -0.3881 -1.5421
   21SAPC  H10S 2752   5.372   5.197   9.573  0.3405 -0.9165  0.6256
   21SAPC  C211 2753   5.521   5.105   9.464  0.2060 -0.1952  0.3288
   21SAPC  H11R 2754   5.521   5.004   9.507  2.3256 -1.1492 -1.8247
   21SAPC  C212 2755   5.553   5.122   9.333  0.8969 -0.4665 -0.2950
   21SAPC  H12R 2756   5.568   5.036   9.268 -1.7492 -1.3491  0.2129
   21SAPC  C213 2757   5.563   5.258   9.262  0.0013  0.1189 -0.3340
   21SAPC  H13R 2758   5.613   5.249   9.163 -2.2138 -1.0739 -1.3860
   21SAPC  H13S 2759   5.615   5.333   9.325 -0.1116  0.1725 -0.3044
   21SAPC  C214 2760   5.424   5.313   9.228 -1.3272  0.0577 -1.1656
   21SAPC  H14R 2761   5.348   5.276   9.299 -1.5293 -0.0737 -1.4519
   21SAPC  C215 2762   5.377   5.384   9.124 -0.0445  0.3715 -0.8477
   21SAPC  H15R 2763   5.272   5.415   9.135  0.8745  2.9387  1.3188
   21SAPC  C216 2764   5.453   5.444   9.011  0.1988 -0.1815 -0.0878
   21SAPC  H16R 2765   5.558   5.478   9.024 -0.1405  1.0031 -0.3583
   21SAPC  H16S 2766   5.407   5.540   8.980  0.2015 -0.1988 -0.1440
   21SAPC  C217 2767   5.441   5.361   8.871 -0.2593  0.1061  0.4962
   21SAPC  H17R 2768   5.509   5.274   8.862 -0.0159 -0.0886  3.6820
   21SAPC  H17S 2769   5.470   5.429   8.788 -2.0280 -0.3867 -0.5632
   21SAPC  C218 2770   5.296   5.315   8.834 -0.1449 -0.5950 -0.6306
   21SAPC  H18R 2771   5.228   5.402   8.840 -0.3421 -0.8624  1.7396
   21SAPC  H18S 2772   5.244   5.245   8.902  1.3721 -0.9870  0.1526
   21SAPC  C219 2773   5.288   5.250   8.692 -0.1307 -0.1308 -0.3112
   21SAPC  H19R 2774   5.339   5.152   8.690  1.9953  0.8784  1.9164
   21SAPC  H19S 2775   5.344   5.311   8.618 -0.5246  3.0485  1.8943
   21SAPC  C220 2776   5.142   5.226   8.654  0.3311 -0.9216  0.5282
   21SAPC  H20R 2777   5.097   5.327   8.657 -0.8612 -1.4600  1.0679
   21SAPC  H20S 2778   5.087   5.160   8.725 -0.7417  0.6329  1.1637
   21SAPC  H20T 2779   5.136   5.187   8.551  2.4087 -1.4497  0.5716
   21SAPC   C33 2780   6.038   5.344   9.880 -0.4233  0.0713  1.6212
   21SAPC   H3X 2781   6.060   5.236   9.867  2.1627  0.9141 -1.8298
   21SAPC   H3Y 2782   6.115   5.383   9.951  1.0871  1.9878 -0.9689
   21SAPC   C34 2783   6.041   5.408   9.738 -0.7582 -0.8263 -0.5584
   21SAPC   H4X 2784   6.147   5.436   9.721 -0.4505 -1.2820  0.5645
   21SAPC   H4Y 2785   5.991   5.507   9.733  2.1153  0.6969  0.2252
   21SAPC   C35 2786   5.984   5.312   9.637 -0.0450  0.4784  0.4147
   21SAPC   H5X 2787   5.875   5.297   9.654 -0.0867  1.5217  1.0560
   21SAPC   H5Y 2788   6.036   5.215   9.656  1.6925  1.7117  2.1821
   21SAPC   C36 2789   5.984   5.356   9.493 -0.7962  0.4093  0.4814
   21SAPC   H6X 2790   6.085   5.401   9.481 -1.5951  1.5708 -2.3561
   21SAPC   H6Y 2791   5.909   5.437   9.489 -3.6483 -1.9924  3.3664
   21SAPC   C37 2792   5.940   5.252   9.394  0.2547 -0.0940 -0.1595
   21SAPC   H7X 2793   5.832   5.246   9.418  0.2214 -1.1312 -0.5514
   21SAPC   H7Y 2794   5.989   5.154   9.413  2.5861  0.7683 -1.5782
   21SAPC   C38 2795   5.963   5.300   9.251  0.4775  0.9524  0.6046
   21SAPC   H8X 2796   6.063   5.349   9.246  1.0685 -0.2334  0.6296
   21SAPC   H8Y 2797   5.875   5.362   9.225 -2.3229 -1.5974  3.4207
   21SAPC   C39 2798   5.958   5.193   9.143 -0.0841  0.1473 -0.6233
   21SAPC   H9X 2799   5.860   5.144   9.163 -0.6354 -0.2197 -3.9722
   21SAPC   H9Y 2800   6.028   5.109   9.163 -0.8291 -0.4166 -0.3684
   21SAPC  C310 2801   5.965   5.255   9.001 -0.2254  0.3026  0.0390
   21SAPC  H10X 2802   6.062   5.309   8.999  1.8124 -3.2073  0.1230
   21SAPC  H10Y 2803   5.888   5.335   8.990 -0.8551 -0.3245 -0.2285
   21SAPC  C311 2804   5.959   5.156   8.881 -0.5569 -0.0781 -0.1094
   21SAPC  H11X 2805   5.891   5.075   8.917 -1.2305  0.3060 -0.5084
   21SAPC  H11Y 2806   6.063   5.123   8.860 -0.6512  0.1132 -0.9098
   21SAPC  C312 2807   5.885   5.208   8.760  0.1424 -0.1690 -0.1379
   21SAPC  H12X 2808   5.789   5.255   8.791  0.7681  0.3584  1.0228
   21SAPC  H12Y 2809   5.863   5.118   8.698  0.2701 -0.2369 -0.0825
   21SAPC  C313 2810   5.968   5.308   8.675 -0.1578  0.1523 -0.0490
   21SAPC  H13X 2811   6.065   5.265   8.639  0.0461  0.9569 -0.4767
   21SAPC  H13Y 2812   5.979   5.406   8.727 -0.1104  0.5129 -0.7246
   21SAPC  C314 2813   5.902   5.337   8.539  0.3018 -0.1581  0.5812
   21SAPC  H14X 2814   5.887   5.246   8.478  1.3457  0.4753 -0.6585
   21SAPC  H14Y 2815   5.962   5.407   8.476  2.3591 -1.1999  1.3264
   21SAPC  C315 2816   5.770   5.405   8.553 -0.2382 -0.1340 -0.1269
   21SAPC  H15X 2817   5.775   5.487   8.628  1.5393  0.8316 -1.2617
   21SAPC  H15Y 2818   5.704   5.325   8.593  0.9968 -1.4403 -0.6210
   21SAPC  C316 2819   5.713   5.456   8.419  0.0742  0.0228 -1.0587
   21SAPC  H16X 2820   5.609   5.490   8.440  0.3290 -1.2832  2.6371
   21SAPC  H16Y 2821   5.697   5.359   8.368  2.7596 -0.4916 -0.9500
   21SAPC  C317 2822   5.798   5.561   8.335 -0.9724 -0.1071 -0.0047
   21SAPC  H17X 2823   5.759   5.566   8.231  2.0424 -0.5628 -1.1935
   21SAPC  H17Y 2824   5.902   5.526   8.324 -0.7028  0.7382 -0.2055
   21SAPC  C318 2825   5.793   5.702   8.395  0.5215 -0.1445  0.5892
   21SAPC  H18X 2826   5.841   5.717   8.494 -0.8546 -0.6570  1.3329
   21SAPC  H18Y 2827   5.691   5.744   8.403 -0.0292 -0.7726 -2.4711
   21SAPC  H18Z 2828   5.848   5.761   8.318 -0.8768  2.4178  1.5056
   22SAPC     N 2829   5.598   3.149  11.295  0.3422  0.5153 -0.5691
   22SAPC   C12 2830   5.477   3.104  11.210 -0.1914  0.3918 -0.8380
   22SAPC  H12A 2831   5.394   3.096  11.279 -0.5476 -1.8404 -1.4687
   22SAPC  H12B 2832   5.495   3.005  11.169  2.0286 -0.8363  2.8670
   22SAPC   C13 2833   5.602   3.057  11.417 -0.0403  0.0650  0.8793
   22SAPC  H13A 2834   5.698   3.062  11.466  1.0811 -2.2769 -0.9625
   22SAPC  H13B 2835   5.512   3.071  11.475 -0.8846 -0.9885 -0.1641
   22SAPC  H13C 2836   5.593   2.952  11.391  2.4167  0.8155 -3.5943
   22SAPC   C14 2837   5.727   3.139  11.224  0.8005 -0.2007 -1.0286
   22SAPC  H14A 2838   5.710   3.192  11.131  0.6613  1.4030 -0.1091
   22SAPC  H14B 2839   5.809   3.177  11.283 -1.7196  0.3804  2.2321
   22SAPC  H14C 2840   5.741   3.037  11.194 -2.1610 -0.8028 -0.5784
   22SAPC   C15 2841   5.576   3.290  11.348  0.3757 -0.3164 -1.3179
   22SAPC  H15A 2842   5.664   3.327  11.399  1.2559 -1.8842 -1.6612
   22SAPC  H15B 2843   5.563   3.358  11.266 -2.0463  1.3505  0.3763
   22SAPC  H15C 2844   5.495   3.295  11.419  0.7526 -1.8859 -0.7493
   22SAPC   C11 2845   5.425   3.203  11.097 -0.3223 -0.5291 -0.8898
   22SAPC  H11A 2846   5.409   3.297  11.155 -2.6575 -2.2259  1.2920
   22SAPC  H11B 2847   5.327   3.181  11.051 -0.2726 -0.0869 -1.2088
   22SAPC     P 2848   5.500   3.164  10.844  0.0216  0.0596  0.0037
   22SAPC   O13 2849   5.629   3.171  10.766  0.3800  0.1085  0.4453
   22SAPC   O14 2850   5.429   3.037  10.837 -0.0665  0.1629  0.1299
   22SAPC   O12 2851   5.527   3.207  10.993 -0.3431  0.3362 -0.3378
   22SAPC   O11 2852   5.400   3.287  10.801 -0.2216  0.1296 -0.7398
   22SAPC    C1 2853   5.345   3.292  10.670 -0.5548 -0.1853  0.1914
   22SAPC    HA 2854   5.336   3.188  10.631 -2.7252  1.2188 -3.3312
   22SAPC    HB 2855   5.245   3.339  10.670 -0.2169  0.5282  1.2385
   22SAPC    C2 2856   5.442   3.366  10.565  0.0117  0.1668 -0.3356
   22SAPC    HS 2857   5.536   3.308  10.571  0.1435  0.1074 -2.3624
   22SAPC   O21 2858   5.451   3.505  10.601  0.2435 -0.0191 -0.6695
   22SAPC   C21 2859   5.569   3.558  10.559 -0.2727 -0.2490 -0.4025
   22SAPC   O22 2860   5.661   3.492  10.527  0.3153  0.1199 -0.0982
   22SAPC   C22 2861   5.564   3.711  10.545 -0.5148 -0.3509 -0.0800
   22SAPC   H2R 2862   5.464   3.747  10.578  0.4796  2.2557  0.1631
   22SAPC   H2S 2863   5.648   3.751  10.606 -0.3904 -1.7565  0.6991
   22SAPC    C3 2864   5.391   3.344  10.422 -0.4773 -0.6709  0.3372
   22SAPC    HX 2865   5.286   3.380  10.418 -1.4419 -3.1090  2.1331
   22SAPC    HY 2866   5.370   3.240  10.388 -0.9296  0.2406 -2.2759
   22SAPC   O31 2867   5.477   3.414  10.318 -0.3710 -0.2961 -0.1478
   22SAPC   C31 2868   5.586   3.340  10.291 -0.2506 -0.0803  0.1053
   22SAPC   O32 2869   5.628   3.241  10.348  0.2526  0.1046  0.3861
   22SAPC   C32 2870   5.664   3.400  10.176 -0.5902  0.2062  0.2752
   22SAPC   H2X 2871   5.705   3.496  10.213 -0.6006 -0.5455  2.3292
   22SAPC   H2Y 2872   5.588   3.421  10.097  0.2169 -0.2845 -0.6330
   22SAPC   C23 2873   5.604   3.770  10.407  0.1320 -0.1194  0.0304
   22SAPC   H3R 2874   5.527   3.720  10.343 -0.2249  1.5206 -0.8447
   22SAPC   H3S 2875   5.710   3.747  10.382  0.0708 -1.2525  0.7664
   22SAPC   C24 2876   5.577   3.928  10.402 -0.9005  0.1463 -0.5633
   22SAPC   H4R 2877   5.635   3.969  10.317  0.6343  0.3250  0.5566
   22SAPC   H4S 2878   5.628   3.966  10.492 -1.8620 -4.3717  2.0634
   22SAPC   C25 2879   5.437   3.982  10.407  0.1217  0.3943  0.1372
   22SAPC   H5R 2880   5.396   3.981  10.509 -0.3482  2.2362 -0.0146
   22SAPC   C26 2881   5.361   4.034  10.309 -0.0482 -0.6055 -0.0205
   22SAPC   H6R 2882   5.261   4.075  10.327  0.3936  1.3676 -1.8628
   22SAPC   C27 2883   5.392   4.034  10.161  0.2243 -0.1929  0.0920
   22SAPC   H7R 2884   5.500   4.044  10.137  0.1530 -1.3014 -0.6993
   22SAPC   H7S 2885   5.343   4.122  10.115 -0.0828  0.4429  1.5919
   22SAPC   C28 2886   5.345   3.909  10.102 -0.3185  0.0119 -0.1071
   22SAPC   H8R 2887   5.327   3.828  10.175 -2.9375  0.5082 -0.1486
   22SAPC   C29 2888   5.317   3.889   9.972  0.5051  0.0468  0.5702
   22SAPC   H9R 2889   5.288   3.792   9.929 -1.9353  0.2037  1.8322
   22SAPC  C210 2890   5.321   3.994   9.867 -0.4741  0.1550 -0.3956
   22SAPC  H10R 2891   5.288   4.091   9.910  1.1081  0.8011 -0.6061
   22SAPC  H10S 2892   5.239   3.965   9.798 -0.8978 -2.3600  1.0797
   22SAPC  C211 2893   5.460   3.998   9.806  0.1333 -0.3039  0.4286
   22SAPC  H11R 2894   5.534   4.054   9.865 -0.2052  2.2229 -1.4492
   22SAPC  C212 2895   5.488   3.966   9.676  0.5987 -0.1366 -0.0203
   22SAPC  H12R 2896   5.597   3.971   9.658  1.0258 -0.0757  2.3961
   22SAPC  C213 2897   5.405   3.910   9.567 -0.4555  0.0567  0.0899
   22SAPC  H13R 2898   5.348   3.818   9.588  0.7418 -0.3496  1.6283
   22SAPC  H13S 2899   5.474   3.878   9.485  3.2267  1.5203  2.4907
   22SAPC  C214 2900   5.318   4.016   9.507  0.7471 -0.1279 -0.1940
   22SAPC  H14R 2901   5.329   4.123   9.529 -1.8307  0.3824 -1.2041
   22SAPC  C215 2902   5.217   3.989   9.414 -0.0110 -0.0689  0.3660
   22SAPC  H15R 2903   5.151   4.067   9.372  2.0898  1.1662 -0.7179
   22SAPC  C216 2904   5.169   3.848   9.375  0.4790  0.9624  0.2744
   22SAPC  H16R 2905   5.061   3.844   9.402  0.9950  0.1294  2.3646
   22SAPC  H16S 2906   5.220   3.761   9.421 -0.0644 -0.0156 -0.9478
   22SAPC  C217 2907   5.179   3.831   9.228 -0.2237  0.0532 -0.0508
   22SAPC  H17R 2908   5.157   3.928   9.178  1.1560 -0.0060 -0.8138
   22SAPC  H17S 2909   5.106   3.750   9.208  0.7174 -0.9347  0.4118
   22SAPC  C218 2910   5.322   3.796   9.174  0.5042  0.3351 -0.0971
   22SAPC  H18R 2911   5.374   3.722   9.239  1.0394  0.7756 -0.0209
   22SAPC  H18S 2912   5.376   3.893   9.183  2.4899 -0.8721  1.5772
   22SAPC  C219 2913   5.332   3.765   9.031  0.4758  0.0965 -0.0339
   22SAPC  H19R 2914   5.326   3.850   8.959 -0.3793 -1.5006 -1.9055
   22SAPC  H19S 2915   5.257   3.689   9.000 -0.4053  1.4843 -1.4069
   22SAPC  C220 2916   5.470   3.686   9.004 -0.0456 -0.8765 -0.1138
   22SAPC  H20R 2917   5.481   3.687   8.894 -1.4660  2.4549 -0.2737
   22SAPC  H20S 2918   5.456   3.585   9.048 -0.1858 -1.1905 -0.8698
   22SAPC  H20T 2919   5.556   3.742   9.047 -0.6741  0.8369 -1.0205
   22SAPC   C33 2920   5.780   3.307  10.124 -0.1646 -0.0162  0.2432
   22SAPC   H3X 2921   5.837   3.249  10.199  0.5043 -1.8320 -1.6239
   22SAPC   H3Y 2922   5.844   3.364  10.053  0.1051 -0.7579 -0.1076
   22SAPC   C34 2923   5.728   3.191  10.030  0.0220  0.2874  0.4219
   22SAPC   H4X 2924   5.694   3.233   9.933  1.9146  0.2167 -0.2965
   22SAPC   H4Y 2925   5.643   3.144  10.085  0.6146 -2.2357 -0.7439
   22SAPC   C35 2926   5.840   3.087   9.997  0.7076 -0.6127 -0.1516
   22SAPC   H5X 2927   5.853   3.019  10.084  0.4493  1.7110  1.7292
   22SAPC   H5Y 2928   5.942   3.130   9.987  1.4612 -2.4277 -0.4632
   22SAPC   C36 2929   5.795   3.004   9.882  0.4644  0.2746 -0.1885
   22SAPC   H6X 2930   5.792   3.070   9.794  2.2356 -1.7196 -1.8022
   22SAPC   H6Y 2931   5.693   2.964   9.900  0.5814  0.0757  0.0459
   22SAPC   C37 2932   5.893   2.883   9.859  0.5911  0.0077  0.1346
   22SAPC   H7X 2933   5.891   2.816   9.948 -2.5396 -1.7314 -1.1954
   22SAPC   H7Y 2934   5.991   2.931   9.840  0.1218  0.1762 -1.8768
   22SAPC   C38 2935   5.851   2.803   9.735  0.2669  0.4265  0.2706
   22SAPC   H8X 2936   5.773   2.850   9.671  1.6318  0.8391 -1.1247
   22SAPC   H8Y 2937   5.816   2.702   9.765 -1.3607  0.4452 -1.4080
   22SAPC   C39 2938   5.969   2.764   9.649  0.1189 -0.3654  0.4069
   22SAPC   H9X 2939   6.034   2.708   9.719  2.6486  1.7315 -0.1911
   22SAPC   H9Y 2940   6.021   2.856   9.616  0.8554 -0.8649  0.1543
   22SAPC  C310 2941   5.948   2.681   9.523  0.6040  0.0700  0.3652
   22SAPC  H10X 2942   6.041   2.658   9.466 -1.3207 -0.8945 -2.4983
   22SAPC  H10Y 2943   5.884   2.740   9.455  0.3666 -0.1845  0.3675
   22SAPC  C311 2944   5.890   2.543   9.552  0.3347  0.1616  0.0009
   22SAPC  H11X 2945   5.801   2.530   9.616 -0.4305  1.7366 -0.7013
   22SAPC  H11Y 2946   5.974   2.493   9.605  0.1147 -0.6246 -0.3904
   22SAPC  C312 2947   5.868   2.470   9.414  0.5721 -0.3943  0.2715
   22SAPC  H12X 2948   5.853   2.362   9.439  2.2685 -1.0006 -1.1497
   22SAPC  H12Y 2949   5.955   2.477   9.345 -0.6131 -3.3288 -1.6137
   22SAPC  C313 2950   5.736   2.508   9.342 -0.3601  0.7014  0.4545
   22SAPC  H13X 2951   5.748   2.603   9.285 -0.5525  0.6554  0.3348
   22SAPC  H13Y 2952   5.658   2.518   9.421 -0.0096  2.8571  0.5381
   22SAPC  C314 2953   5.697   2.389   9.248 -0.4387 -0.8479 -0.6747
   22SAPC  H14X 2954   5.609   2.423   9.191  1.8193  1.9093 -2.6581
   22SAPC  H14Y 2955   5.661   2.302   9.307 -1.6061 -0.3819 -0.7057
   22SAPC  C315 2956   5.804   2.345   9.145  0.9339 -0.0040  0.1432
   22SAPC  H15X 2957   5.881   2.279   9.190  0.5997 -2.0552 -2.1765
   22SAPC  H15Y 2958   5.858   2.439   9.118  0.1691  0.3259 -0.2577
   22SAPC  C316 2959   5.748   2.278   9.018  0.2418 -0.3032  0.2349
   22SAPC  H16X 2960   5.680   2.348   8.964 -0.3574 -0.4698  0.7762
   22SAPC  H16Y 2961   5.682   2.196   9.052  0.2547 -0.5651 -0.3524
   22SAPC  C317 2962   5.859   2.239   8.913 -0.2446  0.4779  0.9221
   22SAPC  H17X 2963   5.928   2.156   8.941  0.1082 -0.5371 -2.7170
   22SAPC  H17Y 2964   5.927   2.327   8.915  1.5637 -0.8669  0.8688
   22SAPC  C318 2965   5.810   2.223   8.773 -0.2432  0.5693  0.5385
   22SAPC  H18X 2966   5.894   2.223   8.701  0.1046  1.3089  0.9389
   22SAPC  H18Y 2967   5.752   2.311   8.738  0.2689  0.2733 -1.0488
   22SAPC  H18Z 2968   5.757   2.126   8.767 -0.6535  0.8471 -0.3991
   23SAPC     N 2969   0.397   4.498  10.969 -0.1309  0.7393  0.1672
   23SAPC   C12 2970   0.431   4.601  10.862 -0.2768  0.8402  0.1886
   23SAPC  H12A 2971   0.537   4.603  10.842 -0.6526  0.7658 -2.0164
   23SAPC  H12B 2972   0.409   4.699  10.902  1.8521  0.5285  2.1882
   23SAPC   C13 2973   0.498   4.506  11.077  0.1515 -0.0114 -0.7664
   23SAPC  H13A 2974   0.500   4.601  11.128 -2.7037 -0.0721 -0.4660
   23SAPC  H13B 2975   0.493   4.427  11.150  2.2957  0.8241  0.3057
   23SAPC  H13C 2976   0.596   4.486  11.038  0.3510  0.5675 -0.5650
   23SAPC   C14 2977   0.266   4.524  11.040 -0.3362 -0.5909  0.7614
   23SAPC  H14A 2978   0.179   4.494  10.983  0.2487 -0.8851  0.0045
   23SAPC  H14B 2979   0.267   4.461  11.128 -1.1764 -0.8165  0.6187
   23SAPC  H14C 2980   0.260   4.626  11.075  1.3227 -0.1875 -0.0652
   23SAPC   C15 2981   0.390   4.362  10.915  0.8176 -0.4973 -0.5026
   23SAPC  H15A 2982   0.311   4.345  10.843  1.1206  2.5931 -1.6313
   23SAPC  H15B 2983   0.489   4.330  10.885  2.1607  1.8675  1.1711
   23SAPC  H15C 2984   0.359   4.294  10.993  0.0439  0.0395 -0.3300
   23SAPC   C11 2985   0.356   4.592  10.719 -0.2506  0.1627 -0.3301
   23SAPC  H11A 2986   0.391   4.513  10.649 -0.1238  0.1073 -0.2026
   23SAPC  H11B 2987   0.375   4.690  10.670  2.1004  1.1971  2.5274
   23SAPC     P 2988   0.126   4.466  10.683  0.1516  0.0656  0.0534
   23SAPC   O13 2989   0.205   4.344  10.688 -0.3960  0.2621  0.2865
   23SAPC   O14 2990   0.004   4.465  10.761 -0.4067  0.8234  0.3956
   23SAPC   O12 2991   0.217   4.583  10.739 -0.0981  0.3395 -0.4582
   23SAPC   O11 2992   0.107   4.508  10.528  0.2500  0.0059  0.5098
   23SAPC    C1 2993   0.084   4.645  10.486  0.2694 -0.5684 -0.5755
   23SAPC    HA 2994  -0.021   4.671  10.511  0.3823  4.2347 -4.3231
   23SAPC    HB 2995   0.146   4.722  10.536 -4.1535  0.8770  3.0382
   23SAPC    C2 2996   0.106   4.668  10.340 -0.3910 -0.0777  0.4347
   23SAPC    HS 2997   0.098   4.775  10.310  1.4011 -0.1309 -0.2869
   23SAPC   O21 2998   0.008   4.592  10.273 -0.1358  0.4292 -0.6580
   23SAPC   C21 2999  -0.043   4.647  10.168 -0.0263  0.1076 -0.0169
   23SAPC   O22 3000  -0.030   4.763  10.132 -0.0506 -0.1679  0.7013
   23SAPC   C22 3001  -0.145   4.549  10.109  0.3765 -0.3588 -0.6974
   23SAPC   H2R 3002  -0.097   4.451  10.090  0.4368 -0.6185  0.7377
   23SAPC   H2S 3003  -0.217   4.526  10.190  2.2442 -1.4504  0.6988
   23SAPC    C3 3004   0.252   4.625  10.308 -0.1694  0.2910 -0.3952
   23SAPC    HX 3005   0.258   4.516  10.331  2.2371  0.1458 -1.5254
   23SAPC    HY 3006   0.323   4.683  10.370 -1.5777 -0.2204  1.7545
   23SAPC   O31 3007   0.271   4.644  10.163 -0.2307  0.4074 -0.5443
   23SAPC   C31 3008   0.324   4.757  10.129 -0.0931  0.4726  0.3667
   23SAPC   O32 3009   0.382   4.832  10.207  0.0941 -0.2926 -0.1638
   23SAPC   C32 3010   0.292   4.789   9.989  0.1796  0.3229  0.8237
   23SAPC   H2X 3011   0.391   4.793   9.939  0.4949 -1.5769  1.2782
   23SAPC   H2Y 3012   0.254   4.893   9.984 -1.1670 -0.2678 -2.5459
   23SAPC   C23 3013  -0.223   4.583   9.979 -0.2841  0.2851 -0.4207
   23SAPC   H3R 3014  -0.145   4.603   9.903 -0.6756 -2.1448 -1.5095
   23SAPC   H3S 3015  -0.279   4.676  10.003 -0.5406 -0.3542  1.6039
   23SAPC   C24 3016  -0.313   4.468   9.933  0.2923  0.0523  0.3557
   23SAPC   H4R 3017  -0.377   4.503   9.850 -1.1961 -2.4839  0.3956
   23SAPC   H4S 3018  -0.374   4.449  10.024  0.1453 -0.0359  0.2379
   23SAPC   C25 3019  -0.222   4.356   9.884 -0.0427  0.2284 -0.5080
   23SAPC   H5R 3020  -0.174   4.300   9.965 -1.4260  1.6865  1.3709
   23SAPC   C26 3021  -0.201   4.316   9.759 -0.3050  0.1186 -0.7794
   23SAPC   H6R 3022  -0.135   4.229   9.750 -0.8233 -0.1758 -1.7391
   23SAPC   C27 3023  -0.247   4.381   9.634  0.1935 -0.0750  0.4624
   23SAPC   H7R 3024  -0.176   4.358   9.552 -0.5861 -1.1384  0.0920
   23SAPC   H7S 3025  -0.233   4.491   9.643 -0.2991 -0.0822  1.4254
   23SAPC   C28 3026  -0.392   4.360   9.605 -0.0362 -0.0773  0.3880
   23SAPC   H8R 3027  -0.454   4.344   9.695 -0.5009  0.1946  0.1171
   23SAPC   C29 3028  -0.462   4.356   9.489 -0.5728  0.3672 -0.0501
   23SAPC   H9R 3029  -0.571   4.345   9.488 -0.5205 -0.3052  0.8338
   23SAPC  C210 3030  -0.408   4.383   9.350  0.5164  0.4387  0.1552
   23SAPC  H10R 3031  -0.319   4.448   9.364  0.7793  0.4865 -1.6674
   23SAPC  H10S 3032  -0.478   4.447   9.293 -1.3617 -1.8432 -0.1936
   23SAPC  C211 3033  -0.379   4.254   9.270  0.9613  0.3465  0.0766
   23SAPC  H11R 3034  -0.409   4.161   9.322  0.5550 -0.0625 -0.8847
   23SAPC  C212 3035  -0.330   4.259   9.147 -0.2740  0.5637  0.1152
   23SAPC  H12R 3036  -0.317   4.167   9.089  2.4088  0.8386  0.1925
   23SAPC  C213 3037  -0.285   4.380   9.069 -0.1444  0.1252 -0.6750
   23SAPC  H13R 3038  -0.178   4.366   9.045  0.1428  0.6416  0.2490
   23SAPC  H13S 3039  -0.300   4.477   9.123 -2.8941  0.1207 -1.3496
   23SAPC  C214 3040  -0.360   4.383   8.934 -0.5380 -0.5038  0.3497
   23SAPC  H14R 3041  -0.445   4.314   8.924  0.0904 -1.0551 -1.2525
   23SAPC  C215 3042  -0.333   4.460   8.827 -0.2102 -0.1279 -0.3139
   23SAPC  H15R 3043  -0.389   4.439   8.735 -1.9340 -1.5232  1.0306
   23SAPC  C216 3044  -0.227   4.565   8.832 -0.0141 -0.3693 -0.0925
   23SAPC  H16R 3045  -0.196   4.595   8.935 -1.3447 -1.6199  0.7037
   23SAPC  H16S 3046  -0.267   4.662   8.797  1.2541  0.4046  0.5862
   23SAPC  C217 3047  -0.108   4.531   8.746  0.4996  0.2644  0.6533
   23SAPC  H17R 3048  -0.044   4.450   8.789  1.3419  0.7983  0.4230
   23SAPC  H17S 3049  -0.047   4.623   8.733  0.6284  0.1730  0.6246
   23SAPC  C218 3050  -0.146   4.500   8.597 -0.5596 -0.3850  0.6984
   23SAPC  H18R 3051  -0.225   4.574   8.576  0.1939  0.0697 -0.6078
   23SAPC  H18S 3052  -0.180   4.394   8.600  1.9941 -1.2852 -0.1043
   23SAPC  C219 3053  -0.027   4.502   8.503 -0.4120 -0.3952  0.3884
   23SAPC  H19R 3054  -0.068   4.469   8.405  0.4431  1.1225 -0.5008
   23SAPC  H19S 3055   0.043   4.419   8.527  1.2822  1.3398  1.5841
   23SAPC  C220 3056   0.034   4.636   8.470  0.4331  0.1802  0.7364
   23SAPC  H20R 3057   0.057   4.702   8.557  2.6574 -0.9313  1.0362
   23SAPC  H20S 3058  -0.028   4.699   8.403  0.1716 -0.6356  0.2017
   23SAPC  H20T 3059   0.134   4.622   8.423 -0.1160  1.4438 -0.8346
   23SAPC   C33 3060   0.191   4.704   9.906  0.1522 -0.2773  0.6749
   23SAPC   H3X 3061   0.081   4.719   9.909 -0.0279 -1.2272 -0.5208
   23SAPC   H3Y 3062   0.218   4.599   9.932 -0.0612 -0.6728 -0.6447
   23SAPC   C34 3063   0.226   4.722   9.754  0.5639 -0.4174  0.1018
   23SAPC   H4X 3064   0.335   4.731   9.738  0.5455 -2.7204 -1.5522
   23SAPC   H4Y 3065   0.172   4.808   9.708  1.5348 -0.1819 -0.6091
   23SAPC   C35 3066   0.174   4.601   9.672  0.2610 -0.9609 -0.5934
   23SAPC   H5X 3067   0.071   4.578   9.705 -0.4440  2.6545 -0.0108
   23SAPC   H5Y 3068   0.242   4.519   9.704  1.1107  0.1556  0.5177
   23SAPC   C36 3069   0.194   4.606   9.520  0.0647  0.3293  0.3093
   23SAPC   H6X 3070   0.302   4.597   9.494 -0.8241 -1.0824 -3.0924
   23SAPC   H6Y 3071   0.160   4.705   9.483 -0.0159  1.0025  2.1351
   23SAPC   C37 3072   0.113   4.496   9.445  0.1157 -0.5865 -0.4760
   23SAPC   H7X 3073   0.008   4.495   9.482  0.6534 -0.2566  1.1143
   23SAPC   H7Y 3074   0.156   4.406   9.492 -0.4045 -0.4447  0.3003
   23SAPC   C38 3075   0.134   4.490   9.291  0.6295 -0.7265  0.2541
   23SAPC   H8X 3076   0.241   4.514   9.275  1.2708 -2.7477  1.4173
   23SAPC   H8Y 3077   0.072   4.566   9.239  0.7388  0.9506  2.4843
   23SAPC   C39 3078   0.118   4.346   9.236 -0.0865  0.3480 -0.5082
   23SAPC   H9X 3079   0.021   4.308   9.276  0.4795 -1.5346 -0.9037
   23SAPC   H9Y 3080   0.197   4.275   9.267  0.3544  0.5556 -1.1353
   23SAPC  C310 3081   0.121   4.345   9.079 -0.3969 -0.2486  0.1208
   23SAPC  H10X 3082   0.052   4.420   9.037  1.0155  1.2315  0.3735
   23SAPC  H10Y 3083   0.087   4.247   9.039 -0.0714 -0.4706  0.3815
   23SAPC  C311 3084   0.261   4.370   9.013 -0.6610 -0.3794 -0.7167
   23SAPC  H11X 3085   0.309   4.270   9.006  1.8605  0.4134  3.2608
   23SAPC  H11Y 3086   0.326   4.431   9.080 -2.0601  1.3994 -0.9203
   23SAPC  C312 3087   0.266   4.430   8.876 -0.7401 -0.1860 -0.3107
   23SAPC  H12X 3088   0.242   4.538   8.881 -1.9489 -0.4114 -1.1250
   23SAPC  H12Y 3089   0.195   4.362   8.824 -1.1843  0.7323 -0.9085
   23SAPC  C313 3090   0.399   4.394   8.804  0.0019 -0.4460 -0.1099
   23SAPC  H13X 3091   0.412   4.284   8.810 -0.2300 -0.5203 -0.9003
   23SAPC  H13Y 3092   0.482   4.435   8.865  1.3066 -0.3703 -1.8851
   23SAPC  C314 3093   0.392   4.433   8.651 -0.1111  0.3735 -0.1940
   23SAPC  H14X 3094   0.367   4.541   8.656 -0.7220  0.2798 -1.0288
   23SAPC  H14Y 3095   0.303   4.380   8.609 -0.9603  0.6661  1.2213
   23SAPC  C315 3096   0.521   4.407   8.572  0.7629 -0.3812  0.2914
   23SAPC  H15X 3097   0.602   4.458   8.628 -0.0001 -0.1925  1.2324
   23SAPC  H15Y 3098   0.499   4.451   8.473  0.9747  0.9355  0.8136
   23SAPC  C316 3099   0.561   4.264   8.548  0.7784 -0.0697  0.8419
   23SAPC  H16X 3100   0.483   4.218   8.484  1.6485 -0.3004 -0.0634
   23SAPC  H16Y 3101   0.574   4.208   8.643 -0.4115 -0.5991  0.6894
   23SAPC  C317 3102   0.686   4.253   8.467  1.2990  0.8109 -0.2051
   23SAPC  H17X 3103   0.664   4.312   8.376 -0.9047  0.8724  0.3440
   23SAPC  H17Y 3104   0.692   4.143   8.453  2.2010  0.5075  2.1831
   23SAPC  C318 3105   0.812   4.313   8.526 -0.6023 -0.4637 -0.7344
   23SAPC  H18X 3106   0.818   4.270   8.628 -2.5969 -0.3929 -0.5583
   23SAPC  H18Y 3107   0.806   4.423   8.538  1.0292 -0.3292 -1.0467
   23SAPC  H18Z 3108   0.901   4.298   8.462  1.7638  1.8697  1.8996
   24SAPC     N 3109   2.726   5.465  11.408 -0.4078  0.1427 -0.5069
   24SAPC   C12 3110   2.711   5.341  11.322  0.4384 -0.2629  0.4599
   24SAPC  H12A 3111   2.605   5.330  11.303  0.5983  1.7563 -1.8528
   24SAPC  H12B 3112   2.747   5.259  11.382 -1.8077 -0.9386  0.9260
   24SAPC   C13 3113   2.638   5.571  11.344  0.2942 -0.1967  0.2030
   24SAPC  H13A 3114   2.533   5.554  11.361  0.2551  0.0197  0.1769
   24SAPC  H13B 3115   2.659   5.667  11.389  1.7939  0.5471 -2.0093
   24SAPC  H13C 3116   2.653   5.571  11.237  1.7247 -0.2734  0.3880
   24SAPC   C14 3117   2.670   5.447  11.545  0.2069  0.0614  0.0947
   24SAPC  H14A 3118   2.711   5.355  11.583 -2.1874 -0.6969  0.8690
   24SAPC  H14B 3119   2.689   5.538  11.601 -0.1051 -1.0353  1.9973
   24SAPC  H14C 3120   2.563   5.444  11.538  0.2426 -1.6424  0.2873
   24SAPC   C15 3121   2.872   5.512  11.410  0.3513 -0.1354  0.4384
   24SAPC  H15A 3122   2.932   5.443  11.467 -0.4554 -0.4138  0.9576
   24SAPC  H15B 3123   2.915   5.533  11.313 -2.1244  1.8202 -0.2956
   24SAPC  H15C 3124   2.863   5.611  11.451 -0.2747  0.4011 -0.9415
   24SAPC   C11 3125   2.780   5.341  11.179 -0.2199 -0.0984 -0.8993
   24SAPC  H11A 3126   2.790   5.236  11.143  0.8075 -0.6143  0.8046
   24SAPC  H11B 3127   2.885   5.376  11.179  0.0148 -0.7880 -1.4888
   24SAPC     P 3128   2.590   5.368  11.000 -0.1562  0.2487  0.1297
   24SAPC   O13 3129   2.508   5.299  11.093  0.3920  0.0421 -0.5601
   24SAPC   O14 3130   2.537   5.471  10.906 -0.7342 -0.5687 -0.0762
   24SAPC   O12 3131   2.700   5.426  11.088 -0.2585  0.2336 -0.3729
   24SAPC   O11 3132   2.674   5.257  10.916 -0.4274 -0.6181  0.2543
   24SAPC    C1 3133   2.781   5.311  10.831  0.0493 -0.1327 -0.3140
   24SAPC    HA 3134   2.733   5.387  10.766  3.2602  2.5726  0.3193
   24SAPC    HB 3135   2.861   5.363  10.888 -2.2201  2.2530  0.7878
   24SAPC    C2 3136   2.842   5.199  10.745 -0.3866  0.5591  0.3767
   24SAPC    HS 3137   2.918   5.253  10.684 -0.7737  1.5819  0.7858
   24SAPC   O21 3138   2.745   5.143  10.671  0.1491 -0.2227 -0.2930
   24SAPC   C21 3139   2.710   5.209  10.562 -0.0016  0.0244 -0.0197
   24SAPC   O22 3140   2.743   5.316  10.526  0.1727  0.5422  0.3861
   24SAPC   C22 3141   2.616   5.118  10.482  0.2261  0.1204 -0.2049
   24SAPC   H2R 3142   2.679   5.036  10.443  0.9083  0.0116  1.1122
   24SAPC   H2S 3143   2.538   5.073  10.547  0.6209  0.0569  0.2272
   24SAPC    C3 3144   2.911   5.102  10.839  0.9362  0.1046  0.3212
   24SAPC    HX 3145   2.835   5.066  10.912  0.9195 -0.4207  0.0465
   24SAPC    HY 3146   2.981   5.168  10.895 -3.5566  2.5723  3.4027
   24SAPC   O31 3147   2.986   4.996  10.776  0.0047 -0.0154  0.2086
   24SAPC   C31 3148   2.926   4.887  10.758  0.3549  1.0276 -0.3019
   24SAPC   O32 3149   2.809   4.862  10.770  0.3149  0.0635  0.1005
   24SAPC   C32 3150   3.031   4.790  10.702 -0.1688  0.8980  0.3640
   24SAPC   H2X 3151   3.092   4.736  10.777 -2.5273 -0.1296  1.5855
   24SAPC   H2Y 3152   3.088   4.852  10.629 -0.5364 -0.6179 -1.2600
   24SAPC   C23 3153   2.540   5.186  10.361 -0.4822  0.0819  0.2345
   24SAPC   H3R 3154   2.613   5.253  10.311  0.3213 -0.2717  0.9252
   24SAPC   H3S 3155   2.457   5.252  10.391  1.1449  2.3464 -0.1458
   24SAPC   C24 3156   2.491   5.091  10.247 -0.2676  0.5814  0.0910
   24SAPC   H4R 3157   2.574   5.032  10.203 -0.6916 -1.2077  1.6391
   24SAPC   H4S 3158   2.438   5.149  10.168 -0.5702 -3.7373 -3.0817
   24SAPC   C25 3159   2.393   4.992  10.312 -0.2516 -0.4253  0.1893
   24SAPC   H5R 3160   2.375   5.017  10.417  4.1025 -1.9577  1.4096
   24SAPC   C26 3161   2.337   4.889  10.256  0.1224  0.4892  0.2878
   24SAPC   H6R 3162   2.258   4.833  10.309 -0.6017  2.6850  1.6086
   24SAPC   C27 3163   2.370   4.833  10.119  0.1456  0.1022  0.0048
   24SAPC   H7R 3164   2.472   4.867  10.091  0.2743  0.6315  1.0555
   24SAPC   H7S 3165   2.302   4.869  10.039  1.2371  1.3261 -0.3814
   24SAPC   C28 3166   2.358   4.685  10.122 -0.0864 -0.2539  0.1772
   24SAPC   H8R 3167   2.451   4.634  10.149  0.9199  1.3853 -0.1301
   24SAPC   C29 3168   2.252   4.618  10.082 -0.0811 -0.9117  0.0291
   24SAPC   H9R 3169   2.266   4.509  10.072  0.2372 -0.9512  0.8398
   24SAPC  C210 3170   2.118   4.672  10.045  0.4955  0.0656  0.5614
   24SAPC  H10R 3171   2.125   4.754   9.970  0.9384  0.7599  1.3598
   24SAPC  H10S 3172   2.073   4.726  10.131  1.1941  0.5456  0.6311
   24SAPC  C211 3173   2.006   4.584  10.002  0.7580  0.2598 -0.1985
   24SAPC  H11R 3174   1.926   4.550  10.070  0.7869 -2.7516 -1.6010
   24SAPC  C212 3175   1.975   4.553   9.873  0.7726  0.6742 -0.9520
   24SAPC  H12R 3176   1.893   4.481   9.864  1.0877  0.0375  1.0914
   24SAPC  C213 3177   2.045   4.599   9.753  0.5604 -0.1126  0.2084
   24SAPC  H13R 3178   2.151   4.605   9.787  0.5962 -2.5658  0.6178
   24SAPC  H13S 3179   2.005   4.694   9.712 -1.7406 -1.0061  0.2729
   24SAPC  C214 3180   2.042   4.505   9.634 -0.2044  0.1389 -0.0096
   24SAPC  H14R 3181   2.132   4.441   9.638 -0.4634 -0.1452  1.9587
   24SAPC  C215 3182   1.945   4.486   9.540  0.0827 -0.6934 -0.1287
   24SAPC  H15R 3183   1.966   4.418   9.457  2.0724 -1.4020  0.9128
   24SAPC  C216 3184   1.827   4.570   9.536  0.1305  0.0009  0.6227
   24SAPC  H16R 3185   1.848   4.668   9.486  2.6031 -1.3046 -1.0124
   24SAPC  H16S 3186   1.782   4.603   9.632 -3.2956 -2.2169 -0.1344
   24SAPC  C217 3187   1.712   4.506   9.453 -0.3444  0.2948 -0.2549
   24SAPC  H17R 3188   1.618   4.564   9.466  0.2709  1.3783 -0.5427
   24SAPC  H17S 3189   1.693   4.403   9.489 -1.4680  0.5824  0.0097
   24SAPC  C218 3190   1.735   4.503   9.304  0.1404  0.8423 -0.0151
   24SAPC  H18R 3191   1.813   4.429   9.273  0.8509  1.2272  0.8190
   24SAPC  H18S 3192   1.782   4.595   9.263 -3.2399  1.3994 -2.8239
   24SAPC  C219 3193   1.609   4.481   9.222  0.6372 -0.7564  0.3139
   24SAPC  H19R 3194   1.527   4.553   9.243  1.7188  1.1513 -1.7450
   24SAPC  H19S 3195   1.562   4.385   9.253  2.0724 -1.0533  1.6229
   24SAPC  C220 3196   1.633   4.462   9.075 -0.7419 -0.5827 -0.0588
   24SAPC  H20R 3197   1.736   4.421   9.066 -0.0344  1.1923 -0.3676
   24SAPC  H20S 3198   1.651   4.559   9.023 -0.7614  0.0409  1.0723
   24SAPC  H20T 3199   1.551   4.399   9.035 -0.4306 -1.2853  0.3980
   24SAPC   C33 3200   2.962   4.693  10.599 -0.3771  0.6114  0.0851
   24SAPC   H3X 3201   2.867   4.650  10.638 -0.3603 -0.0707 -0.6066
   24SAPC   H3Y 3202   3.028   4.609  10.567 -1.4880  0.1624 -1.0923
   24SAPC   C34 3203   2.929   4.770  10.467  0.4621  0.3879 -0.6144
   24SAPC   H4X 3204   3.001   4.853  10.449  0.7209  0.1432 -0.7015
   24SAPC   H4Y 3205   2.826   4.811  10.478 -0.0230 -0.9193 -0.2186
   24SAPC   C35 3206   2.919   4.685  10.332  0.2901 -0.3300 -0.0141
   24SAPC   H5X 3207   2.868   4.590  10.357 -0.7201  0.1039 -0.3657
   24SAPC   H5Y 3208   3.021   4.653  10.303  0.3729  0.3834 -0.5248
   24SAPC   C36 3209   2.850   4.772  10.230 -0.7625 -0.2224 -0.5439
   24SAPC   H6X 3210   2.905   4.863  10.199  0.5374 -0.7674  0.1185
   24SAPC   H6Y 3211   2.743   4.796  10.248 -0.8899 -0.6850 -0.6865
   24SAPC   C37 3212   2.833   4.690  10.097 -1.1943 -0.5079 -0.1340
   24SAPC   H7X 3213   2.791   4.589  10.118 -1.2650 -0.8275 -1.7374
   24SAPC   H7Y 3214   2.935   4.677  10.055 -0.9714 -2.0896  0.8345
   24SAPC   C38 3215   2.751   4.777  10.005  0.3918  0.2840 -0.5529
   24SAPC   H8X 3216   2.785   4.882  10.017 -4.3377  1.8574  0.2639
   24SAPC   H8Y 3217   2.646   4.766  10.040  0.7490  0.7303  0.6450
   24SAPC   C39 3218   2.767   4.738   9.856 -0.1035  0.2432 -0.1779
   24SAPC   H9X 3219   2.670   4.759   9.807 -0.6521 -2.3730 -0.2463
   24SAPC   H9Y 3220   2.763   4.627   9.851  0.7241  0.2321 -0.6860
   24SAPC  C310 3221   2.889   4.806   9.789  0.5360  0.1111  0.2215
   24SAPC  H10X 3222   2.985   4.769   9.831  0.3865  0.5151  0.9166
   24SAPC  H10Y 3223   2.872   4.915   9.803  0.0576  0.0370  0.2294
   24SAPC  C311 3224   2.891   4.783   9.635  0.2921 -0.8903 -0.7516
   24SAPC  H11X 3225   2.906   4.675   9.616 -1.5867 -1.2739 -0.1543
   24SAPC  H11Y 3226   2.974   4.847   9.599  0.1892  0.1626  0.8324
   24SAPC  C312 3227   2.762   4.845   9.572 -1.0972 -0.1973  0.7039
   24SAPC  H12X 3228   2.737   4.946   9.609 -0.2784 -0.1453  1.1283
   24SAPC  H12Y 3229   2.680   4.780   9.609 -0.6098 -0.1280  1.9281
   24SAPC  C313 3230   2.765   4.851   9.413  0.8673  0.4818  0.1389
   24SAPC  H13X 3231   2.861   4.899   9.383  0.2820  0.9423 -1.0356
   24SAPC  H13Y 3232   2.680   4.919   9.393 -0.5602 -1.1437  0.6658
   24SAPC  C314 3233   2.752   4.712   9.348  0.0480 -1.0144  0.4001
   24SAPC  H14X 3234   2.681   4.651   9.408 -0.3847  0.8062  1.8041
   24SAPC  H14Y 3235   2.851   4.664   9.365  0.3997  0.7359  3.7226
   24SAPC  C315 3236   2.720   4.699   9.196 -0.0399 -0.0399  0.6619
   24SAPC  H15X 3237   2.611   4.719   9.188  0.2474  1.7266  0.9658
   24SAPC  H15Y 3238   2.746   4.600   9.153 -0.1777  1.6649 -3.5467
   24SAPC  C316 3239   2.795   4.801   9.110  0.1928  0.1475 -0.5452
   24SAPC  H16X 3240   2.904   4.777   9.113  0.1537  0.1200  1.2381
   24SAPC  H16Y 3241   2.774   4.905   9.141  0.3289  0.0859 -0.2382
   24SAPC  C317 3242   2.745   4.793   8.963 -0.5387 -0.0944  0.8250
   24SAPC  H17X 3243   2.747   4.894   8.918  1.1889 -0.2649  0.4811
   24SAPC  H17Y 3244   2.638   4.762   8.956 -0.4301  0.0286 -1.7489
   24SAPC  C318 3245   2.822   4.687   8.874  0.5276 -0.7009  0.0128
   24SAPC  H18X 3246   2.791   4.683   8.767  0.9859  1.8667 -0.2533
   24SAPC  H18Y 3247   2.808   4.584   8.915  0.5585 -0.7816 -0.1787
   24SAPC  H18Z 3248   2.928   4.718   8.862  0.0713  0.8668 -0.0473
   25SAPC     N 3249   4.890   3.161   5.938 -0.4682  0.6363 -0.0927
   25SAPC   C12 3250   4.937   3.046   6.025 -0.3920  0.4166  0.1533
   25SAPC  H12A 3251   4.889   2.954   5.994 -1.0202  0.3243  1.4066
   25SAPC  H12B 3252   4.904   3.066   6.125 -0.6746 -0.2430  0.1959
   25SAPC   C13 3253   4.948   3.141   5.805 -0.0151  0.2637  0.3591
   25SAPC  H13A 3254   5.056   3.148   5.807  0.0445  1.2212 -3.2184
   25SAPC  H13B 3255   4.920   3.041   5.777 -0.4461  0.3361  0.5224
   25SAPC  H13C 3256   4.907   3.210   5.732  1.8470  0.9913 -0.0377
   25SAPC   C14 3257   4.744   3.161   5.924 -0.3466  0.0429  0.1612
   25SAPC  H14A 3258   4.707   3.209   5.835 -1.1746 -0.9097 -0.0121
   25SAPC  H14B 3259   4.710   3.060   5.912 -1.9223  0.7229 -1.4079
   25SAPC  H14C 3260   4.694   3.206   6.008  1.4000  0.8523  0.7948
   25SAPC   C15 3261   4.927   3.296   6.000  0.5589  0.5024 -0.3440
   25SAPC  H15A 3262   4.912   3.372   5.925 -3.2854  1.3524  1.1546
   25SAPC  H15B 3263   4.860   3.326   6.080 -0.6547 -1.4063 -0.6023
   25SAPC  H15C 3264   5.027   3.304   6.040  0.2045  3.0165  0.0830
   25SAPC   C11 3265   5.094   3.027   6.017  0.1860 -0.0581 -0.1966
   25SAPC  H11A 3266   5.125   3.004   5.913 -0.1080 -0.7068 -0.1453
   25SAPC  H11B 3267   5.131   2.938   6.072  0.0865 -1.1415 -1.8587
   25SAPC     P 3268   5.244   3.160   6.189  0.0174  0.0936  0.0591
   25SAPC   O13 3269   5.365   3.081   6.192 -0.1828 -0.1622 -0.4998
   25SAPC   O14 3270   5.252   3.304   6.211 -0.4121 -0.4970  0.5164
   25SAPC   O12 3271   5.164   3.142   6.055 -0.5344  0.3214 -0.3701
   25SAPC   O11 3272   5.134   3.101   6.283 -0.1294 -0.1950  0.3245
   25SAPC    C1 3273   5.079   3.156   6.401 -0.4119 -0.4237  0.3506
   25SAPC    HA 3274   5.017   3.244   6.375 -0.8892 -1.3574 -1.7183
   25SAPC    HB 3275   5.008   3.084   6.447  0.6993 -0.6545  1.7667
   25SAPC    C2 3276   5.191   3.180   6.502  0.4618  0.2461 -0.5923
   25SAPC    HS 3277   5.266   3.252   6.463 -0.7835  0.4589 -2.6722
   25SAPC   O21 3278   5.252   3.051   6.534  0.4515 -0.4713 -0.4268
   25SAPC   C21 3279   5.369   3.055   6.598  0.3949  0.0567  0.1565
   25SAPC   O22 3280   5.436   3.153   6.614  0.2355  0.2525  0.3385
   25SAPC   C22 3281   5.399   2.910   6.656  0.5067 -0.8235  0.6751
   25SAPC   H2R 3282   5.308   2.868   6.705  0.1733 -0.0694  0.7138
   25SAPC   H2S 3283   5.415   2.841   6.570  0.8682 -0.0126  0.0900
   25SAPC    C3 3284   5.126   3.241   6.633 -0.7169 -0.1779  0.3442
   25SAPC    HX 3285   5.070   3.154   6.673  2.4318 -2.2172  0.5466
   25SAPC    HY 3286   5.058   3.321   6.598  1.0024  1.3635  0.4864
   25SAPC   O31 3287   5.225   3.280   6.736  0.0717  0.0605 -0.5332
   25SAPC   C31 3288   5.276   3.397   6.716 -0.2983 -0.7938  0.2079
   25SAPC   O32 3289   5.259   3.468   6.619  0.2706 -0.8915  0.7676
   25SAPC   C32 3290   5.365   3.430   6.837  0.4906  0.0058  0.5202
   25SAPC   H2X 3291   5.352   3.538   6.860 -2.3104 -0.1643 -0.0382
   25SAPC   H2Y 3292   5.471   3.427   6.805  0.7082  0.8861  1.1621
   25SAPC   C23 3293   5.513   2.900   6.766  0.0054 -0.4063 -0.1625
   25SAPC   H3R 3294   5.497   2.970   6.851 -2.6431 -0.6376 -0.4230
   25SAPC   H3S 3295   5.606   2.925   6.712  0.3448  0.8232  0.9597
   25SAPC   C24 3296   5.526   2.766   6.841 -0.1936  0.4837 -0.1238
   25SAPC   H4R 3297   5.541   2.696   6.756 -4.0542 -0.2907 -0.2813
   25SAPC   H4S 3298   5.435   2.736   6.898 -0.0624  2.3808  1.1023
   25SAPC   C25 3299   5.649   2.760   6.925 -0.4480  0.4113  0.6580
   25SAPC   H5R 3300   5.738   2.725   6.870 -2.5778 -1.6439 -1.6444
   25SAPC   C26 3301   5.658   2.789   7.056  0.3256 -0.0939  0.6660
   25SAPC   H6R 3302   5.756   2.822   7.091  0.1231  0.1383  1.0096
   25SAPC   C27 3303   5.542   2.822   7.151  0.0090 -0.2017 -0.2788
   25SAPC   H7R 3304   5.512   2.729   7.203  0.8717 -0.9322 -1.0713
   25SAPC   H7S 3305   5.460   2.865   7.090 -0.1129  0.0582  0.0662
   25SAPC   C28 3306   5.568   2.937   7.241 -0.7994 -0.6364 -0.2628
   25SAPC   H8R 3307   5.602   3.028   7.190 -0.4332 -1.3759 -1.3426
   25SAPC   C29 3308   5.570   2.938   7.373  1.0456 -0.1740  0.2093
   25SAPC   H9R 3309   5.581   3.033   7.428  0.1945 -0.6779  1.2628
   25SAPC  C210 3310   5.549   2.817   7.470  0.1080  0.6809  0.6771
   25SAPC  H10R 3311   5.647   2.789   7.516  1.1735  0.1429 -1.8647
   25SAPC  H10S 3312   5.520   2.719   7.427  0.6500  1.0614 -0.5534
   25SAPC  C211 3313   5.450   2.850   7.582 -0.2423 -0.0577 -0.2504
   25SAPC  H11R 3314   5.348   2.810   7.565 -0.1331 -0.1346 -0.7352
   25SAPC  C212 3315   5.476   2.901   7.704  0.1436  0.3830 -0.3253
   25SAPC  H12R 3316   5.386   2.930   7.760 -0.1784 -1.2895  0.0713
   25SAPC  C213 3317   5.612   2.953   7.761 -0.5675  0.2654 -0.1367
   25SAPC  H13R 3318   5.691   2.964   7.684 -0.2001  0.2073  0.2258
   25SAPC  H13S 3319   5.647   2.874   7.831  0.6364 -1.2751 -2.4181
   25SAPC  C214 3320   5.627   3.081   7.839 -0.3866  0.0669 -0.5290
   25SAPC  H14R 3321   5.669   3.167   7.784 -1.6213  0.4103 -0.9410
   25SAPC  C215 3322   5.585   3.107   7.963 -0.6274  0.8470  0.2341
   25SAPC  H15R 3323   5.620   3.198   8.014  2.3080 -0.5867  0.9244
   25SAPC  C216 3324   5.517   3.016   8.057 -0.0524  0.3031  0.4946
   25SAPC  H16R 3325   5.592   2.990   8.134  1.1090 -1.0554 -1.0571
   25SAPC  H16S 3326   5.497   2.915   8.015  1.3520  0.6539 -1.0653
   25SAPC  C217 3327   5.387   3.081   8.112 -0.4404  0.0734 -0.4312
   25SAPC  H17R 3328   5.396   3.187   8.144 -0.6565 -0.2394  0.6862
   25SAPC  H17S 3329   5.355   3.013   8.193  2.0871  0.2343  0.7484
   25SAPC  C218 3330   5.272   3.097   8.011 -0.4721 -0.0160 -0.0126
   25SAPC  H18R 3331   5.265   3.000   7.956  0.6612  0.3450 -0.8249
   25SAPC  H18S 3332   5.293   3.159   7.921 -2.4540 -2.7760 -2.5199
   25SAPC  C219 3333   5.146   3.148   8.072  1.0334 -0.2103 -0.3197
   25SAPC  H19R 3334   5.068   3.151   7.994 -1.1017  0.8832  1.8031
   25SAPC  H19S 3335   5.147   3.254   8.107 -0.3574  0.1167 -1.2307
   25SAPC  C220 3336   5.098   3.058   8.179  0.4858  0.5141 -0.2208
   25SAPC  H20R 3337   5.131   2.953   8.162 -1.0004  0.4366 -2.9876
   25SAPC  H20S 3338   4.987   3.057   8.191  0.3060  1.9596 -1.5791
   25SAPC  H20T 3339   5.146   3.097   8.271 -1.4962  3.0767 -0.2289
   25SAPC   C33 3340   5.337   3.344   6.954  0.2492 -0.4338  0.1295
   25SAPC   H3X 3341   5.374   3.240   6.940 -0.2859 -0.6295  0.1632
   25SAPC   H3Y 3342   5.233   3.324   6.988  0.1950 -0.3177  0.0277
   25SAPC   C34 3343   5.410   3.399   7.082 -0.0807 -0.2711  0.4328
   25SAPC   H4X 3344   5.392   3.508   7.089  0.4810 -0.2304  1.2333
   25SAPC   H4Y 3345   5.520   3.400   7.067 -0.0870  0.3093  0.4136
   25SAPC   C35 3346   5.387   3.329   7.218 -0.1351 -0.6199  0.0404
   25SAPC   H5X 3347   5.445   3.234   7.220 -0.4783 -0.8030  2.1992
   25SAPC   H5Y 3348   5.281   3.305   7.236  0.3189 -0.5875  3.0537
   25SAPC   C36 3349   5.420   3.421   7.335  0.2946  0.1963  1.1518
   25SAPC   H6X 3350   5.360   3.515   7.339 -0.3007 -0.1173 -0.1103
   25SAPC   H6Y 3351   5.527   3.449   7.323  0.7958 -2.7791 -2.1345
   25SAPC   C37 3352   5.394   3.370   7.478 -0.5261 -0.8699 -0.5123
   25SAPC   H7X 3353   5.448   3.276   7.501 -1.3765 -1.4730 -0.9360
   25SAPC   H7Y 3354   5.284   3.354   7.492 -0.6913  0.3390 -0.4368
   25SAPC   C38 3355   5.435   3.475   7.587  0.0874 -0.4755  0.3085
   25SAPC   H8X 3356   5.366   3.561   7.576 -1.0822 -1.2711  1.3864
   25SAPC   H8Y 3357   5.542   3.505   7.578  0.0255 -1.0248 -2.8125
   25SAPC   C39 3358   5.408   3.421   7.730  0.2553  0.0789  0.9235
   25SAPC   H9X 3359   5.470   3.332   7.751  0.6058 -0.3931 -1.8768
   25SAPC   H9Y 3360   5.302   3.390   7.745 -0.2905  1.7720  0.6828
   25SAPC  C310 3361   5.431   3.538   7.835  0.1224 -0.0364 -0.6343
   25SAPC  H10X 3362   5.363   3.619   7.799 -0.4472 -0.4939 -0.5945
   25SAPC  H10Y 3363   5.535   3.575   7.824 -0.2429  0.9849 -0.7536
   25SAPC  C311 3364   5.407   3.491   7.980  0.4166  0.4392  0.5197
   25SAPC  H11X 3365   5.493   3.424   8.002  1.8957  2.3165  0.6161
   25SAPC  H11Y 3366   5.316   3.428   7.991  0.4989  0.5881  2.3093
   25SAPC  C312 3367   5.393   3.599   8.088  0.3942  0.1502 -0.2267
   25SAPC  H12X 3368   5.294   3.642   8.112  1.2520  1.9274  0.1836
   25SAPC  H12Y 3369   5.443   3.687   8.042 -0.3246 -0.1931 -1.7033
   25SAPC  C313 3370   5.450   3.562   8.226 -0.3991  0.6862 -0.1140
   25SAPC  H13X 3371   5.557   3.535   8.216 -0.7716 -0.5512 -0.8907
   25SAPC  H13Y 3372   5.400   3.474   8.270  0.2232 -0.4647 -1.6513
   25SAPC  C314 3373   5.433   3.675   8.326 -0.4180  0.0053  0.5716
   25SAPC  H14X 3374   5.331   3.669   8.371 -0.9942 -0.0324 -0.7267
   25SAPC  H14Y 3375   5.448   3.775   8.282 -0.7485 -1.1122 -2.1555
   25SAPC  C315 3376   5.532   3.675   8.445  0.4711  0.4280  0.2427
   25SAPC  H15X 3377   5.507   3.575   8.487 -1.5059 -0.1586 -2.2105
   25SAPC  H15Y 3378   5.482   3.754   8.505  0.2663 -1.1774  2.2163
   25SAPC  C316 3379   5.681   3.714   8.418 -0.1579 -0.2434 -0.7813
   25SAPC  H16X 3380   5.696   3.824   8.412 -1.3324  0.0835  1.7558
   25SAPC  H16Y 3381   5.724   3.672   8.325 -2.7835 -0.2748 -2.0093
   25SAPC  C317 3382   5.780   3.677   8.532  0.5043  0.8978 -0.2221
   25SAPC  H17X 3383   5.731   3.652   8.629 -1.0863  0.8774 -1.0224
   25SAPC  H17Y 3384   5.858   3.754   8.547  1.6435 -0.4715  1.0271
   25SAPC  C318 3385   5.860   3.553   8.507 -0.2830  0.6312  0.0598
   25SAPC  H18X 3386   5.793   3.466   8.489  0.8185  0.0810 -1.4051
   25SAPC  H18Y 3387   5.927   3.525   8.592 -1.9123 -0.5042  1.0249
   25SAPC  H18Z 3388   5.920   3.572   8.416 -0.7689 -1.5491 -0.7459
   26SAPC     N 3389   5.144   4.951   6.323 -0.3036  0.5666  0.8555
   26SAPC   C12 3390   5.004   5.007   6.288  0.0164 -0.0956  0.3007
   26SAPC  H12A 3391   4.936   4.928   6.317 -3.6820  3.4834  1.9622
   26SAPC  H12B 3392   5.007   5.026   6.182 -1.6156 -2.6595 -0.2551
   26SAPC   C13 3393   5.252   5.041   6.273  1.0167 -0.2127 -0.0588
   26SAPC  H13A 3394   5.270   5.134   6.323  1.7151 -1.5275  2.1996
   26SAPC  H13B 3395   5.342   4.981   6.282  0.5043 -0.7142  1.8025
   26SAPC  H13C 3396   5.236   5.055   6.167  0.7586 -2.7283 -0.4065
   26SAPC   C14 3397   5.153   4.910   6.466  0.0996 -0.8433 -0.1447
   26SAPC  H14A 3398   5.131   4.987   6.538 -0.2426 -0.6263 -0.4826
   26SAPC  H14B 3399   5.087   4.826   6.486  0.0080 -0.1995  2.5142
   26SAPC  H14C 3400   5.258   4.889   6.484  0.3469  0.8083  0.3881
   26SAPC   C15 3401   5.158   4.827   6.247 -0.3060  0.2745 -0.1011
   26SAPC  H15A 3402   5.141   4.850   6.142  0.8560 -0.2082 -0.3994
   26SAPC  H15B 3403   5.250   4.771   6.240  2.6339  4.9486 -1.6773
   26SAPC  H15C 3404   5.086   4.759   6.289 -0.0435 -0.8150 -1.3700
   26SAPC   C11 3405   4.966   5.128   6.366 -0.3803  0.1163  0.3068
   26SAPC  H11A 3406   4.982   5.093   6.471  0.8286 -2.2882 -0.6358
   26SAPC  H11B 3407   4.857   5.138   6.347 -0.2048  0.8955 -0.2920
   26SAPC     P 3408   4.980   5.356   6.240  0.0301 -0.0319 -0.1517
   26SAPC   O13 3409   5.087   5.446   6.202  0.4441 -0.4993  0.5500
   26SAPC   O14 3410   4.914   5.292   6.128 -0.1784  0.6235  0.5537
   26SAPC   O12 3411   5.042   5.245   6.341  0.3431 -0.6406  0.5579
   26SAPC   O11 3412   4.867   5.427   6.321 -0.4831  0.5421 -0.4152
   26SAPC    C1 3413   4.886   5.552   6.379 -0.7489  0.0059  0.1994
   26SAPC    HA 3414   4.963   5.615   6.330 -0.9406 -0.3285 -0.5485
   26SAPC    HB 3415   4.794   5.615   6.374 -0.5494  0.2216 -1.0138
   26SAPC    C2 3416   4.940   5.536   6.527 -0.0937  0.4250  0.4937
   26SAPC    HS 3417   5.028   5.468   6.534 -0.0149  0.5994  1.2759
   26SAPC   O21 3418   4.834   5.506   6.615  0.3602 -0.6157  0.0015
   26SAPC   C21 3419   4.860   5.413   6.706  0.2589  0.2194 -0.4587
   26SAPC   O22 3420   4.968   5.355   6.723  0.2248 -0.4972  0.4597
   26SAPC   C22 3421   4.742   5.403   6.803  0.0499  0.4553 -0.0387
   26SAPC   H2R 3422   4.706   5.506   6.822  2.6266  1.2537  0.7065
   26SAPC   H2S 3423   4.652   5.357   6.756 -2.4284  2.4516  2.5426
   26SAPC    C3 3424   5.000   5.675   6.575  0.4944 -0.0055 -0.4985
   26SAPC    HX 3425   4.920   5.752   6.567 -0.6353 -1.2665 -1.7596
   26SAPC    HY 3426   5.073   5.707   6.498 -0.0509  0.9419 -0.6315
   26SAPC   O31 3427   5.057   5.674   6.711  0.6030 -0.4054 -0.2492
   26SAPC   C31 3428   5.190   5.663   6.734  0.0540  0.3065  0.2806
   26SAPC   O32 3429   5.274   5.629   6.657 -0.3379  0.2542 -0.5515
   26SAPC   C32 3430   5.232   5.722   6.866  0.2865  0.2504  0.1714
   26SAPC   H2X 3431   5.203   5.828   6.878  0.4915  0.3249  0.0060
   26SAPC   H2Y 3432   5.342   5.706   6.867 -0.1455 -3.1843  1.8331
   26SAPC   C23 3433   4.756   5.337   6.936  0.2548 -0.2376  0.0799
   26SAPC   H3R 3434   4.806   5.239   6.924  0.1648 -0.2452 -0.2286
   26SAPC   H3S 3435   4.657   5.301   6.973 -1.1614  1.7033 -1.6463
   26SAPC   C24 3436   4.826   5.418   7.047  0.3414  0.6174  0.0417
   26SAPC   H4R 3437   4.921   5.451   6.999 -0.9914 -0.3364 -3.3701
   26SAPC   H4S 3438   4.859   5.340   7.118 -0.4817  0.1509 -0.0782
   26SAPC   C25 3439   4.752   5.540   7.101  0.0644 -0.3252  0.4796
   26SAPC   H5R 3440   4.754   5.619   7.026  1.5962 -0.6037  0.2069
   26SAPC   C26 3441   4.669   5.564   7.205 -0.0379  0.0240 -0.1858
   26SAPC   H6R 3442   4.647   5.671   7.216  0.0732  0.1562 -1.2522
   26SAPC   C27 3443   4.618   5.463   7.314 -0.2467  0.2548  0.8270
   26SAPC   H7R 3444   4.678   5.370   7.309 -1.5442 -0.5710  0.5447
   26SAPC   H7S 3445   4.520   5.433   7.272  1.3446 -0.1456 -2.7601
   26SAPC   C28 3446   4.622   5.520   7.454  0.1889  0.0925  0.6911
   26SAPC   H8R 3447   4.617   5.629   7.462  1.3912  0.1143  1.3787
   26SAPC   C29 3448   4.639   5.451   7.571  0.1603 -0.0965 -0.3166
   26SAPC   H9R 3449   4.625   5.517   7.658  0.9471  0.6505 -0.7557
   26SAPC  C210 3450   4.644   5.299   7.585 -0.4576 -0.8318  0.1484
   26SAPC  H10R 3451   4.552   5.260   7.536 -0.7129  1.6695 -1.4803
   26SAPC  H10S 3452   4.631   5.279   7.693  0.1826  2.3417  0.8573
   26SAPC  C211 3453   4.762   5.223   7.518  0.0774 -0.7144 -0.1717
   26SAPC  H11R 3454   4.750   5.194   7.412 -3.8335 -2.0033  0.5495
   26SAPC  C212 3455   4.879   5.190   7.568  0.1023  0.1420  1.4522
   26SAPC  H12R 3456   4.949   5.135   7.502 -0.5575 -0.0461  0.9024
   26SAPC  C213 3457   4.934   5.222   7.707 -0.0464 -0.2933  0.6497
   26SAPC  H13R 3458   4.865   5.195   7.790 -2.3558  2.3433 -0.3318
   26SAPC  H13S 3459   4.947   5.332   7.707 -0.0181 -0.2772 -0.8237
   26SAPC  C214 3460   5.071   5.164   7.739  1.2778  0.0478  0.7861
   26SAPC  H14R 3461   5.154   5.181   7.669  2.4613 -2.3318  1.5739
   26SAPC  C215 3462   5.106   5.095   7.850  0.0405 -0.3469  0.6821
   26SAPC  H15R 3463   5.212   5.065   7.856 -0.0785 -0.8336  0.3592
   26SAPC  C216 3464   5.008   5.067   7.963  0.2533 -0.0974 -1.6215
   26SAPC  H16R 3465   4.938   4.987   7.931 -0.4277  0.5162 -1.6950
   26SAPC  H16S 3466   4.955   5.158   7.997  2.3865  0.3646  0.6265
   26SAPC  C217 3467   5.089   5.019   8.093  0.4125 -0.1500 -0.0220
   26SAPC  H17R 3468   5.157   5.102   8.122 -1.1424  1.6636 -1.4316
   26SAPC  H17S 3469   5.143   4.924   8.072  1.5915  0.2881  0.9526
   26SAPC  C218 3470   5.000   4.998   8.221 -0.4983 -0.0095  0.3598
   26SAPC  H18R 3471   4.917   4.931   8.189 -0.5290  0.6791 -1.0728
   26SAPC  H18S 3472   4.956   5.098   8.244  0.3757  0.6237 -0.6688
   26SAPC  C219 3473   5.067   4.938   8.339  0.8271  0.1975 -0.3474
   26SAPC  H19R 3474   5.143   5.014   8.368  0.7364  0.1735 -0.0532
   26SAPC  H19S 3475   5.132   4.851   8.312  0.0642 -1.1304  2.0025
   26SAPC  C220 3476   4.972   4.888   8.452 -0.7189 -0.3283  0.4713
   26SAPC  H20R 3477   4.947   4.783   8.427  0.4561 -0.3348 -0.6806
   26SAPC  H20S 3478   4.883   4.955   8.440 -0.0414  0.1013 -2.8183
   26SAPC  H20T 3479   5.013   4.894   8.555  2.6651 -2.2684 -0.6956
   26SAPC   C33 3480   5.179   5.627   6.982  0.5645 -0.2779 -0.3008
   26SAPC   H3X 3481   5.203   5.522   6.954  0.3841  0.1742 -2.2542
   26SAPC   H3Y 3482   5.070   5.641   6.998  0.6409  2.0046 -1.5273
   26SAPC   C34 3483   5.254   5.664   7.113 -0.3391 -0.4079  0.4573
   26SAPC   H4X 3484   5.225   5.767   7.142  1.0115  0.9830 -2.8066
   26SAPC   H4Y 3485   5.363   5.673   7.094  0.3359 -2.8992  2.8754
   26SAPC   C35 3486   5.233   5.567   7.230  0.5179 -0.2982 -0.1734
   26SAPC   H5X 3487   5.270   5.466   7.201  1.9776  0.1400  0.1273
   26SAPC   H5Y 3488   5.125   5.567   7.258  0.6157 -1.5008  0.2552
   26SAPC   C36 3489   5.315   5.609   7.351  0.5821  0.6389  0.0708
   26SAPC   H6X 3490   5.273   5.704   7.391  0.6833  1.0872 -0.8728
   26SAPC   H6Y 3491   5.421   5.632   7.327  0.6856  1.3598  1.1613
   26SAPC   C37 3492   5.317   5.508   7.462 -0.5133  0.3205 -0.5739
   26SAPC   H7X 3493   5.353   5.414   7.416 -1.8692  0.0129 -1.0268
   26SAPC   H7Y 3494   5.212   5.485   7.491  0.3709 -1.5340  1.3087
   26SAPC   C38 3495   5.394   5.534   7.596  0.1590  0.1566 -0.4406
   26SAPC   H8X 3496   5.504   5.542   7.584  0.0830 -0.5357 -1.6452
   26SAPC   H8Y 3497   5.375   5.444   7.658  0.3182  0.0056 -0.6113
   26SAPC   C39 3498   5.353   5.664   7.671 -0.0008 -0.2149  0.3011
   26SAPC   H9X 3499   5.245   5.676   7.695  0.2287  0.6805  0.9302
   26SAPC   H9Y 3500   5.377   5.754   7.610 -3.4603  0.7091  0.1750
   26SAPC  C310 3501   5.418   5.684   7.811  0.0261 -0.1831 -0.8677
   26SAPC  H10X 3502   5.524   5.710   7.791 -0.0524  0.4631 -0.4696
   26SAPC  H10Y 3503   5.417   5.585   7.861 -0.5219  0.0399 -0.4306
   26SAPC  C311 3504   5.351   5.788   7.898 -0.4057  0.3399 -0.0605
   26SAPC  H11X 3505   5.241   5.777   7.914 -0.3263  1.1664  1.0798
   26SAPC  H11Y 3506   5.379   5.884   7.848  0.3257 -0.8606 -2.0342
   26SAPC  C312 3507   5.416   5.780   8.038 -0.3733  0.8252  0.7508
   26SAPC  H12X 3508   5.523   5.808   8.021  0.2809 -1.3404  1.1099
   26SAPC  H12Y 3509   5.406   5.675   8.073  0.2284  0.3305 -0.5079
   26SAPC  C313 3510   5.350   5.874   8.138  0.7991  0.3064  0.2665
   26SAPC  H13X 3511   5.248   5.831   8.146  1.3399 -1.2436 -0.8153
   26SAPC  H13Y 3512   5.334   5.975   8.094 -1.4710 -0.5681 -0.9961
   26SAPC  C314 3513   5.418   5.880   8.272  0.0357 -0.4683  0.0725
   26SAPC  H14X 3514   5.507   5.945   8.259  0.0757 -0.4669  0.3436
   26SAPC  H14Y 3515   5.461   5.783   8.302 -0.1798  0.0458  2.1274
   26SAPC  C315 3516   5.330   5.945   8.387 -0.2417 -0.1384  0.6251
   26SAPC  H15X 3517   5.244   5.879   8.412  1.0045 -2.0185  0.1073
   26SAPC  H15Y 3518   5.283   6.039   8.350 -1.3476 -1.2838 -0.9644
   26SAPC  C316 3519   5.412   5.969   8.508 -0.5925  0.4502 -0.6998
   26SAPC  H16X 3520   5.504   6.030   8.494  0.0582  0.4710  3.1376
   26SAPC  H16Y 3521   5.443   5.868   8.542  0.7355  1.5657  1.5108
   26SAPC  C317 3522   5.331   6.037   8.614  0.0558  0.6289 -0.5470
   26SAPC  H17X 3523   5.227   5.999   8.625 -1.0196  3.5053 -0.3181
   26SAPC  H17Y 3524   5.311   6.139   8.575 -0.6839  0.3319 -0.9540
   26SAPC  C318 3525   5.405   6.043   8.753 -0.7903  0.5868 -0.1789
   26SAPC  H18X 3526   5.409   5.947   8.809  0.2815  0.0850 -1.1027
   26SAPC  H18Y 3527   5.372   6.129   8.815 -0.3799 -1.1098  2.4276
   26SAPC  H18Z 3528   5.512   6.055   8.725 -0.4159  1.1181  1.4395
   27SAPC     N 3529   2.643   5.697   6.484  0.4579 -0.2248  0.0853
   27SAPC   C12 3530   2.668   5.589   6.593 -0.3278 -0.1615  0.2807
   27SAPC  H12A 3531   2.697   5.648   6.679  2.1270  1.1809 -1.4138
   27SAPC  H12B 3532   2.749   5.531   6.551 -0.9669 -2.8158  2.5918
   27SAPC   C13 3533   2.747   5.798   6.467 -0.4592  0.3467  0.4600
   27SAPC  H13A 3534   2.839   5.763   6.422 -0.9180  0.6532 -0.7301
   27SAPC  H13B 3535   2.710   5.873   6.398  2.3157  0.6330 -0.7866
   27SAPC  H13C 3536   2.777   5.853   6.555  1.1316  0.7279 -0.2861
   27SAPC   C14 3537   2.611   5.629   6.358 -0.7277 -0.7651  0.2545
   27SAPC  H14A 3538   2.584   5.691   6.274 -0.8126 -0.6191  0.3885
   27SAPC  H14B 3539   2.683   5.559   6.319 -1.4923 -0.6673 -1.3720
   27SAPC  H14C 3540   2.528   5.564   6.381  0.0788 -1.6506  0.6867
   27SAPC   C15 3541   2.514   5.774   6.523  0.4638 -0.1515 -0.4429
   27SAPC  H15A 3542   2.430   5.706   6.519  0.9595 -0.6668 -2.7985
   27SAPC  H15B 3543   2.526   5.811   6.624 -0.7403  0.0004 -0.3573
   27SAPC  H15C 3544   2.497   5.865   6.468  0.9190 -1.1561 -2.2875
   27SAPC   C11 3545   2.562   5.487   6.638 -0.1795 -0.4841  0.2800
   27SAPC  H11A 3546   2.615   5.409   6.696 -1.2249 -1.2520  0.2171
   27SAPC  H11B 3547   2.531   5.439   6.543  1.6994 -2.4024  0.6180
   27SAPC     P 3548   2.460   5.579   6.852  0.4366  0.5409 -0.0496
   27SAPC   O13 3549   2.580   5.650   6.899  0.0261 -0.0354 -0.6307
   27SAPC   O14 3550   2.325   5.637   6.876  0.2685 -0.8978 -0.0068
   27SAPC   O12 3551   2.461   5.560   6.705  0.3223 -0.1350 -0.1265
   27SAPC   O11 3552   2.470   5.432   6.914  0.2830  0.0995 -0.0909
   27SAPC    C1 3553   2.376   5.332   6.865  0.4169 -0.4831  0.2179
   27SAPC    HA 3554   2.273   5.372   6.857  0.5061 -0.0002  1.3588
   27SAPC    HB 3555   2.414   5.293   6.768 -0.7633  0.4906 -0.6407
   27SAPC    C2 3556   2.379   5.215   6.961  0.4273  0.2885 -0.5848
   27SAPC    HS 3557   2.316   5.129   6.929 -1.4659  2.0434 -1.7351
   27SAPC   O21 3558   2.338   5.263   7.092  0.2006 -0.8602 -0.1003
   27SAPC   C21 3559   2.213   5.291   7.111  0.8097 -0.5497 -0.1512
   27SAPC   O22 3560   2.121   5.275   7.030 -0.2973 -0.2529 -0.3640
   27SAPC   C22 3561   2.191   5.337   7.253  0.0676  0.7302  0.5163
   27SAPC   H2R 3562   2.238   5.266   7.324  2.0309  0.3808 -1.0822
   27SAPC   H2S 3563   2.229   5.440   7.275  1.7145  0.7834 -2.3426
   27SAPC    C3 3564   2.518   5.162   6.969 -0.0757 -0.6186  0.5003
   27SAPC    HX 3565   2.576   5.249   7.006 -0.1797 -0.8712  1.2715
   27SAPC    HY 3566   2.551   5.137   6.865 -0.5110 -0.8474  0.4138
   27SAPC   O31 3567   2.536   5.049   7.057  0.3862 -0.5221  0.3641
   27SAPC   C31 3568   2.491   4.931   7.013 -0.9055 -0.5687 -0.3246
   27SAPC   O32 3569   2.449   4.899   6.904 -0.2747 -0.2751 -0.1258
   27SAPC   C32 3570   2.502   4.837   7.124  0.0137  0.5090 -0.3941
   27SAPC   H2X 3571   2.557   4.888   7.205  1.0055  0.3680 -0.9747
   27SAPC   H2Y 3572   2.575   4.757   7.098 -1.5693 -1.2603  0.4056
   27SAPC   C23 3573   2.043   5.335   7.289 -0.1262  0.4795  0.7709
   27SAPC   H3R 3574   2.009   5.230   7.283  0.1724  0.3989  0.4643
   27SAPC   H3S 3575   1.994   5.387   7.203  1.2578 -2.3154 -1.7853
   27SAPC   C24 3576   2.027   5.412   7.418  0.0446  0.3463 -0.0910
   27SAPC   H4R 3577   2.059   5.515   7.392  0.6891  0.3856  0.8051
   27SAPC   H4S 3578   2.097   5.371   7.494  1.4425  3.2468  0.2745
   27SAPC   C25 3579   1.883   5.413   7.453 -0.1798  0.5492 -0.2611
   27SAPC   H5R 3580   1.817   5.410   7.366 -0.6024  0.6945  0.0499
   27SAPC   C26 3581   1.837   5.386   7.576 -0.8772  0.1038 -0.2773
   27SAPC   H6R 3582   1.728   5.379   7.590 -0.6167 -1.7988  0.9510
   27SAPC   C27 3583   1.920   5.385   7.703  0.3484  1.1987  0.3393
   27SAPC   H7R 3584   2.025   5.405   7.672  0.4434 -0.3555 -0.4236
   27SAPC   H7S 3585   1.913   5.286   7.753 -0.8433  1.8697  1.5107
   27SAPC   C28 3586   1.860   5.496   7.784 -0.4768  0.3966  0.5079
   27SAPC   H8R 3587   1.845   5.590   7.728 -0.9266  0.9867  1.6049
   27SAPC   C29 3588   1.841   5.504   7.920 -0.2344 -0.0599 -0.1499
   27SAPC   H9R 3589   1.797   5.593   7.967  0.2222 -1.1062  2.3492
   27SAPC  C210 3590   1.874   5.392   8.017 -0.1366 -1.3935 -0.2737
   27SAPC  H10R 3591   1.954   5.322   7.984  2.4078  0.2119  2.1802
   27SAPC  H10S 3592   1.787   5.325   8.031 -0.2964 -1.1802 -0.2511
   27SAPC  C211 3593   1.921   5.441   8.160  0.5824  0.7626 -0.4792
   27SAPC  H11R 3594   2.000   5.517   8.150  0.7372  0.9065  1.5488
   27SAPC  C212 3595   1.873   5.403   8.281 -0.7633 -0.0068  0.2821
   27SAPC  H12R 3596   1.924   5.448   8.367 -0.2310 -0.6460  0.3102
   27SAPC  C213 3597   1.754   5.311   8.314 -0.1720 -0.0497  0.2722
   27SAPC  H13R 3598   1.778   5.212   8.270  0.2460  0.7316 -1.2674
   27SAPC  H13S 3599   1.663   5.345   8.261 -0.9468 -0.6986  1.1571
   27SAPC  C214 3600   1.733   5.320   8.466 -0.4056 -0.2809 -0.9401
   27SAPC  H14R 3601   1.770   5.237   8.529  3.1590  2.0723  0.2157
   27SAPC  C215 3602   1.675   5.420   8.544 -0.1492  0.7423 -0.3809
   27SAPC  H15R 3603   1.670   5.403   8.652  0.9198 -0.7378 -0.5407
   27SAPC  C216 3604   1.626   5.552   8.497  0.1314 -0.4457  0.4387
   27SAPC  H16R 3605   1.516   5.551   8.481  0.2679  0.6514 -0.5384
   27SAPC  H16S 3606   1.672   5.576   8.399 -0.1073 -3.2780 -0.4310
   27SAPC  C217 3607   1.668   5.666   8.594 -0.8946 -0.3595 -0.2422
   27SAPC  H17R 3608   1.625   5.757   8.547 -1.6876  0.4609  1.9762
   27SAPC  H17S 3609   1.778   5.670   8.602 -1.0350  1.1329  1.1683
   27SAPC  C218 3610   1.610   5.659   8.730 -0.3414 -0.0630 -0.1904
   27SAPC  H18R 3611   1.647   5.753   8.776 -3.4808  0.4771  1.4159
   27SAPC  H18S 3612   1.658   5.579   8.789  1.7679 -0.2186 -2.0769
   27SAPC  C219 3613   1.459   5.654   8.743  0.0918  0.0500  0.5026
   27SAPC  H19R 3614   1.417   5.569   8.686 -0.7045  0.8173 -0.0576
   27SAPC  H19S 3615   1.411   5.750   8.712  1.9264  0.9105  0.2486
   27SAPC  C220 3616   1.418   5.630   8.889 -0.4517  0.4354 -0.3931
   27SAPC  H20R 3617   1.308   5.616   8.895 -0.6959  2.2629 -0.2130
   27SAPC  H20S 3618   1.440   5.714   8.958 -1.0205  0.9277 -0.8011
   27SAPC  H20T 3619   1.461   5.537   8.932  0.4566  0.8118 -0.4793
   27SAPC   C33 3620   2.362   4.797   7.163 -0.2988 -0.0445 -0.4407
   27SAPC   H3X 3621   2.361   4.700   7.217  2.1919 -0.2643 -0.7550
   27SAPC   H3Y 3622   2.284   4.795   7.083 -2.2790  1.8152  1.3977
   27SAPC   C34 3623   2.300   4.893   7.263 -0.0593 -0.1872 -0.5219
   27SAPC   H4X 3624   2.311   4.989   7.209 -0.2005  0.5540  0.7255
   27SAPC   H4Y 3625   2.355   4.905   7.359 -0.4511  1.6531 -0.5095
   27SAPC   C35 3626   2.152   4.878   7.289 -0.4247  0.4610  0.4390
   27SAPC   H5X 3627   2.121   4.774   7.313 -1.9140  1.3769  2.7315
   27SAPC   H5Y 3628   2.087   4.909   7.205 -0.1950 -0.1980  0.0178
   27SAPC   C36 3629   2.102   4.953   7.417 -0.6244  0.2282  0.6986
   27SAPC   H6X 3630   1.991   4.959   7.412 -0.5153  3.3861  1.4073
   27SAPC   H6Y 3631   2.152   5.052   7.418 -2.3315  1.1572 -1.5136
   27SAPC   C37 3632   2.133   4.886   7.552 -0.0980  0.0550  0.1457
   27SAPC   H7X 3633   2.241   4.869   7.569  0.3266  2.2322 -0.1972
   27SAPC   H7Y 3634   2.085   4.786   7.553  0.1749 -0.0746  0.3473
   27SAPC   C38 3635   2.075   4.976   7.666 -0.3221  0.8785 -0.2327
   27SAPC   H8X 3636   1.966   4.956   7.675 -0.4738  2.0321  0.6556
   27SAPC   H8Y 3637   2.087   5.086   7.658 -1.5614  0.9754 -0.8490
   27SAPC   C39 3638   2.139   4.938   7.807 -0.1776  0.1311  0.3850
   27SAPC   H9X 3639   2.249   4.949   7.794 -0.1859  0.7339  0.7975
   27SAPC   H9Y 3640   2.141   4.831   7.836 -0.5791 -0.7262 -2.5554
   27SAPC  C310 3641   2.082   5.013   7.930 -0.1167 -1.1713 -1.0795
   27SAPC  H10X 3642   1.972   5.000   7.923 -0.5598  0.4485  2.1399
   27SAPC  H10Y 3643   2.099   5.122   7.919 -1.2723 -0.9844 -1.0202
   27SAPC  C311 3644   2.148   4.965   8.061  0.4514  0.1183 -0.3579
   27SAPC  H11X 3645   2.255   4.991   8.066  0.0284  1.4133  2.6776
   27SAPC  H11Y 3646   2.137   4.854   8.064 -0.5873  0.2621  2.0798
   27SAPC  C312 3647   2.065   5.014   8.185 -0.2024 -0.8848  0.1534
   27SAPC  H12X 3648   1.960   5.019   8.147  0.3268  0.6504 -1.1807
   27SAPC  H12Y 3649   2.087   5.119   8.214 -1.5460 -0.8925  1.2653
   27SAPC  C313 3650   2.073   4.920   8.304  0.3012 -0.2375 -0.1562
   27SAPC  H13X 3651   2.164   4.928   8.366  0.4390 -2.5815 -0.0435
   27SAPC  H13Y 3652   2.067   4.817   8.263 -2.6335  0.5958 -2.0083
   27SAPC  C314 3653   1.948   4.934   8.403  0.7358 -0.3353 -0.4314
   27SAPC  H14X 3654   1.854   4.921   8.346  0.7563 -2.5492  0.0035
   27SAPC  H14Y 3655   1.951   5.039   8.437 -0.8744  0.1289 -1.7017
   27SAPC  C315 3656   1.965   4.837   8.523  0.1324  0.1441  0.5158
   27SAPC  H15X 3657   2.058   4.871   8.575  0.9630 -0.8287 -0.3084
   27SAPC  H15Y 3658   1.968   4.740   8.469  0.4855  0.9243 -0.8815
   27SAPC  C316 3659   1.842   4.859   8.621 -0.2594 -0.6235 -0.1315
   27SAPC  H16X 3660   1.749   4.814   8.580  0.3779 -0.6262 -1.6015
   27SAPC  H16Y 3661   1.835   4.969   8.631 -0.7403 -0.4036 -2.4296
   27SAPC  C317 3662   1.871   4.814   8.759  0.1325 -0.9246  0.4614
   27SAPC  H17X 3663   1.944   4.881   8.810  0.8349 -0.1453 -1.4915
   27SAPC  H17Y 3664   1.918   4.714   8.758  0.5451 -0.7305  0.2669
   27SAPC  C318 3665   1.740   4.802   8.841  0.2774 -0.6669  0.0458
   27SAPC  H18X 3666   1.696   4.903   8.857 -0.1370 -0.5106 -1.9387
   27SAPC  H18Y 3667   1.760   4.759   8.942  0.7545  1.0987  0.7205
   27SAPC  H18Z 3668   1.666   4.739   8.788 -0.7506 -0.2651  0.9885
   28SAPC     N 3669   1.651   2.179   6.264  0.0979 -0.0992  0.2736
   28SAPC   C12 3670   1.549   2.219   6.374 -0.1436 -0.5208  0.1806
   28SAPC  H12A 3671   1.586   2.309   6.422  0.5299  0.0804 -1.4218
   28SAPC  H12B 3672   1.550   2.145   6.452 -0.3063 -1.5488 -0.7912
   28SAPC   C13 3673   1.594   2.063   6.176  0.0857 -0.4842  0.1703
   28SAPC  H13A 3674   1.575   1.978   6.240  1.5308  1.2245  2.9685
   28SAPC  H13B 3675   1.504   2.099   6.128  0.7809 -0.4672 -1.1278
   28SAPC  H13C 3676   1.664   2.027   6.102  0.0660 -1.2536  0.5183
   28SAPC   C14 3677   1.675   2.308   6.183 -0.3755  0.0687 -0.3981
   28SAPC  H14A 3678   1.719   2.384   6.246 -0.4210 -2.2144  2.4481
   28SAPC  H14B 3679   1.731   2.287   6.093  0.6967  1.2361 -0.0194
   28SAPC  H14C 3680   1.580   2.346   6.149 -2.0415 -2.5536  1.1904
   28SAPC   C15 3681   1.773   2.142   6.340 -0.2465  0.4065 -0.3932
   28SAPC  H15A 3682   1.848   2.102   6.274  0.9871  2.3402 -0.2040
   28SAPC  H15B 3683   1.822   2.228   6.384 -1.5038  1.3844 -0.8870
   28SAPC  H15C 3684   1.760   2.062   6.411  1.8411 -1.0448 -1.6166
   28SAPC   C11 3685   1.399   2.255   6.338  0.4086  0.4483  0.4892
   28SAPC  H11A 3686   1.394   2.328   6.254  1.0257  3.7046  3.1790
   28SAPC  H11B 3687   1.353   2.303   6.427 -3.1747 -2.0351  0.0711
   28SAPC     P 3688   1.270   2.030   6.399 -0.5456 -0.4329  0.4329
   28SAPC   O13 3689   1.156   2.086   6.472  0.4837 -0.1268 -0.0101
   28SAPC   O14 3690   1.237   1.906   6.325 -0.1884 -0.3068 -0.3620
   28SAPC   O12 3691   1.325   2.143   6.295 -0.2029 -0.1684 -0.8670
   28SAPC   O11 3692   1.395   2.025   6.498  0.1224  0.1036  0.4156
   28SAPC    C1 3693   1.441   1.897   6.540  0.2895  0.3762 -0.0947
   28SAPC    HA 3694   1.474   1.836   6.453 -1.8585 -0.3171 -0.4464
   28SAPC    HB 3695   1.535   1.922   6.594 -0.6149 -0.5593  1.9650
   28SAPC    C2 3696   1.346   1.806   6.624 -0.6342  0.1935  0.4405
   28SAPC    HS 3697   1.279   1.765   6.545 -1.6169  0.2895  1.2189
   28SAPC   O21 3698   1.276   1.889   6.726 -0.3165 -0.8609  0.5729
   28SAPC   C21 3699   1.146   1.884   6.727  0.2636 -0.1717  1.4513
   28SAPC   O22 3700   1.081   1.810   6.651 -0.2989  0.1095 -0.0123
   28SAPC   C22 3701   1.086   1.975   6.833 -0.1135 -0.6515 -0.7118
   28SAPC   H2R 3702   1.157   1.976   6.919 -0.1974 -4.4071 -0.5225
   28SAPC   H2S 3703   1.064   2.074   6.788 -2.5445 -0.5115  0.7337
   28SAPC    C3 3704   1.431   1.699   6.694 -0.4463  0.4057 -0.3078
   28SAPC    HX 3705   1.465   1.627   6.616  3.1251 -2.0187  3.3170
   28SAPC    HY 3706   1.364   1.644   6.762  1.9998 -2.1660  0.1274
   28SAPC   O31 3707   1.546   1.753   6.760 -0.5692 -0.1034 -0.1826
   28SAPC   C31 3708   1.523   1.794   6.891 -0.3396  0.7593 -0.3591
   28SAPC   O32 3709   1.432   1.758   6.960  0.0539 -0.0589 -0.4169
   28SAPC   C32 3710   1.623   1.902   6.928 -1.2706  0.0177  0.1927
   28SAPC   H2X 3711   1.625   1.972   6.841  2.3816  1.8959  1.6362
   28SAPC   H2Y 3712   1.721   1.850   6.937 -0.1580  1.5061 -2.7566
   28SAPC   C23 3713   0.950   1.927   6.893  0.1202  0.1785  0.4287
   28SAPC   H3R 3714   0.901   1.872   6.811  0.8641  2.6541 -1.7512
   28SAPC   H3S 3715   0.888   2.016   6.919 -2.0207 -0.9210 -0.7950
   28SAPC   C24 3716   0.957   1.825   7.003 -0.7106  0.2038 -0.0744
   28SAPC   H4R 3717   1.031   1.749   6.969 -0.3217  0.5000  0.1013
   28SAPC   H4S 3718   1.012   1.872   7.088 -0.5167  2.2358 -1.3096
   28SAPC   C25 3719   0.827   1.752   7.037  0.6643 -0.6258  0.1315
   28SAPC   H5R 3720   0.766   1.729   6.948  3.0656 -0.5542 -1.5792
   28SAPC   C26 3721   0.771   1.719   7.153 -0.2248 -0.0075  0.1039
   28SAPC   H6R 3722   0.684   1.652   7.151 -1.1282  1.1578 -2.1401
   28SAPC   C27 3723   0.819   1.744   7.286 -0.2164  0.2381 -0.1740
   28SAPC   H7R 3724   0.930   1.755   7.283 -0.3857  2.4027  0.6762
   28SAPC   H7S 3725   0.816   1.649   7.345  0.5548  1.2551  1.5587
   28SAPC   C28 3726   0.766   1.867   7.353  0.4680  0.5269 -0.9860
   28SAPC   H8R 3727   0.722   1.947   7.291  0.0455  1.3083  0.3161
   28SAPC   C29 3728   0.739   1.886   7.479  0.7426 -0.4517  0.6568
   28SAPC   H9R 3729   0.708   1.987   7.509  2.5899  0.3710 -0.1902
   28SAPC  C210 3730   0.757   1.781   7.587  0.4631 -0.4872 -0.2511
   28SAPC  H10R 3731   0.837   1.822   7.652  1.5124 -2.1580 -0.4625
   28SAPC  H10S 3732   0.802   1.683   7.561  1.1290 -0.7847  1.9168
   28SAPC  C211 3733   0.633   1.777   7.670 -0.1112 -0.2266  0.4107
   28SAPC  H11R 3734   0.542   1.756   7.612  0.0517  2.6968 -1.0176
   28SAPC  C212 3735   0.631   1.763   7.808 -0.0032 -1.0939  0.0023
   28SAPC  H12R 3736   0.537   1.774   7.865  1.0454 -0.1331  1.5784
   28SAPC  C213 3737   0.744   1.756   7.911  0.1274 -0.2935  0.0301
   28SAPC  H13R 3738   0.841   1.735   7.860 -0.1309 -0.9544 -0.1970
   28SAPC  H13S 3739   0.729   1.675   7.985  1.3868 -0.9661 -0.4215
   28SAPC  C214 3740   0.750   1.884   7.982  0.2299  0.7499 -0.7330
   28SAPC  H14R 3741   0.797   1.972   7.936  1.8888 -0.6936 -1.9053
   28SAPC  C215 3742   0.687   1.908   8.101 -0.2329 -0.7110 -0.5738
   28SAPC  H15R 3743   0.705   2.008   8.143 -2.5287  0.2703 -1.7970
   28SAPC  C216 3744   0.607   1.819   8.181 -0.4267 -0.0396  0.0442
   28SAPC  H16R 3745   0.656   1.802   8.280 -2.8886 -0.1821  1.2716
   28SAPC  H16S 3746   0.586   1.722   8.133 -3.0780  0.4840  0.0725
   28SAPC  C217 3747   0.477   1.893   8.209 -0.2783  0.2501  1.1187
   28SAPC  H17R 3748   0.400   1.820   8.242  0.1002  0.6017  2.8426
   28SAPC  H17S 3749   0.430   1.930   8.115  0.6409  0.2619  0.6594
   28SAPC  C218 3750   0.494   2.018   8.291 -0.4204  0.2365 -0.5615
   28SAPC  H18R 3751   0.556   2.101   8.251  2.2811 -2.3503 -1.9495
   28SAPC  H18S 3752   0.542   1.993   8.388  0.6642 -1.5517 -1.5318
   28SAPC  C219 3753   0.352   2.077   8.331 -0.2027  0.2599 -0.4476
   28SAPC  H19R 3754   0.290   1.998   8.379 -1.7861  1.9489  0.3421
   28SAPC  H19S 3755   0.311   2.109   8.233 -0.2211 -1.5336 -1.0502
   28SAPC  C220 3756   0.357   2.206   8.420 -0.0066  0.2568 -0.4542
   28SAPC  H20R 3757   0.435   2.275   8.381  1.2445 -0.9918 -0.2088
   28SAPC  H20S 3758   0.407   2.175   8.514 -1.0778 -0.9789 -0.2741
   28SAPC  H20T 3759   0.256   2.251   8.428 -0.1154  0.3201 -1.9010
   28SAPC   C33 3760   1.582   1.982   7.052  0.3841  0.2818  0.2642
   28SAPC   H3X 3761   1.473   2.003   7.050  0.7240  2.2656  1.4106
   28SAPC   H3Y 3762   1.625   2.084   7.059 -0.0646  0.4778  0.1676
   28SAPC   C34 3763   1.614   1.896   7.182  0.0341  0.7920 -0.3010
   28SAPC   H4X 3764   1.719   1.862   7.166 -0.0406  1.4018 -2.1583
   28SAPC   H4Y 3765   1.555   1.803   7.194  1.4603 -0.2211 -0.9244
   28SAPC   C35 3766   1.610   1.979   7.311  0.4056  0.0342  0.7067
   28SAPC   H5X 3767   1.502   1.998   7.332 -0.1297 -0.7088 -1.2423
   28SAPC   H5Y 3768   1.652   2.081   7.298  0.1270 -0.0279 -0.7446
   28SAPC   C36 3769   1.692   1.921   7.427 -0.4591 -0.1368  0.7598
   28SAPC   H6X 3770   1.800   1.943   7.412 -0.4901  0.1362  0.9401
   28SAPC   H6Y 3771   1.680   1.811   7.433  0.8679 -0.2869  0.9113
   28SAPC   C37 3772   1.645   1.983   7.555  0.1899 -0.3384  0.6119
   28SAPC   H7X 3773   1.544   1.940   7.570 -0.3448  1.7619  3.5653
   28SAPC   H7Y 3774   1.635   2.094   7.557  2.2825 -0.0790 -1.6081
   28SAPC   C38 3775   1.740   1.946   7.668  0.6094  0.6695 -0.3385
   28SAPC   H8X 3776   1.698   1.987   7.762  0.4489 -0.4352  0.0795
   28SAPC   H8Y 3777   1.834   2.004   7.657 -0.3533  2.2174 -0.7448
   28SAPC   C39 3778   1.752   1.800   7.690  0.0605  0.0172 -0.1020
   28SAPC   H9X 3779   1.801   1.752   7.602  0.3610 -1.3735  0.8112
   28SAPC   H9Y 3780   1.650   1.756   7.684 -0.2752  0.8966 -1.2633
   28SAPC  C310 3781   1.824   1.756   7.820  0.1552 -0.1995  0.1698
   28SAPC  H10X 3782   1.804   1.818   7.910 -1.4861 -2.0807  1.1274
   28SAPC  H10Y 3783   1.934   1.769   7.813  0.1887  0.4364  1.7122
   28SAPC  C311 3784   1.798   1.611   7.844  0.2368  0.2208 -0.3299
   28SAPC  H11X 3785   1.858   1.579   7.931 -1.2756  0.0857  0.6806
   28SAPC  H11Y 3786   1.834   1.548   7.760  1.6305  2.2602 -1.2808
   28SAPC  C312 3787   1.647   1.584   7.881  0.4413 -0.5650  0.0793
   28SAPC  H12X 3788   1.580   1.595   7.793 -0.9297 -1.4204  0.9860
   28SAPC  H12Y 3789   1.616   1.668   7.946  0.4247 -0.5674  0.0752
   28SAPC  C313 3790   1.618   1.465   7.976 -0.7114 -0.0618 -0.0361
   28SAPC  H13X 3791   1.683   1.468   8.066 -0.7099 -0.4969 -0.0216
   28SAPC  H13Y 3792   1.623   1.374   7.914  0.5795  0.0344 -0.0821
   28SAPC  C314 3793   1.468   1.463   8.025  0.3486 -0.1578  0.2144
   28SAPC  H14X 3794   1.404   1.456   7.934  1.3144  0.2658 -0.5012
   28SAPC  H14Y 3795   1.430   1.548   8.085 -0.6893  0.0024 -0.6573
   28SAPC  C315 3796   1.446   1.328   8.095  0.3580 -0.0963  0.0145
   28SAPC  H15X 3797   1.490   1.241   8.042  1.6192  0.6632 -0.2051
   28SAPC  H15Y 3798   1.336   1.316   8.101  0.1572  1.7953  0.6389
   28SAPC  C316 3799   1.498   1.333   8.242 -0.8001 -0.5101 -0.3190
   28SAPC  H16X 3800   1.607   1.354   8.237 -0.7424 -0.6687  0.2538
   28SAPC  H16Y 3801   1.475   1.240   8.299 -2.5030  0.0576 -0.0467
   28SAPC  C317 3802   1.423   1.428   8.331 -0.1445  0.1232  0.0994
   28SAPC  H17X 3803   1.315   1.401   8.333 -0.0665 -0.4153 -1.9873
   28SAPC  H17Y 3804   1.415   1.530   8.287 -0.9558 -0.1862 -0.5030
   28SAPC  C318 3805   1.473   1.431   8.473  0.8442 -0.2096 -0.4231
   28SAPC  H18X 3806   1.488   1.330   8.517 -0.0729  0.4122  1.3949
   28SAPC  H18Y 3807   1.408   1.482   8.549  1.3659  0.2340 -0.2718
   28SAPC  H18Z 3808   1.567   1.489   8.467  0.0249  1.6841  3.3728
   29SAPC     N 3809   4.317   5.924   6.245 -0.1448 -0.5322  0.7977
   29SAPC   C12 3810   4.253   5.977   6.371  0.4930  0.3372  0.0501
   29SAPC  H12A 3811   4.206   6.069   6.338 -1.8145 -0.7396  0.2962
   29SAPC  H12B 3812   4.325   6.001   6.448  0.1935 -0.0634  0.4549
   29SAPC   C13 3813   4.208   5.892   6.140  0.2627 -0.2048  0.0021
   29SAPC  H13A 3814   4.151   5.980   6.114  0.4584  0.2007  0.9349
   29SAPC  H13B 3815   4.250   5.852   6.049 -0.4499  1.2989 -1.0157
   29SAPC  H13C 3816   4.134   5.826   6.182  0.5267 -0.5042 -0.0055
   29SAPC   C14 3817   4.398   6.034   6.187  0.2548 -0.8660  0.3927
   29SAPC  H14A 3818   4.436   6.008   6.089  0.1249 -2.4181  0.7438
   29SAPC  H14B 3819   4.344   6.126   6.166  0.6999 -0.8643 -0.8260
   29SAPC  H14C 3820   4.476   6.059   6.258  0.8252 -1.7277  0.0697
   29SAPC   C15 3821   4.402   5.806   6.257  0.1935 -0.1091 -0.0420
   29SAPC  H15A 3822   4.485   5.815   6.326  1.5184  1.0420 -1.7685
   29SAPC  H15B 3823   4.353   5.713   6.282  1.8252 -1.0441 -0.2399
   29SAPC  H15C 3824   4.447   5.788   6.161  1.4975  0.7565  0.3907
   29SAPC   C11 3825   4.149   5.885   6.442 -0.4558  0.3206 -0.5504
   29SAPC  H11A 3826   4.135   5.927   6.543  0.0210 -0.7176 -0.0461
   29SAPC  H11B 3827   4.192   5.786   6.467 -2.7722  0.4661  4.6206
   29SAPC     P 3828   3.902   5.940   6.422  0.4936  0.1659  0.0822
   29SAPC   O13 3829   3.936   6.080   6.418 -0.1835  0.2404 -0.2139
   29SAPC   O14 3830   3.776   5.906   6.343  0.1914  0.0041  0.1075
   29SAPC   O12 3831   4.027   5.862   6.361 -0.0835  0.3314 -0.0516
   29SAPC   O11 3832   3.880   5.893   6.577  0.5222  0.0928  0.1921
   29SAPC    C1 3833   3.871   5.985   6.682  0.0889 -0.3074  0.2239
   29SAPC    HA 3834   3.963   6.046   6.699 -0.5009  1.2421 -1.9154
   29SAPC    HB 3835   3.792   6.062   6.666 -0.6642 -1.2731 -0.7160
   29SAPC    C2 3836   3.837   5.910   6.821  0.2189 -0.4409  0.7189
   29SAPC    HS 3837   3.846   5.975   6.910  0.8640 -1.1433  1.1751
   29SAPC   O21 3838   3.932   5.800   6.839 -0.1842 -0.3983 -0.0190
   29SAPC   C21 3839   4.055   5.826   6.858 -1.4309  0.3269  0.0350
   29SAPC   O22 3840   4.103   5.932   6.891  0.4458 -0.2579 -0.1156
   29SAPC   C22 3841   4.140   5.710   6.838 -0.3924  0.4194  0.1927
   29SAPC   H2R 3842   4.112   5.623   6.900  0.6412 -0.2149 -0.2240
   29SAPC   H2S 3843   4.142   5.683   6.730 -3.3607  0.0917  0.1627
   29SAPC    C3 3844   3.695   5.851   6.833  0.2934  0.2587  0.5708
   29SAPC    HX 3845   3.671   5.785   6.747 -1.7792 -0.3016  1.5365
   29SAPC    HY 3846   3.623   5.936   6.824  1.8582  1.5369 -0.0858
   29SAPC   O31 3847   3.678   5.780   6.957 -0.4036 -0.7642  0.4877
   29SAPC   C31 3848   3.720   5.649   6.970  0.0412 -0.2275  0.7439
   29SAPC   O32 3849   3.733   5.573   6.872 -0.5819  0.4230  0.2308
   29SAPC   C32 3850   3.720   5.612   7.114  0.3177  0.0531  0.0038
   29SAPC   H2X 3851   3.617   5.580   7.139  0.4300  0.8563  1.5117
   29SAPC   H2Y 3852   3.750   5.701   7.173 -1.8905  1.5407 -1.0661
   29SAPC   C23 3853   4.291   5.729   6.882  0.1335  0.5947  0.5597
   29SAPC   H3R 3854   4.339   5.817   6.832  1.7681  0.0370  1.1002
   29SAPC   H3S 3855   4.348   5.648   6.831 -1.1362  0.2324 -0.3067
   29SAPC   C24 3856   4.332   5.719   7.030 -1.0581  0.8939 -0.2032
   29SAPC   H4R 3857   4.442   5.721   7.043 -1.1112 -0.9605  0.6478
   29SAPC   H4S 3858   4.309   5.619   7.072  1.4540 -0.2495 -1.4434
   29SAPC   C25 3859   4.289   5.829   7.123 -0.8132 -0.0870 -0.5129
   29SAPC   H5R 3860   4.336   5.927   7.106  1.7339 -1.2084 -0.2069
   29SAPC   C26 3861   4.218   5.822   7.231 -0.4026  0.7573  0.4757
   29SAPC   H6R 3862   4.204   5.906   7.301 -0.3455  0.5367  0.7516
   29SAPC   C27 3863   4.140   5.705   7.293  0.7540  0.1958  0.0876
   29SAPC   H7R 3864   4.056   5.674   7.227  0.7943 -0.5279  0.3677
   29SAPC   H7S 3865   4.083   5.744   7.380  1.9364  0.0680  0.9367
   29SAPC   C28 3866   4.224   5.588   7.336 -0.2213 -0.1228 -0.2813
   29SAPC   H8R 3867   4.240   5.519   7.252  0.2248 -0.1407 -0.1820
   29SAPC   C29 3868   4.263   5.550   7.460  0.0214 -0.0052  0.2343
   29SAPC   H9R 3869   4.340   5.472   7.473 -0.3906 -0.0769  2.4933
   29SAPC  C210 3870   4.223   5.619   7.593 -0.7841  0.4543  0.4902
   29SAPC  H10R 3871   4.146   5.557   7.643 -1.1601  0.2067 -0.3938
   29SAPC  H10S 3872   4.183   5.722   7.589 -0.4740  0.5377 -0.6458
   29SAPC  C211 3873   4.346   5.630   7.677 -0.4746 -0.3474 -0.3829
   29SAPC  H11R 3874   4.443   5.645   7.627 -0.1530  1.3510  0.7205
   29SAPC  C212 3875   4.360   5.588   7.810 -0.4567  0.1146  0.6691
   29SAPC  H12R 3876   4.461   5.608   7.848  0.2385 -1.7184 -0.1189
   29SAPC  C213 3877   4.255   5.537   7.902  0.0259 -0.3342  0.3026
   29SAPC  H13R 3878   4.234   5.431   7.877 -1.6814  0.1824 -0.5683
   29SAPC  H13S 3879   4.153   5.579   7.885  0.3320  0.1223 -0.4453
   29SAPC  C214 3880   4.294   5.559   8.040 -0.7915 -0.3509  0.0541
   29SAPC  H14R 3881   4.272   5.658   8.082  2.2435  0.3400  0.1774
   29SAPC  C215 3882   4.373   5.474   8.113  0.7588  0.1832  0.0216
   29SAPC  H15R 3883   4.398   5.514   8.213  0.8596 -1.0207  0.4785
   29SAPC  C216 3884   4.438   5.345   8.074  0.3060  0.0969 -0.0147
   29SAPC  H16R 3885   4.448   5.334   7.964  0.7396 -0.6982  0.0972
   29SAPC  H16S 3886   4.381   5.256   8.109  0.0140 -0.7528 -2.5806
   29SAPC  C217 3887   4.576   5.332   8.139 -0.1716 -0.3947 -0.7398
   29SAPC  H17R 3888   4.646   5.416   8.119 -0.4777 -0.5707 -2.7089
   29SAPC  H17S 3889   4.626   5.246   8.090 -1.9315 -0.4261 -2.5341
   29SAPC  C218 3890   4.572   5.309   8.292 -0.1718 -0.8815  0.9056
   29SAPC  H18R 3891   4.502   5.228   8.322 -0.9884 -0.6360 -0.3356
   29SAPC  H18S 3892   4.537   5.394   8.354  1.0264  1.1224 -1.0809
   29SAPC  C219 3893   4.711   5.281   8.349 -0.4373 -0.3207 -0.0878
   29SAPC  H19R 3894   4.788   5.359   8.329 -0.9723  0.1220 -0.4505
   29SAPC  H19S 3895   4.747   5.192   8.294  1.0107  0.4782 -0.4775
   29SAPC  C220 3896   4.707   5.252   8.499 -0.3111  0.0078  0.4804
   29SAPC  H20R 3897   4.660   5.337   8.553 -1.0338 -0.1961  0.1798
   29SAPC  H20S 3898   4.812   5.231   8.528 -0.5853 -2.0273  0.0994
   29SAPC  H20T 3899   4.642   5.166   8.526  0.3711 -0.6033  0.1684
   29SAPC   C33 3900   3.809   5.490   7.141  0.3935  0.9746  0.2366
   29SAPC   H3X 3901   3.916   5.518   7.152  1.0668 -1.2758 -0.3144
   29SAPC   H3Y 3902   3.801   5.410   7.065  0.6584  1.4586 -0.3068
   29SAPC   C34 3903   3.784   5.421   7.281 -1.1326 -0.2354  0.0363
   29SAPC   H4X 3904   3.820   5.316   7.286  2.3007  0.8743 -0.2744
   29SAPC   H4Y 3905   3.674   5.416   7.299 -1.0969  1.1214  0.6440
   29SAPC   C35 3906   3.833   5.500   7.402  0.0536 -0.0734  0.0663
   29SAPC   H5X 3907   3.803   5.606   7.390 -0.5182 -0.4065 -1.6035
   29SAPC   H5Y 3908   3.944   5.494   7.402  0.0136 -1.2246  1.6112
   29SAPC   C36 3909   3.772   5.444   7.531 -1.0316 -0.3275 -0.2810
   29SAPC   H6X 3910   3.776   5.333   7.537  1.0106 -0.1482  2.5328
   29SAPC   H6Y 3911   3.670   5.485   7.517 -1.3751 -0.8979  0.5539
   29SAPC   C37 3912   3.822   5.503   7.664 -0.8806  0.6294  0.5154
   29SAPC   H7X 3913   3.801   5.612   7.651  1.3193  1.1177  0.8555
   29SAPC   H7Y 3914   3.933   5.498   7.666 -0.7732  1.5470 -2.0202
   29SAPC   C38 3915   3.758   5.437   7.788  0.5289  0.6950  0.2972
   29SAPC   H8X 3916   3.784   5.330   7.778 -0.0304  0.5728  0.1585
   29SAPC   H8Y 3917   3.650   5.462   7.781  0.6284  0.9624 -0.4015
   29SAPC   C39 3918   3.818   5.474   7.918  0.2369 -0.2177  0.0795
   29SAPC   H9X 3919   3.828   5.583   7.934  2.4485 -0.5239  1.0775
   29SAPC   H9Y 3920   3.917   5.424   7.933  0.1384  0.6326  4.0394
   29SAPC  C310 3921   3.731   5.425   8.035 -0.9854 -0.3950 -0.7222
   29SAPC  H10X 3922   3.696   5.320   8.028  0.9146 -1.0866  0.1124
   29SAPC  H10Y 3923   3.639   5.488   8.039 -0.0813  1.0924 -2.3851
   29SAPC  C311 3924   3.804   5.451   8.170 -0.5834 -0.2868 -0.3299
   29SAPC  H11X 3925   3.783   5.552   8.210 -1.3020 -1.3063  1.9239
   29SAPC  H11Y 3926   3.914   5.447   8.155 -0.3805  1.0076  0.7098
   29SAPC  C312 3927   3.768   5.356   8.280 -0.4389 -0.5526  0.0441
   29SAPC  H12X 3928   3.770   5.248   8.253  1.1133 -0.8362  1.1926
   29SAPC  H12Y 3929   3.663   5.385   8.301 -0.7921 -1.7617 -0.0121
   29SAPC  C313 3930   3.867   5.377   8.395  0.4880  0.2229  0.5486
   29SAPC  H13X 3931   3.864   5.482   8.430  2.0638 -0.6791  3.5202
   29SAPC  H13Y 3932   3.969   5.348   8.359  0.4139  1.6672 -0.8561
   29SAPC  C314 3933   3.839   5.300   8.524  0.5404  0.4140  0.1082
   29SAPC  H14X 3934   3.914   5.332   8.599  2.1948 -2.4547 -0.2631
   29SAPC  H14Y 3935   3.857   5.191   8.511 -0.0684  0.3824 -0.5186
   29SAPC  C315 3936   3.693   5.324   8.570 -0.9396  0.5273  0.0855
   29SAPC  H15X 3937   3.622   5.272   8.502 -1.7330  2.2968 -0.4731
   29SAPC  H15Y 3938   3.675   5.433   8.576  0.3133  0.8058 -1.1569
   29SAPC  C316 3939   3.661   5.276   8.716  0.3193 -0.5640 -0.5347
   29SAPC  H16X 3940   3.552   5.295   8.732 -0.7853 -3.2482 -4.1593
   29SAPC  H16Y 3941   3.731   5.326   8.786 -1.9776  1.7536  0.2304
   29SAPC  C317 3942   3.687   5.125   8.727  0.0877  0.1096 -0.5112
   29SAPC  H17X 3943   3.791   5.095   8.704  0.5336  0.0158  1.5420
   29SAPC  H17Y 3944   3.625   5.072   8.652 -1.5252  0.5957  0.4356
   29SAPC  C318 3945   3.662   5.078   8.872 -0.5481  0.5376 -0.4749
   29SAPC  H18X 3946   3.660   4.969   8.892  0.3470  0.4031 -1.0819
   29SAPC  H18Y 3947   3.558   5.104   8.901 -1.0014 -1.4953 -0.2198
   29SAPC  H18Z 3948   3.735   5.121   8.943 -1.1554  0.2549  0.3261
   30SAPC     N 3949   5.928   6.586   5.940  0.2378  0.1154 -0.1585
   30SAPC   C12 3950   5.938   6.548   6.091  0.4442 -0.1839  0.0997
   30SAPC  H12A 3951   5.924   6.637   6.151  1.0800 -1.4149  2.1323
   30SAPC  H12B 3952   6.042   6.528   6.114  0.6063 -0.3584 -0.7537
   30SAPC   C13 3953   6.033   6.686   5.905  0.3846 -0.0390 -0.6995
   30SAPC  H13A 3954   6.068   6.675   5.803 -3.7097 -1.1882 -2.0861
   30SAPC  H13B 3955   6.018   6.792   5.914  0.6590  0.0431 -1.1988
   30SAPC  H13C 3956   6.120   6.665   5.965 -0.9678 -2.1822  0.5626
   30SAPC   C14 3957   5.967   6.465   5.860 -0.1097  0.9177 -0.2692
   30SAPC  H14A 3958   5.911   6.380   5.896  2.5253 -0.5781  0.4107
   30SAPC  H14B 3959   5.944   6.486   5.756 -2.3172  1.4083  0.2835
   30SAPC  H14C 3960   6.070   6.439   5.877 -0.0766  1.2322  0.0181
   30SAPC   C15 3961   5.798   6.640   5.898  0.3826  0.6127  0.4001
   30SAPC  H15A 3962   5.726   6.563   5.874  0.4621  0.8383 -0.5710
   30SAPC  H15B 3963   5.759   6.706   5.975  0.8268  0.2564  0.9318
   30SAPC  H15C 3964   5.808   6.705   5.812  2.3793 -0.3258 -0.1051
   30SAPC   C11 3965   5.867   6.421   6.138 -0.3901  0.4259 -0.3031
   30SAPC  H11A 3966   5.888   6.415   6.247 -3.1687  2.2385  0.3651
   30SAPC  H11B 3967   5.911   6.333   6.086  1.2730  1.1356 -0.1477
   30SAPC     P 3968   5.625   6.318   6.180 -0.1228 -0.0108 -0.0090
   30SAPC   O13 3969   5.503   6.397   6.217  0.2256 -0.2677 -0.1689
   30SAPC   O14 3970   5.610   6.200   6.091 -0.5740 -0.2894 -0.0809
   30SAPC   O12 3971   5.730   6.421   6.117  0.5673  0.2176 -0.1308
   30SAPC   O11 3972   5.705   6.265   6.312 -0.0154  0.0508  0.2173
   30SAPC    C1 3973   5.685   6.341   6.432 -0.3150 -0.6077 -0.4580
   30SAPC    HA 3974   5.750   6.430   6.441 -1.3109  0.0726  0.0668
   30SAPC    HB 3975   5.580   6.375   6.443  0.0910  0.7986 -0.8560
   30SAPC    C2 3976   5.716   6.252   6.564  0.4943 -0.1900 -0.0003
   30SAPC    HS 3977   5.822   6.221   6.549 -0.5076 -2.0061 -3.7842
   30SAPC   O21 3978   5.629   6.139   6.557  0.2187 -0.6122 -0.0162
   30SAPC   C21 3979   5.685   6.022   6.596 -0.6843  0.4843 -0.1531
   30SAPC   O22 3980   5.803   6.010   6.629 -0.1119 -0.2767 -0.8670
   30SAPC   C22 3981   5.576   5.912   6.577  0.2228  0.6502  0.3468
   30SAPC   H2R 3982   5.516   5.900   6.670  0.0948  0.1366  0.2003
   30SAPC   H2S 3983   5.504   5.940   6.498 -0.6104  0.3290  0.9889
   30SAPC    C3 3984   5.694   6.330   6.698 -0.1382  0.3349 -0.2034
   30SAPC    HX 3985   5.585   6.351   6.701 -0.4186 -1.0622 -0.2069
   30SAPC    HY 3986   5.750   6.426   6.703  2.5810 -1.2087 -0.2775
   30SAPC   O31 3987   5.731   6.245   6.809  0.0561  0.1308  0.2081
   30SAPC   C31 3988   5.854   6.232   6.843 -0.4737 -0.7979 -0.1155
   30SAPC   O32 3989   5.953   6.281   6.782  0.7319 -0.1416 -0.1573
   30SAPC   C32 3990   5.870   6.157   6.984  0.1601  0.3664 -0.9225
   30SAPC   H2X 3991   5.830   6.055   6.968  0.8837  0.2507 -2.0455
   30SAPC   H2Y 3992   5.820   6.214   7.066  2.0261  0.1159  0.4081
   30SAPC   C23 3993   5.640   5.781   6.539  0.0022  0.4128 -0.3169
   30SAPC   H3R 3994   5.712   5.791   6.454 -1.0227  1.9467 -1.0368
   30SAPC   H3S 3995   5.553   5.721   6.506  0.0715  0.7166 -1.0789
   30SAPC   C24 3996   5.718   5.704   6.638  0.4253 -0.6390 -0.3841
   30SAPC   H4R 3997   5.811   5.754   6.675 -1.6413  2.3399  0.9745
   30SAPC   H4S 3998   5.752   5.617   6.578 -1.1554 -0.2816 -1.8243
   30SAPC   C25 3999   5.639   5.649   6.756 -0.8306 -0.4088 -0.6386
   30SAPC   H5R 4000   5.556   5.579   6.736 -1.6396 -0.0241  1.2189
   30SAPC   C26 4001   5.681   5.660   6.893  0.7407  0.0391 -0.5310
   30SAPC   H6R 4002   5.609   5.630   6.970  2.1806 -0.3942  0.6496
   30SAPC   C27 4003   5.796   5.746   6.938  0.0033  0.5968 -0.3987
   30SAPC   H7R 4004   5.762   5.784   7.036  1.0597  1.3633 -0.3163
   30SAPC   H7S 4005   5.810   5.842   6.883  2.0048  0.3558 -0.3660
   30SAPC   C28 4006   5.931   5.677   6.947  0.7693  0.4769 -0.2388
   30SAPC   H8R 4007   5.983   5.685   6.851 -2.1640 -0.1806 -1.9334
   30SAPC   C29 4008   5.989   5.611   7.049  0.0331  0.2130  0.3314
   30SAPC   H9R 4009   6.089   5.567   7.046 -0.4899 -0.9532 -0.1049
   30SAPC  C210 4010   5.935   5.603   7.191 -0.4529 -0.5007  0.6876
   30SAPC  H10R 4011   5.940   5.703   7.239  0.6913 -0.6405  0.8594
   30SAPC  H10S 4012   6.012   5.545   7.245  1.2233  0.7547 -0.3281
   30SAPC  C211 4013   5.805   5.537   7.204  0.0408 -0.1895 -0.3632
   30SAPC  H11R 4014   5.762   5.496   7.111 -1.0970  0.3743 -0.0937
   30SAPC  C212 4015   5.736   5.524   7.313 -0.4839  0.2828  0.0914
   30SAPC  H12R 4016   5.632   5.490   7.302 -0.1469  0.2690 -3.6672
   30SAPC  C213 4017   5.777   5.585   7.439 -0.0725  0.1347  0.0582
   30SAPC  H13R 4018   5.681   5.610   7.490  0.5951  1.9729  0.4498
   30SAPC  H13S 4019   5.823   5.685   7.422  1.4376 -0.6992 -0.8547
   30SAPC  C214 4020   5.871   5.513   7.528  0.3483  0.0366 -0.3215
   30SAPC  H14R 4021   5.943   5.448   7.477  2.4036 -0.5975  3.2309
   30SAPC  C215 4022   5.871   5.495   7.659  0.2408  0.2562  0.3844
   30SAPC  H15R 4023   5.939   5.419   7.700  2.1784  1.5566 -0.3349
   30SAPC  C216 4024   5.766   5.550   7.746 -0.2444  0.2046  0.6381
   30SAPC  H16R 4025   5.664   5.525   7.711 -0.2221 -3.0520  2.6060
   30SAPC  H16S 4026   5.760   5.660   7.748 -1.5245  0.1875 -1.6847
   30SAPC  C217 4027   5.781   5.488   7.884 -0.1565  0.3488  0.3068
   30SAPC  H17R 4028   5.804   5.379   7.874  1.3366  0.7363 -0.5708
   30SAPC  H17S 4029   5.686   5.507   7.938  1.2851  2.8169  2.0539
   30SAPC  C218 4030   5.894   5.556   7.966 -0.7252  0.9500  0.4356
   30SAPC  H18R 4031   5.871   5.527   8.071  1.3604  0.0450  0.6685
   30SAPC  H18S 4032   5.893   5.666   7.955  0.7051  0.8207 -1.2739
   30SAPC  C219 4033   6.034   5.493   7.936  0.4242  0.2198  0.7815
   30SAPC  H19R 4034   6.064   5.513   7.831 -0.0141 -1.3999  0.3396
   30SAPC  H19S 4035   6.012   5.384   7.943 -3.2843  0.6640 -2.1726
   30SAPC  C220 4036   6.140   5.535   8.034 -0.4506 -0.0248 -0.0078
   30SAPC  H20R 4037   6.235   5.527   7.978 -0.6506 -0.1891 -0.3213
   30SAPC  H20S 4038   6.152   5.461   8.116  1.6521 -2.7496 -2.6845
   30SAPC  H20T 4039   6.110   5.637   8.069 -0.4575 -0.0401  0.0307
   30SAPC   C33 4040   6.020   6.148   7.023  0.2163 -0.4242 -0.0686
   30SAPC   H3X 4041   6.074   6.246   7.028  0.3056 -0.5323  1.0891
   30SAPC   H3Y 4042   6.072   6.082   6.951  0.0263 -1.4794  0.7607
   30SAPC   C34 4043   6.043   6.089   7.162 -0.3477 -0.3210  0.3372
   30SAPC   H4X 4044   5.976   6.001   7.172 -0.7350  0.2871  3.9941
   30SAPC   H4Y 4045   6.003   6.154   7.243  0.3056  0.6569 -0.1115
   30SAPC   C35 4046   6.188   6.051   7.189  0.3378  0.2689 -0.1971
   30SAPC   H5X 4047   6.257   6.130   7.151  1.2587 -2.2034 -4.0264
   30SAPC   H5Y 4048   6.211   5.953   7.143 -0.9197 -0.9180  1.6786
   30SAPC   C36 4049   6.211   6.020   7.346  0.0300 -0.0443 -0.3307
   30SAPC   H6X 4050   6.183   6.107   7.411  1.6887  0.1129  0.1946
   30SAPC   H6Y 4051   6.319   5.997   7.350  0.4974  1.6914 -2.0010
   30SAPC   C37 4052   6.123   5.899   7.388  0.1811 -0.0215 -0.2071
   30SAPC   H7X 4053   6.170   5.809   7.343 -3.0645 -1.8048 -0.1451
   30SAPC   H7Y 4054   6.023   5.895   7.341  0.3230 -3.0730 -0.3594
   30SAPC   C38 4055   6.128   5.863   7.537 -0.1164 -0.2064  0.5962
   30SAPC   H8X 4056   6.086   5.765   7.566  1.2026  0.2462  4.2958
   30SAPC   H8Y 4057   6.077   5.949   7.586 -0.0628  0.5395 -0.6475
   30SAPC   C39 4058   6.273   5.867   7.604 -0.1454  0.3418 -0.2541
   30SAPC   H9X 4059   6.314   5.970   7.618 -2.5980  1.2439  0.5941
   30SAPC   H9Y 4060   6.335   5.811   7.530 -1.9193 -0.4746 -1.1379
   30SAPC  C310 4061   6.270   5.787   7.740  0.5214  0.0781 -0.0128
   30SAPC  H10X 4062   6.229   5.685   7.725  1.3903 -0.0850 -1.3722
   30SAPC  H10Y 4063   6.203   5.852   7.799  0.5608 -0.1247  0.2579
   30SAPC  C311 4064   6.406   5.788   7.809 -0.2611 -0.3245 -0.1332
   30SAPC  H11X 4065   6.476   5.870   7.782 -0.4303 -0.7232 -1.8111
   30SAPC  H11Y 4066   6.467   5.703   7.772  0.9608  0.4070  0.1806
   30SAPC  C312 4067   6.391   5.796   7.967 -0.0950 -0.0707  0.0688
   30SAPC  H12X 4068   6.350   5.701   8.007 -0.8362  0.5952  0.9243
   30SAPC  H12Y 4069   6.326   5.880   8.001 -0.5004 -0.2547 -0.2531
   30SAPC  C313 4070   6.520   5.798   8.054 -0.1936 -0.9416 -0.0882
   30SAPC  H13X 4071   6.574   5.893   8.037  1.9681 -1.6504  2.4382
   30SAPC  H13Y 4072   6.571   5.706   8.019  1.0867 -0.3264  0.1407
   30SAPC  C314 4073   6.506   5.767   8.207 -0.1373  0.0187 -0.6131
   30SAPC  H14X 4074   6.453   5.669   8.218  0.7243 -0.3664  0.1778
   30SAPC  H14Y 4075   6.442   5.844   8.255 -2.7242 -1.2182 -1.9241
   30SAPC  C315 4076   6.641   5.758   8.280 -0.0032  0.3656  0.3220
   30SAPC  H15X 4077   6.690   5.856   8.261 -1.7361  1.0303 -0.8034
   30SAPC  H15Y 4078   6.704   5.679   8.234 -3.2256 -1.6726 -0.7384
   30SAPC  C316 4079   6.636   5.719   8.425 -0.3502  0.0005  1.0081
   30SAPC  H16X 4080   6.590   5.619   8.440  1.5846 -1.1934 -0.7114
   30SAPC  H16Y 4081   6.561   5.783   8.476  0.2153  0.8491  0.7884
   30SAPC  C317 4082   6.776   5.704   8.494 -0.5602  0.0981  0.0195
   30SAPC  H17X 4083   6.821   5.805   8.497 -0.3986  0.0019  1.0932
   30SAPC  H17Y 4084   6.850   5.635   8.448  1.0405  2.3727 -0.8850
   30SAPC  C318 4085   6.752   5.671   8.641  0.5427 -0.1687 -0.6366
   30SAPC  H18X 4086   6.842   5.622   8.685  0.4095 -0.8112 -1.0720
   30SAPC  H18Y 4087   6.666   5.601   8.644  0.4686 -0.0325  0.6639
   30SAPC  H18Z 4088   6.747   5.760   8.708 -1.3511 -1.5327  1.1263
   31SAPC     N 4089   6.792   0.470   5.982  0.1804  0.0217  0.4694
   31SAPC   C12 4090   6.794   0.484   6.133  0.5756  1.4353 -0.4723
   31SAPC  H12A 4091   6.743   0.576   6.157  0.0618  0.8993  0.5149
   31SAPC  H12B 4092   6.898   0.499   6.162  0.5226  0.0929  0.4289
   31SAPC   C13 4093   6.854   0.339   5.945  0.5123 -0.1844  0.0443
   31SAPC  H13A 4094   6.803   0.258   5.996  0.3325  0.4169  0.8413
   31SAPC  H13B 4095   6.839   0.318   5.840 -0.0582  0.4079  0.0008
   31SAPC  H13C 4096   6.957   0.331   5.975  1.1697  2.5181 -1.3279
   31SAPC   C14 4097   6.660   0.476   5.923  0.4639 -0.0746  0.4839
   31SAPC  H14A 4098   6.667   0.483   5.815 -1.9074 -1.1695  0.2263
   31SAPC  H14B 4099   6.621   0.376   5.936  1.5047 -0.2779  2.1737
   31SAPC  H14C 4100   6.599   0.553   5.968 -3.1490 -1.5824 -1.6237
   31SAPC   C15 4101   6.872   0.580   5.928 -0.5019  0.1395 -0.0790
   31SAPC  H15A 4102   6.977   0.579   5.955 -0.0482 -2.7461 -1.7639
   31SAPC  H15B 4103   6.856   0.580   5.821 -0.3990 -1.1084 -0.0965
   31SAPC  H15C 4104   6.824   0.671   5.962 -1.7887 -0.3991 -0.4326
   31SAPC   C11 4105   6.727   0.378   6.224  0.5626 -0.2269 -0.2165
   31SAPC  H11A 4106   6.624   0.357   6.189  0.9390  0.4422 -1.7522
   31SAPC  H11B 4107   6.726   0.423   6.326 -0.3491 -1.4830  0.3438
   31SAPC     P 4108   6.728   0.122   6.255 -0.4526  0.1538 -0.3065
   31SAPC   O13 4109   6.602   0.146   6.335  0.9252 -0.6354  0.4685
   31SAPC   O14 4110   6.711   0.052   6.126  0.0675  0.2311 -0.5114
   31SAPC   O12 4111   6.807   0.258   6.232 -0.8262 -0.0389 -0.1510
   31SAPC   O11 4112   6.824   0.031   6.347  0.0624 -0.0968  1.1132
   31SAPC    C1 4113   6.895   0.114   6.448 -0.9767  0.4705 -0.0052
   31SAPC    HA 4114   6.994   0.131   6.403  0.6115 -0.6400  2.9428
   31SAPC    HB 4115   6.842   0.211   6.462 -0.1107  1.0074 -0.4439
   31SAPC    C2 4116   6.917   0.038   6.586 -0.0992 -0.4384 -0.1780
   31SAPC    HS 4117   6.972   0.107   6.653  1.7472 -0.9761 -1.1331
   31SAPC   O21 4118   6.977  -0.088   6.563  0.1141 -0.5970  0.5702
   31SAPC   C21 4119   7.113  -0.079   6.554  0.0019 -0.8155 -0.2219
   31SAPC   O22 4120   7.178   0.023   6.570  0.1657  0.2090  0.3392
   31SAPC   C22 4121   7.172  -0.211   6.532  1.2796  0.3475 -0.5937
   31SAPC   H2R 4122   7.093  -0.288   6.536  1.9782 -0.3238  0.9050
   31SAPC   H2S 4123   7.209  -0.216   6.428  1.5735  2.5970 -0.6323
   31SAPC    C3 4124   6.773   0.013   6.653 -0.4939 -0.0397 -0.0669
   31SAPC    HX 4125   6.714  -0.046   6.579 -0.4592 -1.2945  0.8793
   31SAPC    HY 4126   6.726   0.112   6.669 -1.6319 -0.1468 -2.5371
   31SAPC   O31 4127   6.783  -0.059   6.784 -0.2927  0.3306  0.4189
   31SAPC   C31 4128   6.682  -0.146   6.798  0.0448 -0.0856  0.8109
   31SAPC   O32 4129   6.576  -0.149   6.735  0.7678 -0.4737  0.0042
   31SAPC   C32 4130   6.717  -0.240   6.916 -0.4671  0.6225 -0.3172
   31SAPC   H2X 4131   6.761  -0.331   6.869 -1.3845  0.7514 -1.4534
   31SAPC   H2Y 4132   6.617  -0.271   6.952 -0.8490  0.4682 -1.4881
   31SAPC   C23 4133   7.281  -0.228   6.633  0.0170  0.3777 -0.3850
   31SAPC   H3R 4134   7.338  -0.136   6.661 -0.4686 -0.4213  3.5877
   31SAPC   H3S 4135   7.359  -0.297   6.596  1.3757  1.1811  0.9188
   31SAPC   C24 4136   7.209  -0.297   6.749 -0.0843 -0.1322 -0.3978
   31SAPC   H4R 4137   7.160  -0.387   6.706  0.1331 -0.6546  0.4487
   31SAPC   H4S 4138   7.117  -0.244   6.781 -0.0616 -0.0655 -0.4410
   31SAPC   C25 4139   7.308  -0.321   6.858 -0.5835  0.1098 -0.1907
   31SAPC   H5R 4140   7.362  -0.414   6.836 -0.7004 -0.4617  1.8434
   31SAPC   C26 4141   7.327  -0.249   6.967 -0.6170 -0.6449 -0.3243
   31SAPC   H6R 4142   7.396  -0.291   7.042 -1.7877 -1.4784  0.3210
   31SAPC   C27 4143   7.252  -0.118   7.008 -0.7564 -0.0984 -0.0800
   31SAPC   H7R 4144   7.268  -0.086   7.114 -0.2138  0.4725 -0.3344
   31SAPC   H7S 4145   7.147  -0.149   7.027 -1.0148  0.8471  0.0427
   31SAPC   C28 4146   7.272  -0.002   6.915  0.5011  0.0286 -0.4703
   31SAPC   H8R 4147   7.234  -0.007   6.812  1.3814  1.3820 -0.8641
   31SAPC   C29 4148   7.341   0.108   6.944  0.5551 -0.0532  0.5425
   31SAPC   H9R 4149   7.341   0.186   6.867 -2.4771 -0.7024 -0.1540
   31SAPC  C210 4150   7.407   0.138   7.080  0.1426 -0.3218 -0.2952
   31SAPC  H10R 4151   7.493   0.204   7.057 -0.6697  0.0253 -2.4671
   31SAPC  H10S 4152   7.443   0.040   7.118  1.5230 -0.3089 -1.5027
   31SAPC  C211 4153   7.314   0.210   7.173  0.4876 -0.4549 -0.5188
   31SAPC  H11R 4154   7.209   0.200   7.140  0.8217 -3.5177 -0.7515
   31SAPC  C212 4155   7.359   0.284   7.281 -0.4612 -0.7186  0.2256
   31SAPC  H12R 4156   7.285   0.331   7.347  1.2837  0.4911  1.3623
   31SAPC  C213 4157   7.503   0.310   7.325  1.0296 -0.6639  0.3916
   31SAPC  H13R 4158   7.531   0.405   7.275 -0.1181  1.0168  2.8582
   31SAPC  H13S 4159   7.575   0.243   7.273  1.1193  0.3692 -0.8505
   31SAPC  C214 4160   7.529   0.333   7.474 -0.7200  0.5288 -0.1716
   31SAPC  H14R 4161   7.603   0.413   7.486 -0.6315  0.3480  0.5477
   31SAPC  C215 4162   7.481   0.270   7.589  0.5501  0.0641  0.9818
   31SAPC  H15R 4163   7.514   0.290   7.693  1.5158 -0.6702  0.8167
   31SAPC  C216 4164   7.387   0.150   7.600  0.0996 -0.4877 -0.7670
   31SAPC  H16R 4165   7.402   0.089   7.509  0.0876 -0.0927 -1.0356
   31SAPC  H16S 4166   7.281   0.185   7.601  0.2752  0.0296  0.7389
   31SAPC  C217 4167   7.405   0.080   7.734  0.3582  0.1132  0.3384
   31SAPC  H17R 4168   7.502   0.026   7.742 -0.0334 -0.6067  0.2454
   31SAPC  H17S 4169   7.335  -0.006   7.733  1.1425 -0.5600  1.7132
   31SAPC  C218 4170   7.379   0.165   7.864  0.2932 -0.1615  0.7651
   31SAPC  H18R 4171   7.282   0.216   7.848 -0.0776 -0.9110  0.6146
   31SAPC  H18S 4172   7.453   0.247   7.876 -1.2420  1.5840 -1.2608
   31SAPC  C219 4173   7.373   0.077   7.984 -0.5924 -0.3271 -0.9853
   31SAPC  H19R 4174   7.445  -0.007   7.980 -0.5870 -0.4007  0.4925
   31SAPC  H19S 4175   7.272   0.031   7.982  0.0159 -1.6974 -0.9574
   31SAPC  C220 4176   7.382   0.162   8.113  0.3942  0.2804 -0.1701
   31SAPC  H20R 4177   7.357   0.099   8.201  2.0585 -0.1723  0.0051
   31SAPC  H20S 4178   7.297   0.232   8.100 -0.4248 -0.5883  0.4490
   31SAPC  H20T 4179   7.477   0.221   8.115  0.8435 -0.4262 -0.4807
   31SAPC   C33 4180   6.798  -0.186   7.037  0.1285 -0.2255 -0.3264
   31SAPC   H3X 4181   6.897  -0.145   7.009  0.0383 -0.3708 -0.8663
   31SAPC   H3Y 4182   6.816  -0.271   7.106 -0.1971 -1.6600 -1.9783
   31SAPC   C34 4183   6.723  -0.073   7.111 -0.0602  0.2628 -0.2424
   31SAPC   H4X 4184   6.652  -0.128   7.176  1.3925  0.5440  1.6230
   31SAPC   H4Y 4185   6.675  -0.006   7.037  1.8992  3.0366  0.9180
   31SAPC   C35 4186   6.809   0.001   7.199  0.4677 -0.2838 -0.7242
   31SAPC   H5X 4187   6.767   0.100   7.228  0.4735  0.1143 -2.0100
   31SAPC   H5Y 4188   6.908   0.024   7.152  1.1863  0.9959  1.3794
   31SAPC   C36 4189   6.839  -0.071   7.333 -0.0153  0.3720 -0.0099
   31SAPC   H6X 4190   6.881  -0.170   7.307 -2.0442 -0.4028 -0.4425
   31SAPC   H6Y 4191   6.747  -0.090   7.391 -1.9519  2.0711 -2.4204
   31SAPC   C37 4192   6.938   0.006   7.414  0.3065  0.0894  0.0283
   31SAPC   H7X 4193   6.884   0.097   7.450 -0.8862 -0.5727 -0.0499
   31SAPC   H7Y 4194   7.016   0.049   7.348  2.6284 -0.2640  2.4595
   31SAPC   C38 4195   7.003  -0.072   7.524 -0.5622 -0.2537 -0.6116
   31SAPC   H8X 4196   7.082  -0.016   7.578 -1.9248 -0.5336  1.7754
   31SAPC   H8Y 4197   7.027  -0.172   7.482 -0.0116  0.4908 -2.0953
   31SAPC   C39 4198   6.905  -0.092   7.631  0.4212 -0.6234 -0.3921
   31SAPC   H9X 4199   6.817  -0.148   7.592  0.8825 -0.4502 -1.7287
   31SAPC   H9Y 4200   6.872   0.007   7.669  0.2918  0.0718 -2.2513
   31SAPC  C310 4201   6.954  -0.178   7.758  0.0326 -0.1818  1.3300
   31SAPC  H10X 4202   7.038  -0.119   7.801  3.3609 -3.1083 -0.9167
   31SAPC  H10Y 4203   7.010  -0.267   7.723  1.6994  1.5469 -0.5889
   31SAPC  C311 4204   6.849  -0.224   7.855  0.1714 -0.3714 -0.4324
   31SAPC  H11X 4205   6.891  -0.294   7.930 -0.0672  2.0243  2.0063
   31SAPC  H11Y 4206   6.761  -0.274   7.809 -0.7220  1.1907 -0.4663
   31SAPC  C312 4207   6.803  -0.105   7.950  0.4687  0.0346 -0.2020
   31SAPC  H12X 4208   6.711  -0.134   8.004  0.0989  0.7505 -0.4499
   31SAPC  H12Y 4209   6.777  -0.025   7.877 -2.3003  0.4004  1.1169
   31SAPC  C313 4210   6.899  -0.058   8.054 -1.0514 -0.1447  0.0423
   31SAPC  H13X 4211   6.854   0.037   8.087 -1.9118  0.5304 -2.9293
   31SAPC  H13Y 4212   6.993  -0.029   8.001 -0.5291  0.6411  1.3979
   31SAPC  C314 4213   6.917  -0.169   8.167 -0.1793  0.1896  0.2345
   31SAPC  H14X 4214   6.959  -0.257   8.114 -0.6327 -0.0902  0.3377
   31SAPC  H14Y 4215   6.816  -0.192   8.207  0.1005 -0.4048  0.6047
   31SAPC  C315 4216   7.026  -0.126   8.274  1.1838 -0.4076 -0.5215
   31SAPC  H15X 4217   7.127  -0.142   8.230  1.1825 -1.2857 -0.2160
   31SAPC  H15Y 4218   7.015  -0.205   8.352 -0.6915 -1.2931 -1.6640
   31SAPC  C316 4219   7.007   0.022   8.333 -0.0897  0.1988 -0.4224
   31SAPC  H16X 4220   7.006   0.102   8.256 -2.4363 -2.2302 -3.0553
   31SAPC  H16Y 4221   7.091   0.035   8.404 -0.4083 -1.0235  0.2105
   31SAPC  C317 4222   6.873   0.029   8.409 -0.2342  0.0728  0.5209
   31SAPC  H17X 4223   6.866  -0.059   8.476 -2.7116 -0.2145 -0.0576
   31SAPC  H17Y 4224   6.793   0.017   8.332  2.2178  2.9685 -2.6089
   31SAPC  C318 4225   6.854   0.160   8.482  0.1176  0.9268  0.1042
   31SAPC  H18X 4226   6.889   0.252   8.431 -1.2383  1.8640  0.8226
   31SAPC  H18Y 4227   6.913   0.167   8.576  0.9120 -1.7819 -0.1712
   31SAPC  H18Z 4228   6.749   0.178   8.514 -0.4260 -2.6770  0.5609
   32SAPC     N 4229   1.418   0.655   6.065  0.2918  0.0838 -0.1293
   32SAPC   C12 4230   1.437   0.808   6.084  0.1529  0.8304 -0.3220
   32SAPC  H12A 4231   1.358   0.863   6.035  1.1403  2.5233 -0.0604
   32SAPC  H12B 4232   1.522   0.848   6.031  0.2342 -1.7688 -2.2733
   32SAPC   C13 4233   1.438   0.619   5.924  0.9941 -0.4118 -0.0095
   32SAPC  H13A 4234   1.356   0.654   5.862  0.5445  0.5926  1.1253
   32SAPC  H13B 4235   1.521   0.675   5.883  0.3512  0.5459 -0.0356
   32SAPC  H13C 4236   1.424   0.512   5.918  1.3511 -0.5963  2.1219
   32SAPC   C14 4237   1.525   0.579   6.148  0.0590  0.4371 -0.2550
   32SAPC  H14A 4238   1.539   0.483   6.100 -1.9102  0.9300 -1.8957
   32SAPC  H14B 4239   1.617   0.634   6.160  0.9076 -0.8686 -0.6311
   32SAPC  H14C 4240   1.480   0.552   6.243 -0.0320 -1.1490 -0.7345
   32SAPC   C15 4241   1.289   0.600   6.108 -0.2706  0.2011 -0.2439
   32SAPC  H15A 4242   1.274   0.495   6.089 -0.2593 -0.5532  3.5498
   32SAPC  H15B 4243   1.276   0.621   6.213  0.5989 -2.7018  0.5136
   32SAPC  H15C 4244   1.206   0.641   6.052 -1.1485 -0.2168  0.7386
   32SAPC   C11 4245   1.442   0.850   6.234  0.0638 -0.1816  0.2992
   32SAPC  H11A 4246   1.449   0.961   6.225 -1.2965  0.0114  1.4539
   32SAPC  H11B 4247   1.534   0.816   6.287  1.3141  1.9968 -0.3730
   32SAPC     P 4248   1.191   0.905   6.265  0.2261  0.1169  0.1643
   32SAPC   O13 4249   1.179   0.933   6.123  0.0892 -0.0010 -0.0751
   32SAPC   O14 4250   1.071   0.848   6.329  0.3183  0.6040  0.0144
   32SAPC   O12 4251   1.321   0.818   6.303  0.7324 -0.1894 -0.0438
   32SAPC   O11 4252   1.224   1.037   6.330 -0.2741 -0.1280  0.0061
   32SAPC    C1 4253   1.293   1.060   6.453 -0.5082 -0.5672 -0.0618
   32SAPC    HA 4254   1.335   0.972   6.506 -0.3115  0.1217  0.9500
   32SAPC    HB 4255   1.379   1.128   6.433 -1.8453  1.0818 -0.3031
   32SAPC    C2 4256   1.207   1.151   6.553 -1.0071 -0.4121  0.3136
   32SAPC    HS 4257   1.199   1.251   6.504 -0.0183 -0.1899  0.5957
   32SAPC   O21 4258   1.275   1.164   6.681 -0.3635  0.5113 -0.0382
   32SAPC   C21 4259   1.317   1.284   6.713  0.4309  0.1323 -0.4666
   32SAPC   O22 4260   1.308   1.374   6.639 -0.1667  0.1954 -0.3143
   32SAPC   C22 4261   1.394   1.277   6.848 -0.3264  0.0776  0.4849
   32SAPC   H2R 4262   1.323   1.266   6.932 -1.4275 -0.5122 -0.5253
   32SAPC   H2S 4263   1.464   1.192   6.833 -2.6858 -1.6032 -1.1713
   32SAPC    C3 4264   1.069   1.083   6.566  0.2923 -0.3106 -0.2069
   32SAPC    HX 4265   1.099   0.977   6.579  0.3688 -0.0048  2.3962
   32SAPC    HY 4266   1.017   1.101   6.470  0.0261 -2.7223 -0.5414
   32SAPC   O31 4267   0.992   1.118   6.682 -0.3305 -0.3548  0.1711
   32SAPC   C31 4268   0.865   1.071   6.682 -0.2469  0.2549 -0.3252
   32SAPC   O32 4269   0.804   1.015   6.593  0.7328 -0.4610 -0.3763
   32SAPC   C32 4270   0.784   1.123   6.808  0.2061  0.8696 -0.3092
   32SAPC   H2X 4271   0.712   1.206   6.789  0.8327  2.0159  2.1670
   32SAPC   H2Y 4272   0.861   1.155   6.881  1.0226  1.4491 -1.4132
   32SAPC   C23 4273   1.477   1.403   6.878 -0.2430  0.1201  0.2375
   32SAPC   H3R 4274   1.405   1.480   6.912  3.3266  3.7504 -0.0551
   32SAPC   H3S 4275   1.513   1.444   6.781 -0.5061 -0.0733  0.0580
   32SAPC   C24 4276   1.574   1.370   6.990 -0.3210  0.2827 -0.4015
   32SAPC   H4R 4277   1.661   1.322   6.940 -1.2991  0.0124 -1.8970
   32SAPC   H4S 4278   1.529   1.296   7.058 -0.7709 -0.5577 -1.5962
   32SAPC   C25 4279   1.598   1.500   7.071  1.1618  0.3897  0.4952
   32SAPC   H5R 4280   1.504   1.556   7.082  0.4879 -0.7654  0.6550
   32SAPC   C26 4281   1.708   1.553   7.109 -0.3395 -0.6130  0.6559
   32SAPC   H6R 4282   1.716   1.651   7.158 -0.3293 -0.6521  0.7333
   32SAPC   C27 4283   1.842   1.486   7.082  0.5359  0.0925  0.1490
   32SAPC   H7R 4284   1.840   1.426   6.988  0.7534 -0.9748  0.8169
   32SAPC   H7S 4285   1.856   1.410   7.162 -0.9707 -0.8078 -0.4204
   32SAPC   C28 4286   1.967   1.565   7.060 -0.7030  0.4534  0.0882
   32SAPC   H8R 4287   1.980   1.621   6.967  0.8454 -0.7809 -0.4616
   32SAPC   C29 4288   2.069   1.575   7.143  0.4405 -0.3063  1.1103
   32SAPC   H9R 4289   2.158   1.633   7.113 -0.0254 -0.7516 -1.1733
   32SAPC  C210 4290   2.090   1.512   7.275  0.1677  0.2506 -0.5149
   32SAPC  H10R 4291   2.089   1.401   7.267 -1.1889  0.1555  0.7822
   32SAPC  H10S 4292   2.004   1.542   7.339 -0.8997 -2.5433 -0.5830
   32SAPC  C211 4293   2.217   1.544   7.356  0.2589 -0.0346 -0.1930
   32SAPC  H11R 4294   2.295   1.595   7.296  1.2980 -2.0341 -0.5960
   32SAPC  C212 4295   2.242   1.513   7.482 -0.1733  0.1841  0.0399
   32SAPC  H12R 4296   2.343   1.531   7.521  0.1124  0.7642 -0.9336
   32SAPC  C213 4297   2.150   1.438   7.566 -0.0278  0.4612  0.5653
   32SAPC  H13R 4298   2.204   1.353   7.611  1.7035  0.3792 -1.6108
   32SAPC  H13S 4299   2.065   1.400   7.505 -0.7510  0.9896  1.2168
   32SAPC  C214 4300   2.096   1.528   7.680  0.2519  0.1437 -0.4761
   32SAPC  H14R 4301   2.047   1.620   7.643  0.2453  0.0246 -0.7699
   32SAPC  C215 4302   2.118   1.506   7.815  0.0512  0.6239  0.5162
   32SAPC  H15R 4303   2.086   1.583   7.886 -0.4726  1.6912 -0.8473
   32SAPC  C216 4304   2.183   1.381   7.871 -0.9798 -0.3066 -0.4455
   32SAPC  H16R 4305   2.266   1.350   7.805 -0.4067 -0.9355  0.5566
   32SAPC  H16S 4306   2.114   1.294   7.882 -0.5340 -0.6526 -0.4078
   32SAPC  C217 4307   2.247   1.398   8.006  0.2006  0.1553  0.0503
   32SAPC  H17R 4308   2.297   1.497   8.004  2.5947 -1.0238 -0.8219
   32SAPC  H17S 4309   2.328   1.323   8.022  1.8907  2.2527  1.7328
   32SAPC  C218 4310   2.137   1.405   8.118 -0.3791  0.3548  0.0218
   32SAPC  H18R 4311   2.040   1.399   8.065 -1.3827 -0.4944  1.9129
   32SAPC  H18S 4312   2.135   1.512   8.149  0.2582  0.2553  0.4227
   32SAPC  C219 4313   2.158   1.318   8.241  0.0171 -0.5148 -0.0488
   32SAPC  H19R 4314   2.249   1.350   8.296  0.9719 -0.6710 -1.5011
   32SAPC  H19S 4315   2.173   1.217   8.196 -2.7710 -2.2670  2.7469
   32SAPC  C220 4316   2.028   1.303   8.322 -0.0232 -0.7395  0.0155
   32SAPC  H20R 4317   1.987   1.398   8.362  0.3889 -1.2702  1.6965
   32SAPC  H20S 4318   2.054   1.246   8.413  0.2748 -0.1397  0.3064
   32SAPC  H20T 4319   1.950   1.260   8.254  1.5749 -3.6008 -0.0954
   32SAPC   C33 4320   0.699   1.003   6.875 -0.8732  0.1282  0.0440
   32SAPC   H3X 4321   0.629   0.972   6.794  0.1554  0.5366 -1.0160
   32SAPC   H3Y 4322   0.644   1.048   6.960 -1.5875 -2.0833  0.7829
   32SAPC   C34 4323   0.788   0.889   6.926  0.1838 -0.2952 -0.0085
   32SAPC   H4X 4324   0.822   0.831   6.838 -2.4690 -1.1160 -0.5389
   32SAPC   H4Y 4325   0.717   0.833   6.990 -1.3292 -0.2124 -1.5987
   32SAPC   C35 4326   0.905   0.928   7.011 -0.4331 -0.1549 -0.0663
   32SAPC   H5X 4327   0.968   1.011   6.974  2.4728 -2.0940  0.3550
   32SAPC   H5Y 4328   0.978   0.844   7.013 -0.5800 -0.3481 -1.8760
   32SAPC   C36 4329   0.859   0.973   7.151 -0.1372 -0.3765 -0.0269
   32SAPC   H6X 4330   0.815   0.886   7.204 -1.0347 -1.0713 -1.8725
   32SAPC   H6Y 4331   0.786   1.056   7.145 -2.6050 -2.5526 -1.2341
   32SAPC   C37 4332   0.982   1.012   7.239 -0.0981 -0.1083 -0.3229
   32SAPC   H7X 4333   1.041   1.097   7.198 -2.1766  1.7313  0.3183
   32SAPC   H7Y 4334   1.045   0.922   7.231  2.0140  1.5792 -4.2003
   32SAPC   C38 4335   0.949   1.045   7.383  0.5425 -0.6711 -0.5253
   32SAPC   H8X 4336   0.875   1.127   7.389  0.7996 -0.5836  1.6508
   32SAPC   H8Y 4337   1.039   1.085   7.433  1.5966 -2.6492 -0.7813
   32SAPC   C39 4338   0.909   0.928   7.475  0.2789 -0.5260  0.0789
   32SAPC   H9X 4339   0.813   0.886   7.439  0.2632 -0.9650  0.6342
   32SAPC   H9Y 4340   0.889   0.968   7.576 -1.3515  2.3100 -1.3000
   32SAPC  C310 4341   1.030   0.827   7.487  0.2201 -0.4638  0.1117
   32SAPC  H10X 4342   1.119   0.888   7.512 -0.7459  1.8025 -1.8087
   32SAPC  H10Y 4343   1.048   0.773   7.392  1.2300  0.5205 -0.2597
   32SAPC  C311 4344   1.003   0.714   7.596  0.2824  0.3661  0.2837
   32SAPC  H11X 4345   0.923   0.646   7.560  1.5204 -0.4309 -1.0006
   32SAPC  H11Y 4346   0.971   0.758   7.693  0.9823 -3.2884  2.2795
   32SAPC  C312 4347   1.131   0.643   7.620  0.0659  0.0414  0.0979
   32SAPC  H12X 4348   1.190   0.715   7.681 -0.0440 -0.5115  0.8741
   32SAPC  H12Y 4349   1.173   0.616   7.521  1.2277  0.5469  0.4419
   32SAPC  C313 4350   1.108   0.509   7.693  0.1532  0.3850 -0.2132
   32SAPC  H13X 4351   1.033   0.456   7.631 -0.4924  0.4025  0.5475
   32SAPC  H13Y 4352   1.047   0.537   7.781  0.6311  2.1327 -0.4019
   32SAPC  C314 4353   1.231   0.425   7.728  0.1450 -0.4714  0.4811
   32SAPC  H14X 4354   1.313   0.475   7.785  0.4883 -0.9127  0.3754
   32SAPC  H14Y 4355   1.283   0.387   7.637 -1.7823 -0.3433 -0.6814
   32SAPC  C315 4356   1.205   0.291   7.806  0.5652 -0.8629  0.0590
   32SAPC  H15X 4357   1.155   0.317   7.902 -1.6892 -0.3151 -1.2366
   32SAPC  H15Y 4358   1.307   0.252   7.828  1.1391  0.9084  0.5807
   32SAPC  C316 4359   1.131   0.190   7.731 -0.0407 -0.5408  0.4108
   32SAPC  H16X 4360   1.178   0.156   7.636 -1.4331 -2.0197  0.2201
   32SAPC  H16Y 4361   1.035   0.238   7.701  0.0669  0.3952  1.5359
   32SAPC  C317 4362   1.088   0.062   7.811  0.6013  0.2076 -0.1493
   32SAPC  H17X 4363   1.183   0.014   7.844  0.1683 -0.6772 -0.1740
   32SAPC  H17Y 4364   1.052  -0.003   7.728 -0.7121  0.2484  0.3864
   32SAPC  C318 4365   0.983   0.092   7.917  0.3728  0.2105  0.6624
   32SAPC  H18X 4366   0.886   0.125   7.872  0.2050 -2.1891 -0.8644
   32SAPC  H18Y 4367   1.022   0.167   7.988 -0.2947  1.1776  0.0225
   32SAPC  H18Z 4368   0.967  -0.010   7.958  0.6961 -0.6886 -1.3518
   33POPC     N 4369   5.998   1.300  10.689 -0.3735 -0.5448  0.3747
   33POPC   C12 4370   5.944   1.344  10.554 -0.1188  0.0205 -0.3029
   33POPC  H12A 4371   6.027   1.355  10.486 -0.9824 -1.0927 -1.5722
   33POPC  H12B 4372   5.898   1.440  10.569  3.0473  0.9700  4.1538
   33POPC   C13 4373   6.083   1.179  10.669 -0.4522 -0.2103  0.1052
   33POPC  H13A 4374   6.155   1.188  10.589 -1.5878 -1.5247 -1.0912
   33POPC  H13B 4375   6.125   1.154  10.766 -0.5477 -0.0370  0.1925
   33POPC  H13C 4376   6.022   1.096  10.638  0.9726 -1.4507  0.5391
   33POPC   C14 4377   6.089   1.409  10.741 -0.3303  0.7404 -0.1957
   33POPC  H14A 4378   6.125   1.376  10.838  1.8753 -3.8441 -2.4087
   33POPC  H14B 4379   6.176   1.421  10.678  0.2580 -1.7108  0.1003
   33POPC  H14C 4380   6.038   1.504  10.745 -0.3377  0.6857  1.9447
   33POPC   C15 4381   5.887   1.270  10.783 -0.6467  0.7261 -0.4069
   33POPC  H15A 4382   5.805   1.337  10.759 -0.5431  0.8445 -0.4349
   33POPC  H15B 4383   5.915   1.291  10.885 -2.0895 -1.0468  0.3778
   33POPC  H15C 4384   5.857   1.168  10.764  1.5526 -0.2364  1.1008
   33POPC   C11 4385   5.848   1.243  10.483 -0.1778 -0.0523 -0.3259
   33POPC  H11A 4386   5.898   1.145  10.495  0.2884  0.3573  1.1820
   33POPC  H11B 4387   5.829   1.272  10.377 -0.1373 -1.5407 -0.7512
   33POPC     P 4388   5.608   1.332  10.517  0.2330  0.1840  0.0743
   33POPC   O13 4389   5.672   1.463  10.536 -0.0021 -0.4966  0.3128
   33POPC   O14 4390   5.491   1.294  10.597 -0.0109 -0.2119  0.7208
   33POPC   O12 4391   5.726   1.227  10.544 -0.4825 -0.1176  0.3809
   33POPC   O11 4392   5.572   1.291  10.370 -0.2765 -0.0074  0.3026
   33POPC    C1 4393   5.564   1.154  10.321 -1.0840 -0.3781  0.3802
   33POPC    HA 4394   5.665   1.107  10.318 -1.5820 -1.5286  1.1358
   33POPC    HB 4395   5.495   1.097  10.388 -0.3719  0.5176  1.9023
   33POPC    C2 4396   5.519   1.148  10.172  0.0253 -0.1793 -0.1829
   33POPC    HS 4397   5.512   1.040  10.146  2.7061 -1.1006  2.5949
   33POPC   O21 4398   5.613   1.213  10.084  0.7201  0.5130 -0.4653
   33POPC   C21 4399   5.718   1.146  10.054 -0.6232 -0.3116 -0.0586
   33POPC   O22 4400   5.745   1.034  10.094  0.3983 -0.3978 -0.5347
   33POPC   C22 4401   5.810   1.233   9.968  0.3785  0.4835 -0.3034
   33POPC   H2R 4402   5.889   1.263  10.041  1.5169 -0.1169 -1.2596
   33POPC   H2S 4403   5.777   1.336   9.944 -0.3256 -0.0917 -1.8444
   33POPC    C3 4404   5.374   1.205  10.159  0.4097  0.6101  0.6566
   33POPC    HX 4405   5.374   1.303  10.212 -0.9191 -0.5556  2.9181
   33POPC    HY 4406   5.296   1.146  10.213 -0.8024  0.0068 -1.6942
   33POPC   O31 4407   5.348   1.210  10.017  0.7684 -0.1686  0.9410
   33POPC   C31 4408   5.360   1.311   9.947 -0.5898 -0.4573  0.2888
   33POPC   O32 4409   5.395   1.424   9.991 -0.4104  0.0579 -0.7889
   33POPC   C32 4410   5.342   1.286   9.799 -0.0285  0.3860 -0.0888
   33POPC   H2X 4411   5.411   1.201   9.783  0.6399  0.2485  3.0753
   33POPC   H2Y 4412   5.372   1.378   9.744 -0.2096  0.5848  0.1447
   33POPC   C23 4413   5.880   1.174   9.841 -0.5118 -0.5016  0.3341
   33POPC   H3R 4414   5.938   1.084   9.872  2.7234  1.5626  0.5310
   33POPC   H3S 4415   5.965   1.239   9.813 -0.7404 -1.0089 -1.6123
   33POPC   C24 4416   5.793   1.164   9.723 -0.4590 -0.1062 -0.0140
   33POPC   H4R 4417   5.759   1.268   9.706 -1.1711 -0.1578  1.0515
   33POPC   H4S 4418   5.708   1.096   9.747  0.3440 -1.2067 -0.2485
   33POPC   C25 4419   5.866   1.098   9.597  0.4327 -0.4389 -0.4708
   33POPC   H5R 4420   5.783   1.055   9.536 -0.8338 -1.6427  2.0302
   33POPC   H5S 4421   5.929   1.012   9.628 -1.2776 -0.3644  3.5072
   33POPC   C26 4422   5.948   1.205   9.514  0.5421 -0.1889 -0.2240
   33POPC   H6R 4423   6.014   1.255   9.587 -0.7774  0.9252  0.2056
   33POPC   H6S 4424   5.881   1.286   9.478  0.4687 -0.0744  0.1772
   33POPC   C27 4425   6.024   1.131   9.402  0.5122  0.1299  0.3625
   33POPC   H7R 4426   6.083   1.048   9.448  1.5972  1.1938  0.9175
   33POPC   H7S 4427   6.104   1.201   9.369 -1.3674  2.1884  0.0566
   33POPC   C28 4428   5.948   1.069   9.284 -0.6660  0.1768  0.5293
   33POPC   H8R 4429   5.864   1.013   9.331  1.4717 -1.1746  2.8508
   33POPC   H8S 4430   6.013   0.994   9.234 -1.7810  0.3755 -1.2492
   33POPC   C29 4431   5.895   1.171   9.184 -0.2691  0.3962  0.1802
   33POPC   H91 4432   5.807   1.232   9.210  0.5608  1.3534  0.7265
   33POPC  C210 4433   5.950   1.204   9.069 -0.2243 -0.2735 -0.2633
   33POPC  H101 4434   5.891   1.271   9.005 -0.3698 -0.3284 -0.1861
   33POPC  C211 4435   6.075   1.140   9.017 -0.2607  0.4402  0.3519
   33POPC  H11R 4436   6.131   1.090   9.098 -0.8956 -0.1935  0.4060
   33POPC  H11S 4437   6.130   1.219   8.962 -0.8936 -0.2228 -1.2840
   33POPC  C212 4438   6.037   1.031   8.918  0.7580  0.6705  0.1384
   33POPC  H12R 4439   5.980   0.947   8.963 -1.3257  0.4767 -2.7326
   33POPC  H12S 4440   6.131   0.977   8.894  0.8811  0.8499  0.2221
   33POPC  C213 4441   5.960   1.079   8.789 -0.2172  0.5082  0.1594
   33POPC  H13R 4442   6.027   1.134   8.719 -1.0993  0.5870 -0.6278
   33POPC  H13S 4443   5.888   1.163   8.803 -0.0306  0.9366 -1.3106
   33POPC  C214 4444   5.889   0.963   8.719  0.3797 -0.0515  0.0171
   33POPC  H14R 4445   5.826   0.989   8.631 -1.2195  0.1869  1.2208
   33POPC  H14S 4446   5.825   0.915   8.795 -2.3291  1.1558 -1.4205
   33POPC  C215 4447   5.993   0.869   8.671  0.4693 -0.0097  0.4429
   33POPC  H15R 4448   6.059   0.834   8.753  1.2013  2.9906  1.1924
   33POPC  H15S 4449   6.045   0.918   8.586 -4.2911  1.7965 -1.6153
   33POPC  C216 4450   5.928   0.737   8.621  0.1180 -0.9114  0.5475
   33POPC  H16R 4451   5.830   0.753   8.571  1.4912  0.7133 -1.7180
   33POPC  H16S 4452   5.912   0.680   8.716  3.0586  0.3876  1.8904
   33POPC  C217 4453   6.017   0.659   8.529 -0.3572  1.0639 -0.6911
   33POPC  H17R 4454   6.124   0.667   8.557 -0.2993  1.5129 -1.0351
   33POPC  H17S 4455   6.006   0.704   8.428 -2.0327 -2.2066 -2.0661
   33POPC  C218 4456   5.978   0.506   8.514  0.5158 -0.6969 -0.2931
   33POPC  H18R 4457   5.987   0.455   8.612  2.6273  0.8167  0.3329
   33POPC  H18S 4458   6.038   0.459   8.433  2.6409 -0.1005  0.9035
   33POPC  H18T 4459   5.875   0.499   8.474 -0.3878  2.1219  1.4372
   33POPC   C33 4460   5.194   1.260   9.756  0.0426 -0.4008  0.1696
   33POPC   H3X 4461   5.126   1.308   9.829  0.6961 -0.0955  0.5841
   33POPC   H3Y 4462   5.180   1.152   9.777  0.7754 -0.6221 -0.4354
   33POPC   C34 4463   5.163   1.302   9.612 -0.4028 -0.0170 -0.4695
   33POPC   H4X 4464   5.190   1.409   9.598 -0.5206  0.0779  0.0171
   33POPC   H4Y 4465   5.052   1.300   9.603 -0.4182 -0.4062 -0.2051
   33POPC   C35 4466   5.233   1.210   9.506  0.5306  0.0233 -0.1319
   33POPC   H5X 4467   5.205   1.105   9.527  2.1494 -0.6681 -1.2394
   33POPC   H5Y 4468   5.342   1.229   9.521  0.7546 -2.1024  1.0803
   33POPC   C36 4469   5.204   1.244   9.357 -0.1602  0.2403  0.3049
   33POPC   H6X 4470   5.207   1.350   9.323  3.0806 -0.1168 -0.6893
   33POPC   H6Y 4471   5.098   1.211   9.350 -1.0122  2.6511  1.4330
   33POPC   C37 4472   5.304   1.172   9.264 -0.3529 -0.1018 -0.2599
   33POPC   H7X 4473   5.308   1.064   9.290 -0.2988 -0.5919 -2.1756
   33POPC   H7Y 4474   5.405   1.218   9.266 -0.2111 -0.3992 -0.5941
   33POPC   C38 4475   5.253   1.181   9.118 -0.2709 -0.2319 -0.7633
   33POPC   H8X 4476   5.255   1.287   9.084 -1.2752  0.0776  0.1404
   33POPC   H8Y 4477   5.148   1.148   9.131  0.0201 -1.1360 -0.6914
   33POPC   C39 4478   5.323   1.082   9.022 -0.2639 -0.3842 -0.3924
   33POPC   H9X 4479   5.300   0.978   9.053  0.9766 -0.6250 -0.2270
   33POPC   H9Y 4480   5.433   1.097   9.018 -0.3644  0.0309 -1.8661
   33POPC  C310 4481   5.273   1.082   8.872  0.2427 -0.0143 -0.2951
   33POPC  H10X 4482   5.231   1.182   8.844  0.1019  0.2428  0.7814
   33POPC  H10Y 4483   5.186   1.013   8.882  0.8391 -0.7921 -0.4907
   33POPC  C311 4484   5.364   1.038   8.756 -0.3663  0.2437  0.0363
   33POPC  H11X 4485   5.406   0.940   8.787  0.5708  0.5721 -0.1533
   33POPC  H11Y 4486   5.448   1.111   8.754  0.3454 -0.5907 -1.6776
   33POPC  C312 4487   5.274   1.029   8.637 -0.1296 -0.0246  0.6695
   33POPC  H12X 4488   5.247   1.128   8.596  1.3382 -0.0681 -0.4424
   33POPC  H12Y 4489   5.175   0.987   8.665  0.0004 -0.7478  0.0625
   33POPC  C313 4490   5.328   0.936   8.529  0.0440  0.2010  0.1476
   33POPC  H13X 4491   5.245   0.918   8.457  0.6469 -0.2372 -0.4405
   33POPC  H13Y 4492   5.352   0.833   8.563 -2.2604 -0.4295 -0.0653
   33POPC  C314 4493   5.430   1.002   8.442 -0.4811  1.0850  0.3834
   33POPC  H14X 4494   5.448   0.931   8.359 -3.7401  0.4888  0.1202
   33POPC  H14Y 4495   5.522   1.017   8.503 -1.2031 -0.3361  1.8428
   33POPC  C315 4496   5.390   1.135   8.375 -0.4841 -0.4830  0.6503
   33POPC  H15X 4497   5.373   1.211   8.454  0.8166  0.9968 -0.4656
   33POPC  H15Y 4498   5.295   1.127   8.319 -1.4468  1.9766  1.8926
   33POPC  C316 4499   5.508   1.183   8.283 -0.1763 -0.2972 -0.0801
   33POPC  H16X 4500   5.542   1.095   8.225  0.9852 -0.0543  0.2167
   33POPC  H16Y 4501   5.588   1.225   8.347 -0.8907  0.0436  0.5945
   33POPC  H16Z 4502   5.463   1.260   8.217 -0.2140  0.2609  0.5947
   34POPC     N 4503   4.230   2.340  11.030 -0.5583  0.1644 -0.3964
   34POPC   C12 4504   4.238   2.401  10.893 -0.2084 -0.4620  0.9811
   34POPC  H12A 4505   4.285   2.498  10.901  1.4770 -1.0799 -1.0691
   34POPC  H12B 4506   4.139   2.441  10.873  0.4061  1.4443  1.5804
   34POPC   C13 4507   4.158   2.211  11.034  0.0883  0.1741 -0.6590
   34POPC  H13A 4508   4.136   2.182  11.136  1.0294  1.4073 -0.1048
   34POPC  H13B 4509   4.055   2.233  11.009 -0.7567 -1.3447  1.2674
   34POPC  H13C 4510   4.198   2.129  10.977  0.6914 -1.5966  2.2107
   34POPC   C14 4511   4.367   2.314  11.070 -0.1114 -0.6932 -0.6644
   34POPC  H14A 4512   4.419   2.397  11.116  1.2400 -0.9089 -1.7978
   34POPC  H14B 4513   4.371   2.222  11.126  1.0681 -1.3091 -1.7422
   34POPC  H14C 4514   4.434   2.292  10.988  0.0383 -0.5575 -0.5776
   34POPC   C15 4515   4.161   2.422  11.123  0.1161  0.1099 -0.4606
   34POPC  H15A 4516   4.213   2.514  11.149 -1.2265  0.5268  0.8220
   34POPC  H15B 4517   4.161   2.363  11.213 -1.1422 -3.8494 -2.9535
   34POPC  H15C 4518   4.060   2.446  11.096 -0.1463  1.4908  1.6002
   34POPC   C11 4519   4.310   2.328  10.773 -0.1367 -0.0157  0.0125
   34POPC  H11A 4520   4.290   2.377  10.676 -1.2552 -0.5307 -0.0220
   34POPC  H11B 4521   4.276   2.222  10.771  0.9684 -0.3644 -1.1837
   34POPC     P 4522   4.552   2.216  10.757  0.0737  0.2010 -0.0348
   34POPC   O13 4523   4.502   2.091  10.825  0.4869  0.0731  0.0987
   34POPC   O14 4524   4.691   2.260  10.789 -0.2018 -0.3786  0.0755
   34POPC   O12 4525   4.451   2.328  10.796 -0.0594 -0.6252 -0.3052
   34POPC   O11 4526   4.535   2.212  10.603 -0.1037 -0.0971  0.6542
   34POPC    C1 4527   4.447   2.127  10.536  0.9952 -0.1906 -0.2825
   34POPC    HA 4528   4.345   2.166  10.555  0.5133 -1.9479  0.8798
   34POPC    HB 4529   4.453   2.020  10.566  1.6906  0.0896  0.5820
   34POPC    C2 4530   4.484   2.127  10.383 -0.0520  0.1550 -0.4167
   34POPC    HS 4531   4.394   2.086  10.334  0.4960  0.5287 -1.7613
   34POPC   O21 4532   4.601   2.038  10.362  0.2183 -0.3642 -0.0404
   34POPC   C21 4533   4.614   1.983  10.243 -0.5028 -0.2704  0.3367
   34POPC   O22 4534   4.526   1.988  10.157  0.1434  0.1613 -0.3852
   34POPC   C22 4535   4.747   1.909  10.219 -0.1023 -0.1645 -0.1808
   34POPC   H2R 4536   4.733   1.804  10.186 -0.3243  0.4032 -1.9918
   34POPC   H2S 4537   4.806   1.907  10.313  0.1310  3.8348 -0.1684
   34POPC    C3 4538   4.509   2.267  10.323 -0.2872 -0.2033  0.9089
   34POPC    HX 4539   4.602   2.305  10.371 -0.9347  2.4160  0.1776
   34POPC    HY 4540   4.430   2.338  10.356 -0.4548  0.4457 -0.8438
   34POPC   O31 4541   4.507   2.270  10.181  0.6208  0.2801  0.1520
   34POPC   C31 4542   4.619   2.317  10.124 -0.5523 -0.1515  0.6326
   34POPC   O32 4543   4.731   2.329  10.174 -0.3853  0.4348  0.6651
   34POPC   C32 4544   4.587   2.366   9.988 -0.1083 -0.2624  0.5441
   34POPC   H2X 4545   4.568   2.474  10.005 -0.9867 -0.1918 -0.8343
   34POPC   H2Y 4546   4.490   2.328   9.950 -1.6579  2.5966  1.5676
   34POPC   C23 4547   4.829   1.978  10.109 -0.5790  0.6843  0.8708
   34POPC   H3R 4548   4.926   1.924  10.102 -1.0444 -0.2261  1.4522
   34POPC   H3S 4549   4.855   2.085  10.127  0.7331  0.5217  0.0397
   34POPC   C24 4550   4.772   1.966   9.968  0.3273  0.9339  0.5971
   34POPC   H4R 4551   4.685   2.034   9.951  0.4031  0.9700  0.3573
   34POPC   H4S 4552   4.720   1.868   9.962 -0.5139  1.4900 -1.5998
   34POPC   C25 4553   4.872   1.992   9.858  0.3546  0.5465 -0.6278
   34POPC   H5R 4554   4.954   1.919   9.876  1.0627  1.3181 -0.6576
   34POPC   H5S 4555   4.924   2.087   9.885  0.2659  0.6462 -0.8097
   34POPC   C26 4556   4.819   1.974   9.717  0.3035  0.1688 -0.3722
   34POPC   H6R 4557   4.739   2.050   9.701 -0.2069 -0.7101 -2.0616
   34POPC   H6S 4558   4.760   1.882   9.698  0.1148  0.0098  0.9177
   34POPC   C27 4559   4.934   1.976   9.614 -0.1070 -0.4840  0.2805
   34POPC   H7R 4560   5.013   1.902   9.640 -1.3344 -1.4420  1.3218
   34POPC   H7S 4561   4.991   2.071   9.602 -1.6427  0.5876  1.3123
   34POPC   C28 4562   4.875   1.944   9.477 -0.0848 -0.3227  0.7558
   34POPC   H8R 4563   4.827   1.844   9.482 -1.4782  0.2712 -0.4087
   34POPC   H8S 4564   4.954   1.927   9.401  0.7233  0.2313  1.4473
   34POPC   C29 4565   4.781   2.048   9.417 -0.0206  0.0250 -0.1186
   34POPC   H91 4566   4.681   2.056   9.462  0.1234 -0.9149  0.3850
   34POPC  C210 4567   4.814   2.137   9.321 -0.3321 -0.1036  0.1694
   34POPC  H101 4568   4.746   2.220   9.297  2.6574  1.3715 -3.9034
   34POPC  C211 4569   4.944   2.152   9.252  0.1266  0.0590 -0.4119
   34POPC  H11R 4570   5.035   2.110   9.300 -0.0368 -1.4617 -1.4176
   34POPC  H11S 4571   4.970   2.260   9.243  0.7835 -0.0573  0.0783
   34POPC  C212 4572   4.935   2.107   9.111 -0.9006 -0.1071  0.2546
   34POPC  H12R 4573   4.917   1.998   9.102 -0.6486  0.0047 -1.6977
   34POPC  H12S 4574   5.031   2.129   9.060 -0.9571  0.4809  0.4025
   34POPC  C213 4575   4.828   2.188   9.031 -0.2740 -0.5540 -0.4308
   34POPC  H13R 4576   4.825   2.295   9.062  0.6870 -1.1516  1.7619
   34POPC  H13S 4577   4.728   2.146   9.055 -0.2311 -0.7253 -0.5544
   34POPC  C214 4578   4.848   2.191   8.880  0.1466 -0.5794 -0.2627
   34POPC  H14R 4579   4.845   2.083   8.852 -0.7179 -0.1719 -1.8543
   34POPC  H14S 4580   4.949   2.228   8.853  0.1536 -2.2042 -2.6284
   34POPC  C215 4581   4.736   2.265   8.800 -0.3892  0.2971  0.0707
   34POPC  H15R 4582   4.716   2.370   8.832  1.8991  0.8316 -0.1740
   34POPC  H15S 4583   4.645   2.210   8.833  0.1460 -1.1251 -0.8138
   34POPC  C216 4584   4.757   2.266   8.649  0.1333 -0.1663  0.0328
   34POPC  H16R 4585   4.674   2.324   8.602 -0.9553 -1.4981  0.3021
   34POPC  H16S 4586   4.749   2.161   8.616  3.7368 -0.4923  0.0091
   34POPC  C217 4587   4.885   2.330   8.597 -0.3783 -0.3131 -0.1668
   34POPC  H17R 4588   4.894   2.330   8.486 -0.8281 -1.3597 -0.2129
   34POPC  H17S 4589   4.969   2.266   8.630 -0.0956  0.6654  1.0375
   34POPC  C218 4590   4.899   2.476   8.653 -0.7425 -0.2451 -0.1945
   34POPC  H18R 4591   4.986   2.533   8.614 -1.0392 -1.0031 -1.9912
   34POPC  H18S 4592   4.907   2.463   8.763  0.9485 -0.7092 -0.3559
   34POPC  H18T 4593   4.803   2.529   8.632 -0.5249 -0.1499 -0.9592
   34POPC   C33 4594   4.701   2.348   9.875  0.1240 -0.5277 -0.1021
   34POPC   H3X 4595   4.729   2.242   9.857  2.2169 -0.0289  0.0590
   34POPC   H3Y 4596   4.786   2.399   9.925  0.3138  0.3841 -1.3275
   34POPC   C34 4597   4.659   2.412   9.750 -0.0306  0.7761 -0.0673
   34POPC   H4X 4598   4.649   2.520   9.773 -0.0427  0.4458  1.4904
   34POPC   H4Y 4599   4.563   2.369   9.714 -0.1740  1.0699 -0.0426
   34POPC   C35 4600   4.765   2.398   9.633  1.0791 -1.1333 -0.4717
   34POPC   H5X 4601   4.781   2.290   9.611 -0.8094 -1.5674  0.2504
   34POPC   H5Y 4602   4.861   2.429   9.681  0.8073  1.5056 -1.5353
   34POPC   C36 4603   4.729   2.483   9.516  0.6702  0.7089  0.6979
   34POPC   H6X 4604   4.707   2.587   9.549 -1.9034  0.1778  0.7134
   34POPC   H6Y 4605   4.633   2.456   9.469  1.9666 -3.5696  0.3130
   34POPC   C37 4606   4.841   2.491   9.408 -0.5983 -0.1172 -0.0952
   34POPC   H7X 4607   4.871   2.392   9.368  2.1252  0.4688  0.4262
   34POPC   H7Y 4608   4.936   2.535   9.444 -0.5343  0.1306 -0.5713
   34POPC   C38 4609   4.799   2.578   9.289  0.2331  0.9805 -0.5694
   34POPC   H8X 4610   4.766   2.670   9.343 -1.5032  1.3177 -2.1735
   34POPC   H8Y 4611   4.705   2.537   9.247  0.1382  0.8778 -0.2599
   34POPC   C39 4612   4.919   2.604   9.200 -0.2462 -0.2770  1.0658
   34POPC   H9X 4613   4.946   2.502   9.165 -0.4296  0.3936 -1.0584
   34POPC   H9Y 4614   4.999   2.661   9.250 -2.6658  1.6875  2.8495
   34POPC  C310 4615   4.877   2.673   9.063 -0.2410  0.1606 -0.7174
   34POPC  H10X 4616   4.795   2.611   9.023  0.4646 -0.9063 -0.5348
   34POPC  H10Y 4617   4.962   2.662   8.992 -0.3534 -1.7734 -0.5967
   34POPC  C311 4618   4.839   2.822   9.074 -0.4702  0.1967 -0.6657
   34POPC  H11X 4619   4.939   2.868   9.087  0.1333 -1.4129  0.7436
   34POPC  H11Y 4620   4.774   2.829   9.164 -1.2660 -3.4218 -0.8563
   34POPC  C312 4621   4.758   2.876   8.962  0.0344 -0.1979 -0.1884
   34POPC  H12X 4622   4.738   2.985   8.974 -0.3051  0.3374 -4.6233
   34POPC  H12Y 4623   4.665   2.815   8.960  0.8144 -1.4076  0.2095
   34POPC  C313 4624   4.833   2.853   8.825 -0.4138  0.7943 -0.5629
   34POPC  H13X 4625   4.769   2.888   8.741 -0.1352 -0.2080 -1.2096
   34POPC  H13Y 4626   4.853   2.744   8.811 -0.1390  0.4309  2.3662
   34POPC  C314 4627   4.969   2.912   8.811 -0.0086  0.0660  0.0871
   34POPC  H14X 4628   5.048   2.866   8.874 -1.3298 -1.7620  0.4625
   34POPC  H14Y 4629   4.962   3.020   8.834  1.1295  0.4413 -1.2456
   34POPC  C315 4630   5.033   2.910   8.673  0.0279 -0.1176  0.3960
   34POPC  H15X 4631   5.044   2.803   8.644 -2.4159 -0.7703  1.7249
   34POPC  H15Y 4632   5.138   2.946   8.667  0.3531 -1.0917  0.0638
   34POPC  C316 4633   4.954   2.994   8.573 -0.9742  0.0962 -0.3076
   34POPC  H16X 4634   4.940   2.952   8.471 -0.1278 -0.5976 -0.1442
   34POPC  H16Y 4635   4.995   3.097   8.567 -0.1102 -0.2786 -1.0725
   34POPC  H16Z 4636   4.851   3.015   8.607 -0.4535  0.2149  1.2222
   35POPC     N 4637   4.131   6.671  11.354  0.4652 -0.1258 -0.1419
   35POPC   C12 4638   4.167   6.720  11.219 -0.2375 -0.0349  0.2371
   35POPC  H12A 4639   4.260   6.672  11.191 -0.2913 -2.2698  3.6734
   35POPC  H12B 4640   4.208   6.819  11.235 -0.5713 -0.2593  2.6154
   35POPC   C13 4641   4.232   6.705  11.455 -0.0639  0.3554 -0.4382
   35POPC  H13A 4642   4.198   6.663  11.549  1.0909 -0.1225 -0.2283
   35POPC  H13B 4643   4.333   6.681  11.426 -0.4444 -0.0562 -1.4533
   35POPC  H13C 4644   4.232   6.809  11.481 -1.1904 -0.1286  1.5767
   35POPC   C14 4645   3.999   6.726  11.409  0.5329 -0.8104 -0.4858
   35POPC  H14A 4646   3.914   6.667  11.378  0.1376 -2.7807  4.0168
   35POPC  H14B 4647   4.003   6.722  11.517  0.6326  0.1368 -0.4433
   35POPC  H14C 4648   3.991   6.834  11.401  0.2605 -0.4235  3.8109
   35POPC   C15 4649   4.119   6.522  11.350  0.5243 -0.3723  0.4095
   35POPC  H15A 4650   4.046   6.500  11.273  0.2617 -0.3503  0.6543
   35POPC  H15B 4651   4.090   6.485  11.447 -1.2855  0.6589  0.2863
   35POPC  H15C 4652   4.210   6.470  11.324  0.9085  0.0811  0.8547
   35POPC   C11 4653   4.072   6.722  11.104 -0.2165  0.3310 -0.1635
   35POPC  H11A 4654   4.129   6.772  11.023  1.5500  2.4237  2.2688
   35POPC  H11B 4655   3.988   6.784  11.140 -0.6039  0.6568 -1.5935
   35POPC     P 4656   4.128   6.498  10.982  0.0629  0.0843 -0.3185
   35POPC   O13 4657   4.058   6.384  10.934  0.5694  0.1415 -0.0883
   35POPC   O14 4658   4.257   6.469  11.051 -0.2396  0.4877 -0.8036
   35POPC   O12 4659   4.028   6.587  11.067 -0.2891  0.4884  0.0682
   35POPC   O11 4660   4.162   6.588  10.857 -0.2924 -0.6749  0.5509
   35POPC    C1 4661   4.066   6.621  10.757 -0.6957  0.0705 -0.0777
   35POPC    HA 4662   3.983   6.688  10.789 -0.4495  0.0272  0.6750
   35POPC    HB 4663   4.031   6.524  10.716 -2.7642  0.4364  0.7648
   35POPC    C2 4664   4.136   6.705  10.640 -0.2963 -0.0982 -0.3147
   35POPC    HS 4665   4.063   6.736  10.563 -0.1153  0.8839 -0.1042
   35POPC   O21 4666   4.238   6.619  10.576 -1.0838  0.7614  0.1298
   35POPC   C21 4667   4.209   6.575  10.456 -0.5157  0.4373 -0.4544
   35POPC   O22 4668   4.099   6.582  10.401 -0.5857 -0.1585 -0.2031
   35POPC   C22 4669   4.327   6.497  10.399 -0.2351 -0.2419 -0.5008
   35POPC   H2R 4670   4.293   6.406  10.347 -0.3957 -0.7123  0.4260
   35POPC   H2S 4671   4.382   6.462  10.489  0.0123 -1.5083 -1.1434
   35POPC    C3 4672   4.212   6.825  10.696 -0.1770 -0.3725 -0.0974
   35POPC    HX 4673   4.274   6.786  10.779 -1.0759 -2.0030 -0.1874
   35POPC    HY 4674   4.136   6.897  10.732  1.2100  0.6837  0.7798
   35POPC   O31 4675   4.303   6.883  10.597 -0.0130 -0.4685  0.6568
   35POPC   C31 4676   4.227   6.968  10.516  0.1365  0.0226  0.0052
   35POPC   O32 4677   4.107   6.989  10.523 -0.3653 -0.6575 -0.1190
   35POPC   C32 4678   4.322   7.030  10.415 -0.1594  0.2055 -0.3566
   35POPC   H2X 4679   4.361   6.942  10.360 -0.6826 -0.7085  0.7050
   35POPC   H2Y 4680   4.393   7.091  10.475  0.8492 -2.8892  1.7113
   35POPC   C23 4681   4.415   6.576  10.306 -0.1366  0.8148  0.4825
   35POPC   H3R 4682   4.501   6.510  10.283 -0.2817  0.9172 -0.3630
   35POPC   H3S 4683   4.457   6.672  10.344  2.9462 -1.2269  2.4634
   35POPC   C24 4684   4.343   6.587  10.170 -0.8440  0.0155  0.2903
   35POPC   H4R 4685   4.247   6.642  10.167 -1.2708 -0.7554 -0.8015
   35POPC   H4S 4686   4.319   6.483  10.136  2.7561 -0.8392  0.2273
   35POPC   C25 4687   4.446   6.642  10.070  0.1539 -0.8445  0.5284
   35POPC   H5R 4688   4.548   6.612  10.105  0.1700  1.2028  2.3620
   35POPC   H5S 4689   4.442   6.753  10.062  1.9855 -0.9327 -2.4637
   35POPC   C26 4690   4.425   6.585   9.932 -1.1733  0.6860 -0.3377
   35POPC   H6R 4691   4.414   6.475   9.936 -4.0047  0.8993 -1.0402
   35POPC   H6S 4692   4.508   6.606   9.862  0.2841 -1.4703  0.6760
   35POPC   C27 4693   4.299   6.636   9.858  0.8675  0.2448 -0.2843
   35POPC   H7R 4694   4.280   6.741   9.890 -0.0242 -0.1088  0.3743
   35POPC   H7S 4695   4.213   6.580   9.902  0.7429  0.0487 -0.7834
   35POPC   C28 4696   4.305   6.613   9.707  0.7641 -0.1430 -0.8031
   35POPC   H8R 4697   4.386   6.674   9.660 -0.1495 -0.0228 -2.2813
   35POPC   H8S 4698   4.218   6.653   9.649  4.1367  2.0474 -4.6085
   35POPC   C29 4699   4.318   6.467   9.669  0.6771 -0.0418 -0.1286
   35POPC   H91 4700   4.328   6.389   9.746  0.5187 -1.1098 -1.1779
   35POPC  C210 4701   4.303   6.416   9.543 -0.0105  0.5007  0.8465
   35POPC  H101 4702   4.315   6.310   9.519 -1.0970  0.6964 -0.6595
   35POPC  C211 4703   4.270   6.500   9.420  0.4599 -0.0643 -0.2102
   35POPC  H11R 4704   4.348   6.579   9.407 -1.2884  1.7028 -0.1377
   35POPC  H11S 4705   4.175   6.555   9.436 -0.1325 -1.3467  0.7062
   35POPC  C212 4706   4.266   6.419   9.290 -0.1048  0.3181 -0.8854
   35POPC  H12R 4707   4.229   6.485   9.209  1.9072 -0.2690 -2.3253
   35POPC  H12S 4708   4.201   6.330   9.306  0.7484 -0.4247 -1.5058
   35POPC  C213 4709   4.412   6.373   9.237  0.2194 -0.3904 -0.3137
   35POPC  H13R 4710   4.459   6.320   9.322  0.7918 -0.1528 -0.4792
   35POPC  H13S 4711   4.480   6.458   9.214 -2.9143  1.4188 -3.4982
   35POPC  C214 4712   4.412   6.280   9.118 -0.4007  0.6652 -0.0583
   35POPC  H14R 4713   4.348   6.192   9.137  0.5581  0.1407  0.7521
   35POPC  H14S 4714   4.507   6.231   9.090 -0.5851 -0.2545  0.9003
   35POPC  C215 4715   4.375   6.345   8.986  0.2626  0.2730  0.1065
   35POPC  H15R 4716   4.425   6.442   8.967  0.3045  0.2918  0.3113
   35POPC  H15S 4717   4.271   6.383   8.983  1.5438  3.8801 -3.2800
   35POPC  C216 4718   4.408   6.262   8.860  0.0850 -0.3329  0.6537
   35POPC  H16R 4719   4.333   6.180   8.849 -1.6942  1.2142  1.0049
   35POPC  H16S 4720   4.511   6.224   8.878  0.1918  0.0489  0.8479
   35POPC  C217 4721   4.407   6.354   8.736  0.5907 -0.8495 -0.8615
   35POPC  H17R 4722   4.493   6.422   8.750  0.6433 -0.9799 -0.5250
   35POPC  H17S 4723   4.314   6.415   8.733  0.7334 -0.4160  2.0773
   35POPC  C218 4724   4.409   6.270   8.608 -0.0286 -0.4358 -0.3644
   35POPC  H18R 4725   4.471   6.179   8.623  1.4292  0.0915 -2.9297
   35POPC  H18S 4726   4.441   6.321   8.514  1.3193  2.1077  1.3895
   35POPC  H18T 4727   4.306   6.233   8.592 -0.5513  1.2818 -1.0581
   35POPC   C33 4728   4.246   7.116  10.323 -0.2817  0.6645  0.2326
   35POPC   H3X 4729   4.198   7.202  10.374  0.0348  0.4637  0.8607
   35POPC   H3Y 4730   4.162   7.050  10.289  2.1726 -2.1881 -0.5485
   35POPC   C34 4731   4.332   7.163  10.206 -0.2743  0.1925  0.5476
   35POPC   H4X 4732   4.438   7.140  10.228 -0.7883 -1.6540  1.1198
   35POPC   H4Y 4733   4.325   7.274  10.195  1.7636  0.4120  1.2258
   35POPC   C35 4734   4.293   7.101  10.070  0.1756 -0.0282  0.3308
   35POPC   H5X 4735   4.192   7.132  10.038 -0.4254  0.3056  2.4757
   35POPC   H5Y 4736   4.294   6.990  10.071 -2.0262 -0.0623 -0.4650
   35POPC   C36 4737   4.384   7.146   9.954 -0.1713  0.6601  0.5587
   35POPC   H6X 4738   4.491   7.145   9.985  0.2440 -0.4002 -0.8500
   35POPC   H6Y 4739   4.345   7.246   9.923 -0.3118  0.5504  0.3765
   35POPC   C37 4740   4.363   7.043   9.840 -1.1921 -0.7259 -0.8336
   35POPC   H7X 4741   4.255   7.017   9.835 -1.4293  0.3808 -1.8116
   35POPC   H7Y 4742   4.419   6.957   9.883  0.5599 -0.2885 -2.1594
   35POPC   C38 4743   4.419   7.081   9.706 -0.0013  0.0898  0.0404
   35POPC   H8X 4744   4.529   7.089   9.714 -0.0854  0.9191  0.4559
   35POPC   H8Y 4745   4.381   7.176   9.661 -0.3397 -0.2762 -0.4537
   35POPC   C39 4746   4.382   6.977   9.605  0.0322 -0.0105 -0.3720
   35POPC   H9X 4747   4.271   6.972   9.600 -0.0047 -0.2647  0.5518
   35POPC   H9Y 4748   4.406   6.875   9.643 -1.5572 -1.4055 -2.9646
   35POPC  C310 4749   4.448   7.011   9.470  0.0387  0.0748 -0.0923
   35POPC  H10X 4750   4.557   7.009   9.491 -0.1220  2.2490  1.1160
   35POPC  H10Y 4751   4.416   7.113   9.441  0.0212  0.4963  1.3609
   35POPC  C311 4752   4.404   6.917   9.355 -0.2440 -0.0560 -0.1805
   35POPC  H11X 4753   4.298   6.928   9.325 -0.3377  3.4308  1.1974
   35POPC  H11Y 4754   4.418   6.812   9.387 -1.2071 -0.9838 -2.6365
   35POPC  C312 4755   4.488   6.930   9.230  0.4650 -0.1073 -1.1257
   35POPC  H12X 4756   4.596   6.917   9.252  0.8680  5.2532  0.5207
   35POPC  H12Y 4757   4.473   7.031   9.186  0.0020  0.1021 -0.5019
   35POPC  C313 4758   4.437   6.838   9.112 -0.5648 -0.6536  1.1279
   35POPC  H13X 4759   4.327   6.854   9.112 -0.3516  0.9297  0.4643
   35POPC  H13Y 4760   4.460   6.735   9.147 -0.2302 -1.2813 -0.8785
   35POPC  C314 4761   4.503   6.866   8.976 -0.3129 -0.1248  0.0479
   35POPC  H14X 4762   4.613   6.873   8.988 -0.4483  0.3929  1.0292
   35POPC  H14Y 4763   4.475   6.964   8.931  0.2990  1.1084  2.2674
   35POPC  C315 4764   4.474   6.753   8.874 -0.0741 -0.6734  0.9314
   35POPC  H15X 4765   4.497   6.657   8.925 -0.6272 -2.6321 -2.3014
   35POPC  H15Y 4766   4.542   6.763   8.786 -0.1337  0.1882  0.9790
   35POPC  C316 4767   4.329   6.753   8.826 -0.2915 -0.6828 -0.3612
   35POPC  H16X 4768   4.273   6.760   8.921  1.3108  1.7057  0.4611
   35POPC  H16Y 4769   4.324   6.668   8.754  1.7979  0.1846 -1.5975
   35POPC  H16Z 4770   4.318   6.843   8.761 -0.7025 -1.5463 -1.4969
   36POPC     N 4771   4.578   4.535  11.184 -0.3767 -0.4760 -0.2695
   36POPC   C12 4772   4.622   4.638  11.085  0.3847  0.8484  0.1971
   36POPC  H12A 4773   4.730   4.639  11.076  0.5527  1.1549  2.0483
   36POPC  H12B 4774   4.588   4.731  11.128 -0.5099  1.2730 -1.3912
   36POPC   C13 4775   4.653   4.551  11.312  0.2712 -0.2154 -0.1248
   36POPC  H13A 4776   4.633   4.648  11.355 -0.5408 -0.4850  0.1121
   36POPC  H13B 4777   4.613   4.481  11.383 -1.4651  2.1962  1.3477
   36POPC  H13C 4778   4.757   4.522  11.306 -0.1769 -1.5975 -1.6996
   36POPC   C14 4779   4.430   4.534  11.214 -0.2073  0.7123  0.5976
   36POPC  H14A 4780   4.403   4.612  11.284 -1.5256  0.4695  0.3559
   36POPC  H14B 4781   4.379   4.553  11.122 -1.3434 -1.6167  0.7091
   36POPC  H14C 4782   4.406   4.434  11.247 -2.6252  1.4967  1.2767
   36POPC   C15 4783   4.615   4.396  11.144 -0.2507  0.4696  0.1755
   36POPC  H15A 4784   4.611   4.333  11.232 -0.5926 -0.7813 -0.7262
   36POPC  H15B 4785   4.717   4.398  11.109 -0.4199  1.7794 -0.2667
   36POPC  H15C 4786   4.551   4.362  11.064 -2.2893  2.5923  0.8237
   36POPC   C11 4787   4.566   4.621  10.945  0.2526 -0.4556 -0.2703
   36POPC  H11A 4788   4.592   4.520  10.904  0.3223 -0.6518  0.2545
   36POPC  H11B 4789   4.606   4.683  10.862 -1.4503 -0.0615 -0.8197
   36POPC     P 4790   4.360   4.778  10.969 -0.1198 -0.5220  0.0440
   36POPC   O13 4791   4.457   4.885  11.002 -0.1549 -0.0398  0.2418
   36POPC   O14 4792   4.243   4.761  11.059 -0.3455 -0.2115 -0.7895
   36POPC   O12 4793   4.422   4.641  10.945  0.4180  0.2414  0.0200
   36POPC   O11 4794   4.311   4.811  10.823  0.2801  0.8797 -0.6605
   36POPC    C1 4795   4.240   4.703  10.759  0.0587  0.1105  0.1668
   36POPC    HA 4796   4.181   4.641  10.830  2.5094  1.3235  3.3811
   36POPC    HB 4797   4.308   4.626  10.715  0.0349  0.0553  0.2255
   36POPC    C2 4798   4.157   4.758  10.635  0.2316  0.0712 -0.4414
   36POPC    HS 4799   4.129   4.668  10.576 -1.0000  0.4360 -0.4359
   36POPC   O21 4800   4.232   4.851  10.557 -0.4525  0.6451 -0.3293
   36POPC   C21 4801   4.353   4.824  10.514 -0.0031  0.3902 -0.3374
   36POPC   O22 4802   4.415   4.720  10.529 -0.1017  0.1657 -0.1588
   36POPC   C22 4803   4.413   4.946  10.448 -0.1191 -1.1118  0.0668
   36POPC   H2R 4804   4.427   5.021  10.529 -0.1935 -2.2555  1.1616
   36POPC   H2S 4805   4.332   4.972  10.376 -0.5800 -0.9276  0.6484
   36POPC    C3 4806   4.027   4.818  10.675 -0.4079  0.7810  0.4627
   36POPC    HX 4807   4.052   4.896  10.751  0.4759  0.7470  0.2037
   36POPC    HY 4808   3.967   4.742  10.731  2.6257 -1.3290  0.9493
   36POPC   O31 4809   3.955   4.882  10.565 -0.2424 -0.0459 -0.2293
   36POPC   C31 4810   3.902   4.794  10.473 -0.5037  0.4079  0.1493
   36POPC   O32 4811   3.889   4.678  10.500  0.0584  0.0552  0.0546
   36POPC   C32 4812   3.855   4.863  10.341  0.5510  0.3512  0.0515
   36POPC   H2X 4813   3.763   4.919  10.367  1.6662  1.6018  1.3680
   36POPC   H2Y 4814   3.840   4.789  10.260 -1.5764  0.9971 -0.1646
   36POPC   C23 4815   4.541   4.914  10.368 -0.0729  0.0092  0.1873
   36POPC   H3R 4816   4.513   4.847  10.283 -0.5887 -2.0252  1.9203
   36POPC   H3S 4817   4.615   4.870  10.438  2.3748  0.3668 -2.0844
   36POPC   C24 4818   4.606   5.037  10.318 -0.1271 -0.1096 -0.1092
   36POPC   H4R 4819   4.714   5.011  10.310  0.2384  1.2946  0.1291
   36POPC   H4S 4820   4.610   5.116  10.395 -1.4436  1.6037 -1.7536
   36POPC   C25 4821   4.552   5.089  10.186  0.3480 -0.3844  0.2461
   36POPC   H5R 4822   4.583   5.196  10.182  1.0216 -0.4252  3.2433
   36POPC   H5S 4823   4.441   5.087  10.185  0.3256 -0.2340  1.9991
   36POPC   C26 4824   4.609   5.005  10.064  0.6330 -0.2836  0.1333
   36POPC   H6R 4825   4.592   4.896  10.072  2.2813 -0.4924  1.2881
   36POPC   H6S 4826   4.719   5.013  10.052  1.0487 -3.1126  1.5228
   36POPC   C27 4827   4.543   5.052   9.936  0.3514  0.4122 -0.3037
   36POPC   H7R 4828   4.550   5.162   9.936  2.8147  0.2935  1.3503
   36POPC   H7S 4829   4.436   5.022   9.931 -0.4851  2.9412  1.6344
   36POPC   C28 4830   4.609   4.980   9.817  0.6840 -0.1146  1.0314
   36POPC   H8R 4831   4.598   4.870   9.834 -2.3388  0.2794  1.8616
   36POPC   H8S 4832   4.717   5.007   9.821  0.7484 -0.2523  0.3344
   36POPC   C29 4833   4.554   5.039   9.684  0.4583 -0.0136  0.0851
   36POPC   H91 4834   4.559   5.147   9.666 -0.2489 -0.2346 -1.5022
   36POPC  C210 4835   4.493   4.967   9.592 -0.9212  0.3008  0.2003
   36POPC  H101 4836   4.467   5.021   9.500  0.7087  2.0571  0.7198
   36POPC  C211 4837   4.495   4.817   9.596 -0.0384  0.0285  0.3860
   36POPC  H11R 4838   4.403   4.764   9.630 -0.3239  0.5625  0.4509
   36POPC  H11S 4839   4.576   4.779   9.661  0.0694 -0.7772 -0.2052
   36POPC  C212 4840   4.546   4.767   9.457 -0.6596 -0.7421 -0.8919
   36POPC  H12R 4841   4.582   4.663   9.476  2.1604  0.4386  0.5741
   36POPC  H12S 4842   4.638   4.821   9.428 -1.5689  1.1761 -0.2614
   36POPC  C213 4843   4.438   4.774   9.353 -0.0217  0.7257 -0.1480
   36POPC  H13R 4844   4.422   4.878   9.318  1.8382  0.5277 -1.6373
   36POPC  H13S 4845   4.345   4.746   9.407  0.6361 -1.7002 -0.1944
   36POPC  C214 4846   4.469   4.682   9.232  0.5907 -0.3243 -0.4795
   36POPC  H14R 4847   4.503   4.584   9.271 -1.3730 -1.0632 -0.5682
   36POPC  H14S 4848   4.558   4.711   9.172  1.5071 -2.5144 -0.2441
   36POPC  C215 4849   4.346   4.661   9.146  0.3188 -0.7914  0.5239
   36POPC  H15R 4850   4.315   4.758   9.102 -0.5116 -1.0869  0.4530
   36POPC  H15S 4851   4.257   4.620   9.198 -0.0797  0.1900  0.6246
   36POPC  C216 4852   4.370   4.561   9.029 -0.0537 -0.4121 -0.3854
   36POPC  H16R 4853   4.277   4.502   9.016 -0.9824  1.0873 -0.6772
   36POPC  H16S 4854   4.441   4.490   9.076  2.7265  0.9709 -2.4109
   36POPC  C217 4855   4.424   4.622   8.901  0.5223 -0.0538  0.1880
   36POPC  H17R 4856   4.509   4.691   8.918 -0.5822  2.1206 -2.6519
   36POPC  H17S 4857   4.344   4.690   8.864  1.2201  0.5370 -0.2663
   36POPC  C218 4858   4.456   4.520   8.792 -0.0115 -0.3846 -0.6166
   36POPC  H18R 4859   4.497   4.423   8.830  0.0886  0.6301  1.9204
   36POPC  H18S 4860   4.524   4.579   8.728  1.5318 -0.5955  0.7916
   36POPC  H18T 4861   4.361   4.502   8.736  0.8411 -1.4262 -1.7605
   36POPC   C33 4862   3.965   4.954  10.286 -0.2095  0.3571  0.7643
   36POPC   H3X 4863   4.055   4.899  10.252 -0.1837  0.0528  1.3399
   36POPC   H3Y 4864   4.009   5.030  10.354  0.6397 -0.7270  1.4422
   36POPC   C34 4865   3.927   5.033  10.162  0.0144  0.1863 -0.1178
   36POPC   H4X 4866   3.835   5.084  10.196 -0.8023  0.2389 -2.3085
   36POPC   H4Y 4867   3.895   4.963  10.082 -0.5378  0.6361 -0.2948
   36POPC   C35 4868   4.025   5.136  10.094 -0.4762 -0.6133  0.5250
   36POPC   H5X 4869   4.059   5.207  10.173 -1.6202  1.7561 -1.0647
   36POPC   H5Y 4870   3.967   5.190  10.016  0.9694 -0.6934 -0.6182
   36POPC   C36 4871   4.146   5.072  10.033  0.9509  0.3586 -0.1398
   36POPC   H6X 4872   4.196   5.013  10.112  0.3096  0.7360  0.5534
   36POPC   H6Y 4873   4.221   5.153  10.020 -0.2809  1.6356  0.6121
   36POPC   C37 4874   4.139   4.988   9.905  0.1134  0.2113  0.1016
   36POPC   H7X 4875   4.057   4.915   9.925 -0.7652  0.5422 -2.1943
   36POPC   H7Y 4876   4.237   4.942   9.880  0.3822  0.7608  0.1351
   36POPC   C38 4877   4.099   5.083   9.789  0.5743  0.4129 -0.2298
   36POPC   H8X 4878   4.177   5.162   9.790 -0.6040  1.6131  3.6377
   36POPC   H8Y 4879   4.001   5.136   9.796 -0.0507 -0.3627 -2.5051
   36POPC   C39 4880   4.110   5.007   9.664  1.2580  0.7903 -0.1221
   36POPC   H9X 4881   4.039   4.922   9.659  2.0302  0.2230 -2.5558
   36POPC   H9Y 4882   4.214   4.967   9.663  0.2992 -1.8316 -0.4258
   36POPC  C310 4883   4.081   5.092   9.537 -0.5658  0.7302 -0.4163
   36POPC  H10X 4884   4.154   5.176   9.532  0.5386 -0.2247 -0.7444
   36POPC  H10Y 4885   3.987   5.149   9.548 -0.6646  0.0692  2.6728
   36POPC  C311 4886   4.076   5.005   9.414  0.6131 -0.2310 -0.2565
   36POPC  H11X 4887   3.977   4.955   9.404  0.8586 -0.8117  0.2587
   36POPC  H11Y 4888   4.155   4.929   9.432  0.4887 -0.5668 -1.1066
   36POPC  C312 4889   4.113   5.080   9.284 -0.3181 -0.1530 -0.1149
   36POPC  H12X 4890   4.219   5.113   9.282  0.5646 -2.3007  4.3039
   36POPC  H12Y 4891   4.044   5.165   9.263  0.0285 -0.3333 -2.0495
   36POPC  C313 4892   4.105   4.991   9.162  0.2946 -0.1661 -0.3568
   36POPC  H13X 4893   4.128   4.886   9.192  1.6452  0.4970  0.9652
   36POPC  H13Y 4894   4.182   5.015   9.087  0.2946 -2.4373 -1.1240
   36POPC  C314 4895   3.964   4.989   9.095 -0.8842  0.2628  0.0312
   36POPC  H14X 4896   3.934   5.086   9.050  0.2305 -0.2527 -1.9369
   36POPC  H14Y 4897   3.887   4.973   9.173  0.8161  0.5538  1.8170
   36POPC  C315 4898   3.951   4.867   8.989 -0.3315  0.0564 -0.3493
   36POPC  H15X 4899   3.843   4.846   8.971 -0.8332  0.9118  1.4594
   36POPC  H15Y 4900   3.991   4.782   9.048 -0.5643 -1.0030 -1.7114
   36POPC  C316 4901   4.023   4.890   8.856  0.0202  0.0332  0.3785
   36POPC  H16X 4902   3.987   4.981   8.803 -1.6699 -0.8613 -0.0717
   36POPC  H16Y 4903   4.021   4.805   8.783  3.8978  0.6085 -0.5012
   36POPC  H16Z 4904   4.130   4.905   8.880 -0.0276  0.9794 -0.0066
   37POPC     N 4905   3.149   1.299   6.432 -0.2798  0.2331 -0.3440
   37POPC   C12 4906   3.071   1.255   6.553 -0.5140  0.2999 -0.1927
   37POPC  H12A 4907   3.090   1.150   6.571  1.5690  0.6464 -0.1850
   37POPC  H12B 4908   2.969   1.264   6.520 -0.3148  0.2144 -0.8455
   37POPC   C13 4909   3.289   1.277   6.461 -0.4575  0.2504  0.1748
   37POPC  H13A 4910   3.303   1.179   6.504  0.9881  0.3751  0.0178
   37POPC  H13B 4911   3.337   1.292   6.365 -0.6445 -1.2865 -0.1738
   37POPC  H13C 4912   3.315   1.357   6.528 -1.6884 -0.6478  1.7492
   37POPC   C14 4913   3.120   1.199   6.317  0.2307 -0.5678 -0.6054
   37POPC  H14A 4914   3.129   1.256   6.225 -3.1915 -1.3717 -1.5190
   37POPC  H14B 4915   3.193   1.120   6.324 -0.1630 -0.8666  0.1840
   37POPC  H14C 4916   3.018   1.165   6.319  0.5662 -1.5988 -0.8855
   37POPC   C15 4917   3.122   1.439   6.407 -0.8241  0.2604 -0.4525
   37POPC  H15A 4918   3.017   1.453   6.384 -0.8385  1.1530  0.1337
   37POPC  H15B 4919   3.186   1.478   6.329  0.5073 -2.6198 -0.8839
   37POPC  H15C 4920   3.134   1.493   6.499 -0.2757  1.0377 -0.9772
   37POPC   C11 4921   3.085   1.333   6.688  0.1418 -0.0786  0.3277
   37POPC  H11A 4922   3.195   1.342   6.704  0.6225  0.7415 -3.0151
   37POPC  H11B 4923   3.042   1.272   6.770  1.0770  0.5803  1.3185
   37POPC     P 4924   2.874   1.494   6.682 -0.1206  0.0079  0.2639
   37POPC   O13 4925   2.812   1.384   6.599 -0.3630 -0.1589 -0.3923
   37POPC   O14 4926   2.851   1.637   6.635 -0.1620  0.0216 -0.0546
   37POPC   O12 4927   3.029   1.462   6.687  0.3804 -0.1202 -0.1314
   37POPC   O11 4928   2.836   1.466   6.834 -0.2835 -0.9239  0.1679
   37POPC    C1 4929   2.697   1.487   6.869 -0.4855  0.9378  0.5966
   37POPC    HA 4930   2.637   1.394   6.858 -2.2954  2.1512 -0.0752
   37POPC    HB 4931   2.647   1.565   6.808 -1.0358  0.1795  0.0728
   37POPC    C2 4932   2.682   1.529   7.022  0.2212  0.1558  0.0741
   37POPC    HS 4933   2.762   1.604   7.043 -1.5077  2.6952 -2.1753
   37POPC   O21 4934   2.704   1.404   7.094  0.6298 -0.1038 -0.2204
   37POPC   C21 4935   2.726   1.412   7.215 -0.0296  0.7001  0.6196
   37POPC   O22 4936   2.768   1.513   7.269 -0.1575 -0.1185  0.0328
   37POPC   C22 4937   2.734   1.276   7.280  0.5223  0.1590 -0.5877
   37POPC   H2R 4938   2.832   1.229   7.256  0.8031 -0.5578  1.8402
   37POPC   H2S 4939   2.659   1.214   7.226  0.5065 -0.6235  0.3262
   37POPC    C3 4940   2.539   1.589   7.050  0.7163  0.3049  0.0790
   37POPC    HX 4941   2.462   1.519   7.010  1.1371  0.4579 -1.0137
   37POPC    HY 4942   2.532   1.678   6.985 -3.9870 -1.0256 -1.4107
   37POPC   O31 4943   2.512   1.613   7.191  0.6128 -0.5475  0.7229
   37POPC   C31 4944   2.571   1.717   7.238 -0.5854  0.0196 -0.5857
   37POPC   O32 4945   2.645   1.794   7.180  0.8614 -0.2103 -0.7813
   37POPC   C32 4946   2.526   1.720   7.383 -0.1992  0.2903  0.0148
   37POPC   H2X 4947   2.477   1.625   7.413  1.7511  0.0473  2.6428
   37POPC   H2Y 4948   2.452   1.803   7.386  1.2143  1.5641  0.6176
   37POPC   C23 4949   2.707   1.274   7.435  1.0861 -0.0203  0.6402
   37POPC   H3R 4950   2.609   1.322   7.454  0.7833 -0.4487  0.1605
   37POPC   H3S 4951   2.769   1.336   7.503  1.5670  0.3639 -0.1374
   37POPC   C24 4952   2.710   1.138   7.494 -0.1248  0.0416  0.1710
   37POPC   H4R 4953   2.787   1.081   7.437  2.1031  1.7072  1.4608
   37POPC   H4S 4954   2.615   1.084   7.476 -0.8732  2.1428 -2.4639
   37POPC   C25 4955   2.756   1.130   7.641 -0.1129  0.3328  0.4534
   37POPC   H5R 4956   2.849   1.190   7.638  0.1955 -0.1563  0.2825
   37POPC   H5S 4957   2.776   1.025   7.670  0.0540  0.4426  0.7317
   37POPC   C26 4958   2.655   1.196   7.738 -0.3352 -0.1711 -0.2869
   37POPC   H6R 4959   2.568   1.126   7.737  0.9437 -1.7765 -1.6288
   37POPC   H6S 4960   2.607   1.287   7.696  0.3077  0.3105  0.0218
   37POPC   C27 4961   2.702   1.202   7.887  0.0347  0.4644 -0.3023
   37POPC   H7R 4962   2.762   1.295   7.903 -2.5749  1.8780  1.7191
   37POPC   H7S 4963   2.772   1.116   7.893  0.7834  0.8471 -2.8716
   37POPC   C28 4964   2.585   1.197   7.985  0.3530  0.3926 -0.9210
   37POPC   H8R 4965   2.513   1.121   7.948  1.9609 -1.2327 -0.7573
   37POPC   H8S 4966   2.530   1.290   7.959  1.6885  0.7463 -2.4996
   37POPC   C29 4967   2.623   1.182   8.127  1.2092  0.4114 -0.2015
   37POPC   H91 4968   2.598   1.081   8.161 -1.8459  0.7234 -1.3923
   37POPC  C210 4969   2.645   1.283   8.217 -0.0612 -0.4769 -0.6144
   37POPC  H101 4970   2.657   1.258   8.323 -0.0537 -1.3973 -0.8308
   37POPC  C211 4971   2.645   1.430   8.189  0.6752  0.5066 -0.1689
   37POPC  H11R 4972   2.630   1.443   8.079 -0.8015  1.5725  0.1488
   37POPC  H11S 4973   2.748   1.467   8.206  0.5111  1.6115 -1.4718
   37POPC  C212 4974   2.552   1.520   8.265  0.7829  0.0049 -0.3187
   37POPC  H12R 4975   2.445   1.496   8.244  0.3598 -0.1215  1.9016
   37POPC  H12S 4976   2.569   1.617   8.213 -0.6053 -0.2827 -1.3179
   37POPC  C213 4977   2.585   1.529   8.413 -0.4208 -0.7057 -0.3028
   37POPC  H13R 4978   2.682   1.576   8.438  0.9671 -3.3987 -0.4462
   37POPC  H13S 4979   2.573   1.431   8.462  1.1078 -0.1488  1.2264
   37POPC  C214 4980   2.482   1.615   8.489 -0.2318  0.7557  0.3186
   37POPC  H14R 4981   2.476   1.720   8.452  1.9817  0.3340 -1.3061
   37POPC  H14S 4982   2.514   1.624   8.595  0.1448 -0.9046  0.3619
   37POPC  C215 4983   2.341   1.549   8.491 -0.0152 -0.3859  0.3749
   37POPC  H15R 4984   2.341   1.443   8.521  0.3748 -0.3917  0.3554
   37POPC  H15S 4985   2.288   1.537   8.394 -2.3493 -1.0624  1.7038
   37POPC  C216 4986   2.246   1.633   8.567 -0.2395  0.0041  0.0360
   37POPC  H16R 4987   2.204   1.720   8.513 -0.5770 -0.0790  0.1605
   37POPC  H16S 4988   2.303   1.675   8.652 -2.1210 -0.2900  1.4940
   37POPC  C217 4989   2.124   1.558   8.609 -0.1341 -0.6319  0.1337
   37POPC  H17R 4990   2.153   1.485   8.688 -2.4705 -0.1801  1.4392
   37POPC  H17S 4991   2.073   1.527   8.516 -1.6698  1.6273  0.1970
   37POPC  C218 4992   2.015   1.653   8.674 -0.5452 -0.5499 -0.1895
   37POPC  H18R 4993   2.069   1.708   8.753  0.4091  0.0059 -1.2056
   37POPC  H18S 4994   1.935   1.591   8.720 -1.9524 -0.9317 -2.9902
   37POPC  H18T 4995   1.964   1.723   8.604  0.9277 -0.2054 -0.9408
   37POPC   C33 4996   2.649   1.731   7.473  0.4479  0.1712  0.3101
   37POPC   H3X 4997   2.712   1.821   7.455 -0.7886  0.9549 -0.1518
   37POPC   H3Y 4998   2.712   1.645   7.443  0.4318  0.4206 -0.4520
   37POPC   C34 4999   2.612   1.728   7.626  0.2938  0.4592 -0.3923
   37POPC   H4X 5000   2.533   1.653   7.646  0.1613  0.7880  0.3091
   37POPC   H4Y 5001   2.569   1.821   7.669 -1.1050 -0.5021  0.2935
   37POPC   C35 5002   2.739   1.686   7.708 -0.0529 -0.2880 -0.7498
   37POPC   H5X 5003   2.825   1.745   7.668  0.3812  0.8862  1.8521
   37POPC   H5Y 5004   2.766   1.582   7.679  0.0055 -0.4285 -0.1784
   37POPC   C36 5005   2.727   1.700   7.858 -0.2453  0.4993  0.4723
   37POPC   H6X 5006   2.806   1.643   7.912 -0.0092  0.9425  0.6039
   37POPC   H6Y 5007   2.627   1.663   7.890 -0.0703  0.6134  1.1529
   37POPC   C37 5008   2.731   1.847   7.901  0.2317 -0.4653  0.1687
   37POPC   H7X 5009   2.648   1.895   7.845 -0.3821 -0.2180  1.2819
   37POPC   H7Y 5010   2.818   1.894   7.850  1.4203 -3.1563 -0.3442
   37POPC   C38 5011   2.709   1.869   8.047  0.1505 -0.2459 -0.7751
   37POPC   H8X 5012   2.788   1.814   8.104  0.2592  0.1864 -0.5032
   37POPC   H8Y 5013   2.614   1.829   8.087  0.6491 -0.8789 -0.2002
   37POPC   C39 5014   2.716   2.023   8.094 -0.2432 -0.0583 -0.2455
   37POPC   H9X 5015   2.821   2.060   8.088 -0.4640  1.1376  2.4557
   37POPC   H9Y 5016   2.689   2.032   8.201  0.8805  0.8353 -0.0297
   37POPC  C310 5017   2.635   2.106   8.000  0.1873  0.4733 -0.7835
   37POPC  H10X 5018   2.529   2.075   8.005  0.1258  0.8556  0.6184
   37POPC  H10Y 5019   2.684   2.098   7.901 -0.2832 -0.2230 -0.9641
   37POPC  C311 5020   2.652   2.258   8.018 -0.0515 -0.1828  0.1046
   37POPC  H11X 5021   2.612   2.308   7.928  0.6486 -1.4299 -0.9203
   37POPC  H11Y 5022   2.757   2.292   8.034 -0.5295  0.8464  1.1586
   37POPC  C312 5023   2.579   2.302   8.143  0.0075 -0.4198 -0.3342
   37POPC  H12X 5024   2.635   2.260   8.229  1.9057  0.4802 -1.0885
   37POPC  H12Y 5025   2.476   2.263   8.132 -0.5016  0.8924 -0.2719
   37POPC  C313 5026   2.562   2.455   8.146  0.1820 -0.4364 -0.1236
   37POPC  H13X 5027   2.471   2.477   8.087 -0.7512 -0.1196  1.4150
   37POPC  H13Y 5028   2.657   2.507   8.118  0.1399  1.2557  2.7440
   37POPC  C314 5029   2.528   2.514   8.287 -0.4229 -0.5470  0.3936
   37POPC  H14X 5030   2.605   2.482   8.360  0.0439  1.6971  0.9009
   37POPC  H14Y 5031   2.434   2.468   8.324 -1.7774  1.0742 -0.9373
   37POPC  C315 5032   2.513   2.663   8.285  0.4516  0.6309 -0.3308
   37POPC  H15X 5033   2.426   2.695   8.224 -0.4684  2.9295  2.0511
   37POPC  H15Y 5034   2.602   2.707   8.236 -0.3104  0.5938 -1.7523
   37POPC  C316 5035   2.509   2.724   8.426  0.7063 -0.1660 -0.5229
   37POPC  H16X 5036   2.477   2.830   8.419  3.1194  0.5607 -0.9042
   37POPC  H16Y 5037   2.610   2.697   8.465  0.7010  0.3574 -0.1483
   37POPC  H16Z 5038   2.435   2.670   8.488  1.4742  0.8002  1.2815
   38POPC     N 5039   3.536   5.295   6.262 -0.1756 -0.4435 -0.1702
   38POPC   C12 5040   3.567   5.179   6.363  0.0984  0.0966 -0.3007
   38POPC  H12A 5041   3.479   5.121   6.386  1.3619 -2.0373 -0.6965
   38POPC  H12B 5042   3.583   5.228   6.458 -0.5881  0.7882 -0.5470
   38POPC   C13 5043   3.436   5.390   6.329 -0.0122 -0.0367 -0.6731
   38POPC  H13A 5044   3.393   5.470   6.272 -0.7267  0.2127  0.1942
   38POPC  H13B 5045   3.343   5.344   6.358  0.7634  0.2189  2.5095
   38POPC  H13C 5046   3.484   5.436   6.415  1.9219 -0.7242 -1.3413
   38POPC   C14 5047   3.655   5.382   6.232  0.0835  0.3627 -0.4363
   38POPC  H14A 5048   3.642   5.423   6.133 -0.7025 -1.7280 -1.2412
   38POPC  H14B 5049   3.662   5.461   6.305  0.0132  0.8554 -0.9563
   38POPC  H14C 5050   3.748   5.328   6.220 -0.7371 -1.0217 -0.6806
   38POPC   C15 5051   3.481   5.243   6.140 -0.1263 -0.0914  0.2643
   38POPC  H15A 5052   3.553   5.190   6.079 -0.5998  0.0987 -0.4635
   38POPC  H15B 5053   3.453   5.330   6.083 -0.8319 -0.9367 -0.6980
   38POPC  H15C 5054   3.399   5.175   6.158 -0.1669 -0.2574 -0.5515
   38POPC   C11 5055   3.688   5.087   6.344  1.0735  0.8095  0.6878
   38POPC  H11A 5056   3.689   5.040   6.243 -0.2769 -0.5597  1.2834
   38POPC  H11B 5057   3.683   4.999   6.411 -0.2219  0.2716 -0.0809
   38POPC     P 5058   3.879   5.167   6.495 -0.2199  0.0556  0.1210
   38POPC   O13 5059   3.783   5.216   6.596  0.1278 -0.0390 -1.1125
   38POPC   O14 5060   4.003   5.248   6.488  0.3735  0.1669  0.2316
   38POPC   O12 5061   3.812   5.161   6.353  0.5870  0.4424 -0.2266
   38POPC   O11 5062   3.910   5.010   6.520  0.1822  0.3559 -0.2098
   38POPC    C1 5063   4.033   4.955   6.479 -0.7287  0.2692  0.4087
   38POPC    HA 5064   4.110   4.986   6.552 -0.2145  3.4008 -1.3975
   38POPC    HB 5065   4.062   5.003   6.383 -3.6919 -1.7807 -1.6254
   38POPC    C2 5066   4.024   4.804   6.462 -0.1020 -0.3894 -0.3498
   38POPC    HS 5067   3.928   4.777   6.414 -0.2749 -2.0899  0.9418
   38POPC   O21 5068   4.037   4.751   6.596 -0.0993 -0.3183 -0.1049
   38POPC   C21 5069   3.977   4.633   6.614  0.1109 -0.6996 -0.5033
   38POPC   O22 5070   3.926   4.568   6.526 -0.3829 -0.2896 -0.3115
   38POPC   C22 5071   3.990   4.593   6.759  0.2374  0.2644  0.3086
   38POPC   H2R 5072   4.005   4.686   6.818  1.0160  1.0200 -1.0383
   38POPC   H2S 5073   4.078   4.525   6.762  1.4412  1.7859  0.0159
   38POPC    C3 5074   4.140   4.737   6.371  0.1001 -0.5281  0.1174
   38POPC    HX 5075   4.136   4.790   6.273  0.1745  0.7145  0.7864
   38POPC    HY 5076   4.112   4.631   6.351  1.0930 -1.2409  2.4286
   38POPC   O31 5077   4.269   4.751   6.431 -0.5448 -0.2294  0.1720
   38POPC   C31 5078   4.316   4.637   6.496  0.1908 -0.0061 -0.6891
   38POPC   O32 5079   4.254   4.530   6.491 -0.1475  0.8026 -0.3397
   38POPC   C32 5080   4.457   4.672   6.556  0.6560 -0.3254 -0.3478
   38POPC   H2X 5081   4.525   4.712   6.477 -1.1960  0.6519 -1.4969
   38POPC   H2Y 5082   4.509   4.579   6.587  0.7281  0.2757  1.3802
   38POPC   C23 5083   3.864   4.525   6.804  0.5643  0.0293  0.0485
   38POPC   H3R 5084   3.827   4.443   6.739 -0.6549 -2.3667  3.5740
   38POPC   H3S 5085   3.780   4.595   6.823 -1.7579 -1.8430 -2.7008
   38POPC   C24 5086   3.878   4.460   6.950  0.4484  1.0045  0.1924
   38POPC   H4R 5087   3.968   4.397   6.940  1.4743  2.0815  2.3323
   38POPC   H4S 5088   3.794   4.397   6.986  0.6543 -0.7967 -2.3666
   38POPC   C25 5089   3.909   4.553   7.063  0.4316  0.5580  0.6999
   38POPC   H5R 5090   3.821   4.611   7.099 -1.6733 -0.1553 -3.0054
   38POPC   H5S 5091   3.990   4.621   7.029  1.5160 -1.7277 -1.3993
   38POPC   C26 5092   3.951   4.480   7.188 -0.7979 -0.9162  0.1634
   38POPC   H6R 5093   4.060   4.456   7.181 -0.0641  1.9533  0.9352
   38POPC   H6S 5094   3.898   4.383   7.191 -1.3405 -0.6197  0.2118
   38POPC   C27 5095   3.918   4.549   7.318  0.0713  0.1392  0.7302
   38POPC   H7R 5096   3.809   4.560   7.336 -0.3885 -1.5169 -0.9537
   38POPC   H7S 5097   3.974   4.646   7.322  2.4466 -1.0601 -1.5180
   38POPC   C28 5098   3.985   4.471   7.439 -0.0418  0.0871 -0.2512
   38POPC   H8R 5099   3.983   4.541   7.526  0.7085  1.1566 -1.0845
   38POPC   H8S 5100   4.092   4.453   7.414 -0.6239  0.2860 -2.9660
   38POPC   C29 5101   3.917   4.339   7.480 -0.5142 -0.1584  0.1794
   38POPC   H91 5102   3.881   4.280   7.394  2.8768 -0.4042 -1.1183
   38POPC  C210 5103   3.898   4.293   7.601  0.2626  0.2557 -0.5073
   38POPC  H101 5104   3.845   4.200   7.625 -1.6376  1.0197 -1.5651
   38POPC  C211 5105   3.940   4.366   7.721  0.1227 -0.1163 -0.3377
   38POPC  H11R 5106   4.035   4.422   7.707  0.1361 -0.0918 -0.1536
   38POPC  H11S 5107   3.960   4.283   7.792  3.8544 -1.4336 -2.7386
   38POPC  C212 5108   3.842   4.462   7.785  0.7138  0.6449  0.6724
   38POPC  H12R 5109   3.744   4.411   7.785  1.1936 -0.2839 -0.7912
   38POPC  H12S 5110   3.831   4.563   7.741 -0.9382  0.2255  0.1054
   38POPC  C213 5111   3.873   4.477   7.933 -0.4030 -0.0148 -0.6236
   38POPC  H13R 5112   3.970   4.531   7.941 -0.5602  0.4822 -1.9553
   38POPC  H13S 5113   3.880   4.372   7.967 -0.1836  0.1227 -0.2355
   38POPC  C214 5114   3.758   4.549   8.001  0.0597 -0.0432  0.8063
   38POPC  H14R 5115   3.676   4.567   7.928  0.5112  0.2104  0.3614
   38POPC  H14S 5116   3.799   4.646   8.038 -0.6890  0.2592  0.8564
   38POPC  C215 5117   3.691   4.471   8.117  0.7966  0.0570 -0.4187
   38POPC  H15R 5118   3.660   4.372   8.079 -0.1728  1.6779 -4.1741
   38POPC  H15S 5119   3.606   4.534   8.152  0.7209 -0.5080  0.4221
   38POPC  C216 5120   3.772   4.460   8.249  0.2038 -0.1759 -0.2497
   38POPC  H16R 5121   3.800   4.562   8.284  0.2558  0.1904 -1.3366
   38POPC  H16S 5122   3.867   4.412   8.220  1.6185  1.8384  0.8767
   38POPC  C217 5123   3.707   4.367   8.352  0.0779 -0.0414  0.3487
   38POPC  H17R 5124   3.778   4.361   8.437 -0.5163  1.1556  0.9515
   38POPC  H17S 5125   3.695   4.269   8.301 -1.4414 -0.7490  2.0188
   38POPC  C218 5126   3.565   4.407   8.414 -0.1413 -0.4990 -0.5172
   38POPC  H18R 5127   3.569   4.504   8.469 -0.1234 -1.2572  0.8251
   38POPC  H18S 5128   3.541   4.321   8.479  3.2796 -0.0972  1.4272
   38POPC  H18T 5129   3.483   4.416   8.340  0.6690 -0.4196 -1.4126
   38POPC   C33 5130   4.430   4.752   6.685 -0.4286  0.0033 -0.4431
   38POPC   H3X 5131   4.345   4.817   6.658 -0.1296  0.0847 -1.2040
   38POPC   H3Y 5132   4.517   4.817   6.709  0.3868 -1.4842  0.8108
   38POPC   C34 5133   4.426   4.653   6.807  0.1151 -0.3030  0.8355
   38POPC   H4X 5134   4.525   4.615   6.841 -0.6763 -0.8727  2.5478
   38POPC   H4Y 5135   4.354   4.572   6.781 -1.6292  0.8583  1.8961
   38POPC   C35 5136   4.361   4.727   6.929  0.3128  0.1101  0.0258
   38POPC   H5X 5137   4.259   4.766   6.908 -0.8558 -1.2308  2.9633
   38POPC   H5Y 5138   4.418   4.819   6.951  0.2590  0.5970 -1.7550
   38POPC   C36 5139   4.369   4.631   7.042 -0.1526  0.7112 -0.3280
   38POPC   H6X 5140   4.471   4.592   7.061 -1.3006 -1.8378  1.0238
   38POPC   H6Y 5141   4.298   4.548   7.021 -0.9588  1.5083 -0.8030
   38POPC   C37 5142   4.319   4.697   7.171 -0.4552 -0.2596 -0.4771
   38POPC   H7X 5143   4.217   4.739   7.161  0.0230  1.0299 -0.0214
   38POPC   H7Y 5144   4.400   4.773   7.182  0.3300 -0.7566 -2.6588
   38POPC   C38 5145   4.318   4.598   7.286  0.1508  0.3564 -1.0067
   38POPC   H8X 5146   4.401   4.527   7.265  1.4497  2.1252 -1.9482
   38POPC   H8Y 5147   4.233   4.526   7.290  1.3004 -0.9306  1.1568
   38POPC   C39 5148   4.313   4.670   7.419  0.4285 -0.0717  0.0275
   38POPC   H9X 5149   4.209   4.707   7.433  0.8746  0.2163  2.9052
   38POPC   H9Y 5150   4.373   4.764   7.425 -2.8626  1.9764  2.5583
   38POPC  C310 5151   4.345   4.585   7.541 -0.6404 -0.1012  0.0512
   38POPC  H10X 5152   4.448   4.544   7.538  0.4696  2.5332  0.8443
   38POPC  H10Y 5153   4.278   4.496   7.537  0.2386 -0.8306  1.1733
   38POPC  C311 5154   4.298   4.652   7.669 -0.1681  0.4172  1.3563
   38POPC  H11X 5155   4.189   4.670   7.658  0.0012  1.4448  1.2687
   38POPC  H11Y 5156   4.346   4.752   7.676 -0.5226  0.8814 -1.9063
   38POPC  C312 5157   4.301   4.563   7.800 -0.1667  0.7546  0.5301
   38POPC  H12X 5158   4.398   4.509   7.811 -1.1127 -0.9245  0.7261
   38POPC  H12Y 5159   4.227   4.483   7.781  0.4284  0.3444 -0.0952
   38POPC  C313 5160   4.285   4.632   7.933  0.2017  0.1550 -0.8844
   38POPC  H13X 5161   4.213   4.715   7.919  1.2007  1.1293 -0.2170
   38POPC  H13Y 5162   4.380   4.683   7.957 -0.2927  2.1924 -3.0978
   38POPC  C314 5163   4.250   4.534   8.048  0.4489 -0.3610 -0.1660
   38POPC  H14X 5164   4.338   4.466   8.039  0.5988 -0.1310 -0.4555
   38POPC  H14Y 5165   4.161   4.475   8.020 -0.7066  2.2076 -2.0992
   38POPC  C315 5166   4.245   4.607   8.179  0.2973  0.2911 -0.1052
   38POPC  H15X 5167   4.189   4.702   8.168 -0.9709 -0.8035 -3.6945
   38POPC  H15Y 5168   4.346   4.635   8.218  0.2807 -0.1827  0.2812
   38POPC  C316 5169   4.178   4.522   8.287  0.3914 -0.0654  0.3740
   38POPC  H16X 5170   4.078   4.492   8.249  0.7526  0.9374 -1.4034
   38POPC  H16Y 5171   4.155   4.580   8.379 -0.8837 -0.1911  0.1453
   38POPC  H16Z 5172   4.245   4.435   8.301 -0.0741 -1.1467 -3.6668
   39POPC     N 5173   0.934   1.397   6.067  0.6491 -0.3646 -0.0920
   39POPC   C12 5174   0.905   1.448   6.203  0.5843 -0.5197  0.0819
   39POPC  H12A 5175   0.803   1.484   6.213 -0.0320 -1.3844 -2.7418
   39POPC  H12B 5176   0.970   1.531   6.228  0.0499  0.6371 -2.1563
   39POPC   C13 5177   0.853   1.282   6.031 -0.2935  0.3048 -0.1809
   39POPC  H13A 5178   0.864   1.265   5.925  0.3831  0.9888 -0.2256
   39POPC  H13B 5179   0.886   1.198   6.089 -0.1699  0.0698 -0.5885
   39POPC  H13C 5180   0.747   1.295   6.042 -0.0761  1.7409  0.3719
   39POPC   C14 5181   0.905   1.506   5.969 -0.3318  0.0628  0.0082
   39POPC  H14A 5182   0.934   1.459   5.876 -2.4747  0.3243 -0.8366
   39POPC  H14B 5183   0.805   1.547   5.974  0.1963  1.3714  0.0870
   39POPC  H14C 5184   0.978   1.584   5.984 -1.0568  0.6947  0.2669
   39POPC   C15 5185   1.077   1.355   6.051 -0.5455 -0.5081 -0.3694
   39POPC  H15A 5186   1.110   1.282   6.122 -0.4237 -0.2952 -0.2076
   39POPC  H15B 5187   1.145   1.438   6.059 -0.3114 -1.0127  3.5017
   39POPC  H15C 5188   1.090   1.315   5.951 -0.4648  0.2592 -0.6736
   39POPC   C11 5189   0.922   1.347   6.320 -0.2118  0.7870  0.0790
   39POPC  H11A 5190   0.914   1.405   6.415 -0.3963 -1.0973  1.2325
   39POPC  H11B 5191   1.023   1.304   6.305 -0.7392 -0.7005  0.7942
   39POPC     P 5192   0.685   1.281   6.357  0.0071  0.5175  0.1411
   39POPC   O13 5193   0.603   1.156   6.348  0.2389  0.4357 -0.4919
   39POPC   O14 5194   0.640   1.398   6.276 -0.0120 -0.1094 -0.4225
   39POPC   O12 5195   0.833   1.244   6.317  0.7048 -0.1191  0.4369
   39POPC   O11 5196   0.692   1.325   6.506 -0.4256  0.7143 -0.0094
   39POPC    C1 5197   0.656   1.458   6.545 -0.2503  0.1205  0.2130
   39POPC    HA 5198   0.548   1.474   6.526 -0.3921 -0.0207  0.8574
   39POPC    HB 5199   0.711   1.530   6.482 -1.8952 -0.3810 -1.8667
   39POPC    C2 5200   0.686   1.484   6.690  0.3692  0.0499  0.0356
   39POPC    HS 5201   0.625   1.411   6.747 -0.4562  0.9265  0.2770
   39POPC   O21 5202   0.646   1.613   6.731  0.0266 -0.0265 -0.1080
   39POPC   C21 5203   0.515   1.632   6.739  0.0168 -0.5729  0.7562
   39POPC   O22 5204   0.428   1.549   6.738 -0.4749 -0.4309  0.5070
   39POPC   C22 5205   0.486   1.780   6.762  0.6426 -0.4256  0.1750
   39POPC   H2R 5206   0.460   1.808   6.658  1.0785  1.7188  0.6318
   39POPC   H2S 5207   0.584   1.825   6.789  1.5389 -0.5627 -2.7023
   39POPC    C3 5208   0.833   1.455   6.722 -0.0432  0.3049  0.2171
   39POPC    HX 5209   0.883   1.547   6.685 -0.6102 -0.3994 -2.4180
   39POPC    HY 5210   0.871   1.375   6.655  1.3614  0.6085  0.6525
   39POPC   O31 5211   0.851   1.422   6.862 -0.7730 -0.2254  0.1609
   39POPC   C31 5212   0.976   1.428   6.896  0.5320  0.1757  1.6242
   39POPC   O32 5213   1.069   1.460   6.823 -0.4320  0.1407  0.5865
   39POPC   C32 5214   0.986   1.402   7.047  0.2749  0.5236  0.1393
   39POPC   H2X 5215   0.887   1.419   7.094  0.5029 -1.0133  1.2094
   39POPC   H2Y 5216   1.012   1.295   7.062  0.2083  0.5589  0.5001
   39POPC   C23 5217   0.374   1.797   6.867 -0.5955 -0.5421  0.8999
   39POPC   H3R 5218   0.282   1.737   6.850 -1.6597  2.1241 -3.5493
   39POPC   H3S 5219   0.334   1.900   6.853  0.0999 -0.4117 -0.1806
   39POPC   C24 5220   0.416   1.790   7.012  0.5945 -0.7576  0.2398
   39POPC   H4R 5221   0.521   1.827   7.015 -0.3919  2.0044  3.2652
   39POPC   H4S 5222   0.418   1.684   7.047 -2.1078 -0.1697  2.3424
   39POPC   C25 5223   0.327   1.862   7.109 -0.1823 -0.5303  0.6738
   39POPC   H5R 5224   0.220   1.869   7.079 -1.1949  1.2699  4.4368
   39POPC   H5S 5225   0.341   1.972   7.110 -0.0584 -0.5491  0.9435
   39POPC   C26 5226   0.336   1.827   7.257  0.5298 -0.3276 -0.0794
   39POPC   H6R 5227   0.434   1.848   7.303  0.0624 -2.1011  1.7879
   39POPC   H6S 5228   0.328   1.717   7.271 -1.8146  0.1233  2.8029
   39POPC   C27 5229   0.245   1.910   7.339 -0.4564 -0.0928 -0.3609
   39POPC   H7R 5230   0.137   1.899   7.317 -0.6204 -1.0803  0.8767
   39POPC   H7S 5231   0.254   2.019   7.316 -2.4562  0.1979  0.1233
   39POPC   C28 5232   0.273   1.883   7.492 -0.4419  0.4002  0.7276
   39POPC   H8R 5233   0.379   1.910   7.511 -0.0915  0.8292 -1.7176
   39POPC   H8S 5234   0.275   1.774   7.514 -0.6320  0.1614 -0.3929
   39POPC   C29 5235   0.194   1.958   7.587 -0.1255 -0.4939  0.1768
   39POPC   H91 5236   0.209   2.067   7.584  2.4763 -0.8548 -1.4348
   39POPC  C210 5237   0.091   1.907   7.659  0.3834 -0.4827 -0.0370
   39POPC  H101 5238   0.032   1.974   7.724  0.6120 -0.6064  0.3023
   39POPC  C211 5239   0.049   1.763   7.656  0.2609  0.0889  0.0548
   39POPC  H11R 5240   0.118   1.704   7.593 -0.4543 -0.3239 -0.3432
   39POPC  H11S 5241  -0.059   1.752   7.634 -0.1316  1.4299  1.1967
   39POPC  C212 5242   0.055   1.706   7.798  0.1175  0.0726 -0.0307
   39POPC  H12R 5243  -0.017   1.621   7.803  1.2740 -1.0639 -2.2112
   39POPC  H12S 5244   0.041   1.780   7.880 -0.9051  1.3615 -1.3282
   39POPC  C213 5245   0.191   1.642   7.818 -0.7598 -0.3149 -0.6807
   39POPC  H13R 5246   0.270   1.715   7.789 -0.1481 -0.0420  1.6043
   39POPC  H13S 5247   0.185   1.549   7.757  1.2054 -1.7343  1.2046
   39POPC  C214 5248   0.215   1.611   7.971 -0.1162  0.2270  0.1410
   39POPC  H14R 5249   0.120   1.571   8.011 -0.2251  0.1323 -0.2102
   39POPC  H14S 5250   0.229   1.708   8.023 -1.8126  1.7564 -2.1900
   39POPC  C215 5251   0.328   1.517   8.010  0.4350 -0.2657 -0.2834
   39POPC  H15R 5252   0.417   1.563   7.961  0.1909  0.2197 -0.2784
   39POPC  H15S 5253   0.333   1.414   7.968  1.4945 -0.2565 -0.2013
   39POPC  C216 5254   0.352   1.492   8.157 -0.5483 -0.1021 -0.3089
   39POPC  H16R 5255   0.275   1.424   8.200 -0.6841  0.1228 -0.1992
   39POPC  H16S 5256   0.358   1.589   8.210  0.7326  0.1335 -0.8557
   39POPC  C217 5257   0.483   1.417   8.171  0.5913 -1.1647 -0.0777
   39POPC  H17R 5258   0.568   1.461   8.113  0.5646 -0.9336  0.0580
   39POPC  H17S 5259   0.469   1.309   8.152 -1.9144 -0.9482  0.3830
   39POPC  C218 5260   0.534   1.424   8.321  0.0213  0.3943 -0.0879
   39POPC  H18R 5261   0.526   1.529   8.356 -0.9353  0.4957 -0.5924
   39POPC  H18S 5262   0.637   1.384   8.329  0.4627  1.5851  0.3577
   39POPC  H18T 5263   0.460   1.361   8.375 -1.0060  0.8048 -0.9859
   39POPC   C33 5264   1.093   1.482   7.119 -0.3599  0.4088  0.4707
   39POPC   H3X 5265   1.079   1.592   7.108 -1.9426  0.1107 -0.7754
   39POPC   H3Y 5266   1.194   1.461   7.080 -0.3312  1.0040  0.2133
   39POPC   C34 5267   1.122   1.442   7.274 -0.0821  0.1406 -0.3738
   39POPC   H4X 5268   1.124   1.331   7.276 -1.1160  0.0373 -2.8402
   39POPC   H4Y 5269   1.050   1.491   7.343 -1.0316 -0.3891 -0.9816
   39POPC   C35 5270   1.262   1.488   7.317  0.8291  0.0069 -0.0608
   39POPC   H5X 5271   1.275   1.589   7.274  0.5414  0.2475  0.4180
   39POPC   H5Y 5272   1.341   1.420   7.278  0.6770  1.1989 -2.5756
   39POPC   C36 5273   1.276   1.509   7.473  0.2614 -0.4987  0.6820
   39POPC   H6X 5274   1.270   1.405   7.512 -1.1875  0.0758  2.0559
   39POPC   H6Y 5275   1.188   1.572   7.500  1.0804  1.4965 -1.1473
   39POPC   C37 5276   1.406   1.574   7.520  1.0738  0.1119 -0.7797
   39POPC   H7X 5277   1.412   1.576   7.631 -2.2303 -2.3877 -0.4920
   39POPC   H7Y 5278   1.414   1.682   7.497 -1.5445  0.5642  0.2688
   39POPC   C38 5279   1.534   1.501   7.469  0.2537  0.8587  0.2355
   39POPC   H8X 5280   1.624   1.550   7.512  0.0576  0.8528  0.6498
   39POPC   H8Y 5281   1.549   1.516   7.360 -3.4805 -0.7301 -0.5945
   39POPC   C39 5282   1.536   1.351   7.485  0.0061 -0.0346  0.1077
   39POPC   H9X 5283   1.459   1.307   7.417  0.1926 -0.2727  0.0537
   39POPC   H9Y 5284   1.503   1.318   7.586  1.8186  1.1148  1.0986
   39POPC  C310 5285   1.670   1.296   7.439  0.5083  0.4719  0.4585
   39POPC  H10X 5286   1.698   1.333   7.338  1.5633 -4.5717 -1.2682
   39POPC  H10Y 5287   1.657   1.187   7.421  0.7623  0.5379 -0.1248
   39POPC  C311 5288   1.790   1.305   7.539  0.4130  0.4126  0.7082
   39POPC  H11X 5289   1.810   1.413   7.552  0.5870  0.4234  0.3244
   39POPC  H11Y 5290   1.878   1.258   7.492 -0.1147 -0.8405  0.9464
   39POPC  C312 5291   1.757   1.236   7.676 -0.4548 -0.7385 -0.0532
   39POPC  H12X 5292   1.685   1.152   7.667  1.5274 -2.2217 -2.5329
   39POPC  H12Y 5293   1.695   1.314   7.725 -1.7955 -0.7768 -1.6798
   39POPC  C313 5294   1.875   1.188   7.757 -0.1280 -0.8320  0.0687
   39POPC  H13X 5295   1.947   1.272   7.749 -0.6920 -0.3150  0.4128
   39POPC  H13Y 5296   1.909   1.092   7.711  1.7767 -0.4733  0.6735
   39POPC  C314 5297   1.831   1.159   7.903  0.0222  0.6701 -0.2098
   39POPC  H14X 5298   1.731   1.111   7.914  0.2736  0.5104  1.5053
   39POPC  H14Y 5299   1.814   1.255   7.955 -1.1943  0.8052 -0.8527
   39POPC  C315 5300   1.922   1.068   7.988  0.1672  0.1970 -0.2589
   39POPC  H15X 5301   2.016   1.123   8.007 -0.3880  1.4865 -1.1331
   39POPC  H15Y 5302   1.951   0.980   7.927 -0.1999 -3.0432  3.9910
   39POPC  C316 5303   1.871   1.017   8.117 -0.2323  0.0526  0.3958
   39POPC  H16X 5304   1.865   1.091   8.200  1.6158  1.9437 -1.1370
   39POPC  H16Y 5305   1.936   0.932   8.146  0.7820  0.7481  0.1631
   39POPC  H16Z 5306   1.767   0.982   8.098  0.0069  0.8526 -2.4783
   40POPC     N 5307   6.595   5.274   5.824  0.0990 -0.1324  0.0761
   40POPC   C12 5308   6.729   5.334   5.847  0.2938  0.4363  1.1992
   40POPC  H12A 5309   6.704   5.421   5.906 -1.2559 -0.3123  1.6607
   40POPC  H12B 5310   6.771   5.364   5.751  0.7927 -3.3356  0.1619
   40POPC   C13 5311   6.500   5.368   5.762 -0.4242  0.4405 -0.6436
   40POPC  H13A 5312   6.542   5.406   5.670  2.6195 -0.5660  0.2745
   40POPC  H13B 5313   6.403   5.324   5.743 -1.1419  2.7139 -2.3780
   40POPC  H13C 5314   6.483   5.458   5.817 -0.1072  1.1458 -1.6828
   40POPC   C14 5315   6.602   5.157   5.731 -0.0528  0.9021  0.0179
   40POPC  H14A 5316   6.655   5.205   5.650  2.1634  1.8474  1.9523
   40POPC  H14B 5317   6.655   5.075   5.778 -1.4043  1.0912  1.9254
   40POPC  H14C 5318   6.510   5.112   5.698  1.4703 -1.1780 -1.5702
   40POPC   C15 5319   6.538   5.240   5.963  0.3079  0.4305  0.2303
   40POPC  H15A 5320   6.440   5.197   5.960  0.2076  0.7437 -2.4119
   40POPC  H15B 5321   6.517   5.333   6.015 -0.5071  0.1928  0.3355
   40POPC  H15C 5322   6.614   5.173   5.999 -0.3013 -1.6150 -2.1028
   40POPC   C11 5323   6.842   5.251   5.906  0.0916  0.1176  1.0932
   40POPC  H11A 5324   6.940   5.302   5.895 -0.9421  1.6286 -1.3637
   40POPC  H11B 5325   6.854   5.153   5.856  0.5994 -0.0203  1.4794
   40POPC     P 5326   6.856   5.356   6.136  0.1759  0.2256 -0.1357
   40POPC   O13 5327   6.767   5.470   6.119 -0.9353  0.1123  0.4499
   40POPC   O14 5328   6.998   5.385   6.110 -0.1767  1.0751 -0.1678
   40POPC   O12 5329   6.807   5.240   6.046  0.4931  0.0098  0.4912
   40POPC   O11 5330   6.844   5.290   6.284  0.0259 -0.2793 -0.2000
   40POPC    C1 5331   6.743   5.198   6.336 -0.1854 -0.0365  0.2008
   40POPC    HA 5332   6.747   5.106   6.273  0.7128  0.1894 -0.0721
   40POPC    HB 5333   6.638   5.228   6.315  0.5521  0.6512 -2.6778
   40POPC    C2 5334   6.766   5.160   6.481 -0.3498  0.3288 -0.2000
   40POPC    HS 5335   6.679   5.105   6.523  1.8579 -2.5958  0.7410
   40POPC   O21 5336   6.785   5.281   6.556  0.7454  0.8484  0.2792
   40POPC   C21 5337   6.708   5.388   6.545  0.4880  0.6206 -0.0666
   40POPC   O22 5338   6.590   5.394   6.510  0.0139  0.7298  0.2187
   40POPC   C22 5339   6.783   5.509   6.609 -0.4464 -0.0928  0.1384
   40POPC   H2R 5340   6.857   5.555   6.540 -2.4157  0.6342 -1.5533
   40POPC   H2S 5341   6.847   5.468   6.690  0.9800 -0.7824 -1.3244
   40POPC    C3 5342   6.891   5.070   6.489 -0.2532  0.0543  0.1313
   40POPC    HX 5343   6.984   5.120   6.454  1.0317 -2.9114 -0.8556
   40POPC    HY 5344   6.876   4.991   6.412 -1.0744  0.7690 -0.4414
   40POPC   O31 5345   6.902   5.015   6.618 -0.0716  0.6390  0.0364
   40POPC   C31 5346   6.964   5.091   6.705  0.3158  0.8377  0.0439
   40POPC   O32 5347   7.011   5.204   6.684 -0.6927  0.3858 -0.9153
   40POPC   C32 5348   6.960   5.013   6.837  0.0671  0.0768  0.6252
   40POPC   H2X 5349   7.043   4.940   6.823 -0.5909 -0.5061 -0.3294
   40POPC   H2Y 5350   6.866   4.957   6.858 -1.2152  2.6579  1.9572
   40POPC   C23 5351   6.696   5.611   6.682  0.8425 -0.2817 -0.0024
   40POPC   H3R 5352   6.616   5.550   6.729 -0.0936 -0.8952 -2.3393
   40POPC   H3S 5353   6.658   5.689   6.613  0.4620  0.5078  1.0999
   40POPC   C24 5354   6.775   5.690   6.789 -0.0476  0.3822  0.0429
   40POPC   H4R 5355   6.693   5.749   6.834 -0.5030 -0.7367  0.7093
   40POPC   H4S 5356   6.854   5.749   6.738  0.3567  0.4966  0.7974
   40POPC   C25 5357   6.841   5.612   6.902 -0.3261 -0.3114  0.2410
   40POPC   H5R 5358   6.931   5.563   6.859  0.2669  1.2280 -0.2969
   40POPC   H5S 5359   6.769   5.534   6.935  0.0469  0.2292  2.4339
   40POPC   C26 5360   6.899   5.689   7.024  0.9100  0.0770 -0.3401
   40POPC   H6R 5361   6.969   5.771   6.999  0.6830  0.7126  1.0077
   40POPC   H6S 5362   6.958   5.627   7.095  0.3926 -0.8909 -0.7448
   40POPC   C27 5363   6.777   5.745   7.096 -0.2881 -0.4745 -0.3316
   40POPC   H7R 5364   6.714   5.663   7.135 -1.8569  0.6222 -0.5048
   40POPC   H7S 5365   6.719   5.811   7.028 -3.2070 -1.6453  0.9616
   40POPC   C28 5366   6.828   5.834   7.213  0.6923  0.0051  0.1093
   40POPC   H8R 5367   6.903   5.909   7.181  0.2137  0.4706  0.0861
   40POPC   H8S 5368   6.882   5.760   7.277  0.4760 -0.4914 -0.2763
   40POPC   C29 5369   6.712   5.900   7.284  0.4968  0.9577  0.0985
   40POPC   H91 5370   6.638   5.961   7.230 -1.7468 -0.7544  1.0987
   40POPC  C210 5371   6.668   5.868   7.408  0.2017  0.0192 -0.3344
   40POPC  H101 5372   6.592   5.933   7.454 -1.6140 -1.0013 -1.8123
   40POPC  C211 5373   6.734   5.767   7.503 -0.3306 -0.0566  0.4269
   40POPC  H11R 5374   6.788   5.688   7.446  1.7573  2.2248 -0.8581
   40POPC  H11S 5375   6.648   5.724   7.558 -1.1216 -2.5103 -2.6011
   40POPC  C212 5376   6.839   5.833   7.593 -0.5525  0.0972  0.1816
   40POPC  H12R 5377   6.921   5.891   7.545 -1.3409 -0.3089 -1.7152
   40POPC  H12S 5378   6.893   5.756   7.651 -1.1549 -1.5403 -1.3922
   40POPC  C213 5379   6.778   5.933   7.690 -0.4242 -0.0366 -0.1417
   40POPC  H13R 5380   6.709   5.877   7.757 -1.4414  0.7619 -0.4996
   40POPC  H13S 5381   6.736   6.019   7.633  2.2253 -0.3443 -2.6625
   40POPC  C214 5382   6.876   6.017   7.779 -0.2573  0.0638 -0.0355
   40POPC  H14R 5383   6.944   6.071   7.709 -1.5761  0.3248 -1.1458
   40POPC  H14S 5384   6.934   5.945   7.840  2.4260  1.7642 -0.4807
   40POPC  C215 5385   6.809   6.120   7.873 -0.3391  0.8234 -0.4505
   40POPC  H15R 5386   6.754   6.060   7.949  1.7572  1.2407  1.4731
   40POPC  H15S 5387   6.731   6.179   7.820 -1.9052  1.3412  2.3038
   40POPC  C216 5388   6.911   6.219   7.942  0.2900  0.1208  0.6915
   40POPC  H16R 5389   6.943   6.304   7.878  1.4774 -1.9341 -1.5376
   40POPC  H16S 5390   7.006   6.166   7.968  1.0469  0.9589 -0.2971
   40POPC  C217 5391   6.856   6.275   8.072 -0.1573 -0.0400 -0.8241
   40POPC  H17R 5392   6.761   6.324   8.044 -0.2604 -1.0934 -2.3832
   40POPC  H17S 5393   6.931   6.342   8.120 -0.4733 -0.9038  0.9263
   40POPC  C218 5394   6.820   6.176   8.189  0.0921 -0.4341 -0.0915
   40POPC  H18R 5395   6.754   6.224   8.264  0.8188  0.8768 -0.2637
   40POPC  H18S 5396   6.907   6.131   8.240  0.4857  1.2964  0.8185
   40POPC  H18T 5397   6.777   6.082   8.150 -0.9129 -0.2342  0.5197
   40POPC   C33 5398   6.990   5.091   6.970  0.0414  0.1076 -0.2833
   40POPC   H3X 5399   7.071   5.166   6.963  0.3429  0.0676  2.2338
   40POPC   H3Y 5400   7.025   5.017   7.046 -0.8807 -1.7476 -1.6197
   40POPC   C34 5401   6.864   5.171   7.007 -0.2200  0.0098 -0.4620
   40POPC   H4X 5402   6.780   5.103   7.031 -0.1324 -1.0235 -2.8764
   40POPC   H4Y 5403   6.833   5.228   6.916  0.2122  2.0045  0.6186
   40POPC   C35 5404   6.882   5.267   7.126  0.0293  0.5652  0.3155
   40POPC   H5X 5405   6.948   5.354   7.105  1.6022 -0.7058 -0.0963
   40POPC   H5Y 5406   6.935   5.212   7.207  0.1300  2.1805  1.3699
   40POPC   C36 5407   6.753   5.319   7.181  0.2306 -0.1083 -0.4512
   40POPC   H6X 5408   6.694   5.236   7.226  2.9645 -1.8358  0.0848
   40POPC   H6Y 5409   6.683   5.361   7.106  0.8595  1.4732 -0.1630
   40POPC   C37 5410   6.773   5.416   7.300  0.0424  0.2588 -0.0323
   40POPC   H7X 5411   6.679   5.469   7.328  0.6075  1.9831 -1.2695
   40POPC   H7Y 5412   6.846   5.498   7.282  1.6884 -1.5708 -1.9122
   40POPC   C38 5413   6.824   5.347   7.424  0.4602  0.7694  0.2853
   40POPC   H8X 5414   6.923   5.297   7.420  1.2553  2.4893 -3.1061
   40POPC   H8Y 5415   6.745   5.275   7.455 -1.2334  1.7921 -1.5462
   40POPC   C39 5416   6.833   5.442   7.543 -0.8212 -0.1515 -0.3552
   40POPC   H9X 5417   6.737   5.493   7.569  0.8472  2.6264  0.6139
   40POPC   H9Y 5418   6.917   5.513   7.528  1.7987 -2.9522  0.4993
   40POPC  C310 5419   6.865   5.360   7.665  0.3495 -0.6284  0.7511
   40POPC  H10X 5420   6.965   5.313   7.652  1.4860  1.8787  0.1104
   40POPC  H10Y 5421   6.789   5.279   7.673  1.1610 -1.3578  1.1105
   40POPC  C311 5422   6.869   5.451   7.792  0.4289  0.3020  0.1456
   40POPC  H11X 5423   6.768   5.492   7.811 -0.1133 -0.5046 -0.9558
   40POPC  H11Y 5424   6.932   5.537   7.758 -0.8600  0.6990 -1.3534
   40POPC  C312 5425   6.928   5.379   7.922  0.7653  0.1423  0.3240
   40POPC  H12X 5426   7.037   5.362   7.910  0.6561 -0.3536  0.0000
   40POPC  H12Y 5427   6.864   5.287   7.924 -0.2696  0.8697  1.2147
   40POPC  C313 5428   6.908   5.467   8.037 -0.0029 -0.0007 -0.4489
   40POPC  H13X 5429   6.806   5.475   8.079 -0.1121 -0.2287 -0.6725
   40POPC  H13Y 5430   6.943   5.569   8.011 -0.4478  0.1826 -0.3306
   40POPC  C314 5431   6.997   5.434   8.166  0.7893  0.1032  0.0435
   40POPC  H14X 5432   6.977   5.507   8.247  0.1885 -1.3915  1.2645
   40POPC  H14Y 5433   7.105   5.457   8.148  0.8868 -1.5703 -1.7136
   40POPC  C315 5434   6.977   5.288   8.219  0.1460 -0.2125 -0.2284
   40POPC  H15X 5435   7.032   5.224   8.146  0.5412 -2.6751  2.1559
   40POPC  H15Y 5436   6.870   5.263   8.205 -0.1824  0.9674  0.1335
   40POPC  C316 5437   7.018   5.264   8.364  0.6068  1.1186 -0.3937
   40POPC  H16X 5438   7.125   5.294   8.374  0.2570  2.9261 -1.7676
   40POPC  H16Y 5439   7.020   5.156   8.392 -0.1636  1.1584 -0.1781
   40POPC  H16Z 5440   6.964   5.326   8.439 -1.3651 -1.5072  0.4543
   41CHL1    C3 5441   6.148   2.268   9.983  0.4811  0.5285  0.2377
   41CHL1    H3 5442   6.249   2.297  10.019  1.0840 -1.7041  0.4301
   41CHL1    O3 5443   6.064   2.265  10.092 -0.1020 -0.0598 -0.1946
   41CHL1   H3' 5444   6.076   2.349  10.137 -1.0919 -0.6215  1.1507
   41CHL1    C4 5445   6.096   2.363   9.879  0.2141 -0.0371  0.0998
   41CHL1   H4A 5446   5.986   2.359   9.866  0.1758 -1.4984  0.7307
   41CHL1   H4B 5447   6.110   2.462   9.927  3.6689 -0.6500  0.4841
   41CHL1    C5 5448   6.177   2.363   9.748  0.4479  0.6989 -0.2061
   41CHL1    C6 5449   6.240   2.468   9.702  0.1996 -0.3123  0.0738
   41CHL1    H6 5450   6.226   2.562   9.758 -0.3222  1.1429 -2.4599
   41CHL1    C7 5451   6.302   2.470   9.558  0.0388  0.2821 -0.0162
   41CHL1   H7A 5452   6.258   2.558   9.508  2.1839 -0.1351 -2.7514
   41CHL1   H7B 5453   6.412   2.481   9.555 -0.0230  0.7254 -0.6485
   41CHL1    C8 5454   6.263   2.347   9.470  0.4894  0.1381  0.4664
   41CHL1    H8 5455   6.155   2.346   9.445  0.2896  0.3622  1.3033
   41CHL1   C14 5456   6.354   2.337   9.346  0.2295  1.0023 -0.2544
   41CHL1   H14 5457   6.457   2.328   9.389 -0.5619  0.8697  1.6746
   41CHL1   C15 5458   6.357   2.463   9.259  0.0761 -0.6267  0.4686
   41CHL1  H15A 5459   6.255   2.506   9.252  0.1931  0.0613  2.6316
   41CHL1  H15B 5460   6.424   2.536   9.309  0.3254  0.9479 -2.0978
   41CHL1   C16 5461   6.396   2.411   9.121 -0.3189  0.0687  0.2821
   41CHL1  H16A 5462   6.315   2.439   9.050  0.0289 -1.2373 -0.6616
   41CHL1  H16B 5463   6.495   2.447   9.084  0.5106 -2.8916 -0.5450
   41CHL1   C17 5464   6.414   2.257   9.127 -0.1084  0.2032 -0.6192
   41CHL1   H17 5465   6.519   2.232   9.153  0.1159  2.5308  0.8107
   41CHL1   C13 5466   6.325   2.222   9.252 -0.5622 -0.5265 -0.4095
   41CHL1   C18 5467   6.181   2.227   9.206 -0.1374  0.4262  0.0918
   41CHL1  H18A 5468   6.159   2.303   9.128  1.3120 -0.5661 -1.3502
   41CHL1  H18B 5469   6.161   2.136   9.145 -1.7737  0.7149  0.1759
   41CHL1  H18C 5470   6.107   2.224   9.288  1.6340 -0.6230  1.7006
   41CHL1   C12 5471   6.352   2.101   9.337  0.2336  0.4334  0.0488
   41CHL1  H12A 5472   6.354   2.002   9.287  2.5656  0.8698 -0.8366
   41CHL1  H12B 5473   6.455   2.106   9.379  0.5036  1.6924 -0.7333
   41CHL1   C11 5474   6.263   2.091   9.463 -0.4058 -0.1378 -0.6327
   41CHL1  H11A 5475   6.155   2.081   9.436 -0.4426  0.6115 -0.7771
   41CHL1  H11B 5476   6.294   2.005   9.526 -0.6150 -1.4184 -2.2405
   41CHL1    C9 5477   6.275   2.216   9.550 -0.2991 -0.6218  0.1285
   41CHL1    H9 5478   6.377   2.208   9.594 -1.0001  1.4180  2.2745
   41CHL1   C10 5479   6.178   2.223   9.674 -0.0218  0.4226  0.8876
   41CHL1   C19 5480   6.039   2.182   9.633  0.1918  0.7987 -0.6702
   41CHL1  H19A 5481   5.968   2.197   9.718 -0.6926 -1.1133 -1.0553
   41CHL1  H19B 5482   5.998   2.235   9.545  0.3306 -0.4819 -1.5190
   41CHL1  H19C 5483   6.033   2.072   9.617  1.7880  0.8485 -1.7262
   41CHL1    C1 5484   6.235   2.128   9.787  0.5197  0.2410  0.0176
   41CHL1   H1A 5485   6.246   2.028   9.741 -0.1067  1.3813 -2.7205
   41CHL1   H1B 5486   6.343   2.151   9.804 -0.0178  1.6024  1.7592
   41CHL1    C2 5487   6.160   2.130   9.923  0.1001  0.9390 -0.1714
   41CHL1   H2A 5488   6.216   2.069   9.997 -0.7286  0.2195 -0.1323
   41CHL1   H2B 5489   6.060   2.082   9.915  1.0779 -1.2837  0.7403
   41CHL1   C20 5490   6.396   2.179   8.996 -0.2160  0.4888 -0.0422
   41CHL1   H20 5491   6.288   2.188   8.974 -0.3746  1.5696  1.1190
   41CHL1   C21 5492   6.435   2.032   9.014 -0.3985  0.5364 -0.1250
   41CHL1  H21A 5493   6.534   2.026   9.063 -0.6029  0.5806  0.2926
   41CHL1  H21B 5494   6.441   1.961   8.928 -2.0980 -1.3723  1.2849
   41CHL1  H21C 5495   6.358   1.983   9.078  0.1920 -1.6595 -1.0582
   41CHL1   C22 5496   6.473   2.245   8.874  0.0657  0.1434 -0.4901
   41CHL1  H22A 5497   6.469   2.356   8.880  0.0246  0.2353 -1.8739
   41CHL1  H22B 5498   6.581   2.216   8.875  0.3463  1.1648  0.8049
   41CHL1   C23 5499   6.408   2.223   8.740 -0.5639  0.3733 -0.5735
   41CHL1  H23A 5500   6.403   2.118   8.706 -2.2229  0.1911  0.1618
   41CHL1  H23B 5501   6.311   2.278   8.740  0.2196  1.8776 -3.1123
   41CHL1   C24 5502   6.492   2.286   8.626  0.3784 -0.0994 -0.7318
   41CHL1  H24A 5503   6.425   2.328   8.548  0.2525  0.9348 -0.0703
   41CHL1  H24B 5504   6.548   2.376   8.658 -2.5962  1.4250  0.3967
   41CHL1   C25 5505   6.602   2.201   8.547 -0.0049 -0.7272  0.7497
   41CHL1   H25 5506   6.678   2.154   8.613  1.3398 -1.8787 -1.5680
   41CHL1   C26 5507   6.531   2.091   8.467 -0.1403  0.6743  0.0779
   41CHL1  H26A 5508   6.444   2.138   8.416  0.0610  0.5932 -0.3394
   41CHL1  H26B 5509   6.580   2.037   8.383 -0.0966 -0.4485  0.8205
   41CHL1  H26C 5510   6.488   2.024   8.544 -1.2061  0.6679 -0.5206
   41CHL1   C27 5511   6.672   2.293   8.449 -0.1320  0.0947 -0.3654
   41CHL1  H27A 5512   6.729   2.376   8.497 -0.4585 -0.1299  0.4144
   41CHL1  H27B 5513   6.733   2.231   8.381 -0.3534  0.3514 -0.7975
   41CHL1  H27C 5514   6.594   2.351   8.395  2.0976  2.1766 -1.4593
   42CHL1    C3 5515   5.932   1.805   9.935 -0.1908  0.0223  0.8370
   42CHL1    H3 5516   5.963   1.911   9.923  1.5316 -0.7221 -1.3551
   42CHL1    O3 5517   5.884   1.792  10.069  0.3550  0.3312 -0.1913
   42CHL1   H3' 5518   5.788   1.790  10.064  0.4216  0.4334 -1.9275
   42CHL1    C4 5519   5.813   1.786   9.836  0.6816  0.1955 -0.2902
   42CHL1   H4A 5520   5.767   1.688   9.863  1.0467 -0.0716 -0.6379
   42CHL1   H4B 5521   5.739   1.866   9.858 -0.1134 -0.2132 -1.4140
   42CHL1    C5 5522   5.857   1.793   9.692 -0.6783  0.3784 -1.2282
   42CHL1    C6 5523   5.799   1.879   9.605 -0.7428  0.5272  0.4190
   42CHL1    H6 5524   5.709   1.928   9.646 -0.5698  1.3180 -0.1433
   42CHL1    C7 5525   5.828   1.900   9.462  0.2724  0.4151 -0.2845
   42CHL1   H7A 5526   5.727   1.903   9.417 -0.2458  2.4774  0.9424
   42CHL1   H7B 5527   5.882   1.997   9.450  0.6357  0.5629  2.2385
   42CHL1    C8 5528   5.911   1.779   9.410 -0.5809 -0.4338  0.2930
   42CHL1    H8 5529   5.840   1.694   9.406 -2.0347  0.7828 -0.1618
   42CHL1   C14 5530   5.969   1.814   9.277  0.5541 -0.3809  0.2339
   42CHL1   H14 5531   6.032   1.899   9.310  1.0553 -0.1747 -1.1794
   42CHL1   C15 5532   5.881   1.865   9.165  0.7165 -0.0035 -0.0881
   42CHL1  H15A 5533   5.778   1.822   9.168  0.8784 -0.3970 -0.0965
   42CHL1  H15B 5534   5.870   1.973   9.185  1.0981  0.2211 -1.0991
   42CHL1   C16 5535   5.963   1.837   9.029  0.2329 -0.3698  0.4648
   42CHL1  H16A 5536   5.908   1.767   8.962  0.3116  2.3294 -2.5090
   42CHL1  H16B 5537   5.981   1.932   8.975 -2.2568 -0.7165 -1.0955
   42CHL1   C17 5538   6.093   1.765   9.067  0.4945 -0.0013 -0.5849
   42CHL1   H17 5539   6.159   1.855   9.073 -0.1399  0.3805  0.6266
   42CHL1   C13 5540   6.055   1.704   9.208  0.2815  0.0070 -0.0300
   42CHL1   C18 5541   5.970   1.569   9.197  0.0067  0.0331 -0.9129
   42CHL1  H18A 5542   6.044   1.492   9.166  0.7379  0.6980 -0.8529
   42CHL1  H18B 5543   5.927   1.531   9.292  0.4812  1.2752 -0.1934
   42CHL1  H18C 5544   5.889   1.575   9.121 -3.7302  3.7085  3.0905
   42CHL1   C12 5545   6.173   1.677   9.304 -0.1934  0.6833  0.1266
   42CHL1  H12A 5546   6.235   1.593   9.267  0.6407  0.9860  0.8117
   42CHL1  H12B 5547   6.244   1.762   9.306  1.8866 -1.0128  0.5203
   42CHL1   C11 5548   6.124   1.645   9.448  0.1943  0.1665 -0.4792
   42CHL1  H11A 5549   6.080   1.543   9.439  0.8136 -0.1294 -0.2211
   42CHL1  H11B 5550   6.215   1.635   9.511  0.5506  0.4074 -0.9543
   42CHL1    C9 5551   6.024   1.743   9.509  0.3656  0.4697 -0.2728
   42CHL1    H9 5552   6.087   1.833   9.525  1.1580 -0.4361  1.8869
   42CHL1   C10 5553   5.976   1.701   9.658 -1.3098 -0.0951  0.9825
   42CHL1   C19 5554   5.936   1.549   9.652  0.0892  0.2124  0.2091
   42CHL1  H19A 5555   5.885   1.527   9.748 -0.5199  0.6736 -0.0075
   42CHL1  H19B 5556   5.866   1.520   9.570 -0.8819 -0.3075  1.2145
   42CHL1  H19C 5557   6.027   1.486   9.642 -1.3467 -2.0592  1.0831
   42CHL1    C1 5558   6.087   1.730   9.757 -1.0527  0.1497 -0.1802
   42CHL1   H1A 5559   6.172   1.667   9.723 -2.6796 -0.9352 -2.3586
   42CHL1   H1B 5560   6.128   1.832   9.738  0.8785 -0.3188  1.3089
   42CHL1    C2 5561   6.052   1.718   9.907  0.6327  0.0402 -0.0912
   42CHL1   H2A 5562   6.140   1.751   9.965  0.0198  2.3881 -0.4406
   42CHL1   H2B 5563   6.028   1.611   9.926  3.4311 -0.2770  1.8538
   42CHL1   C20 5564   6.141   1.676   8.951 -0.4438  0.5723 -0.1324
   42CHL1   H20 5565   6.084   1.583   8.931 -0.8355  0.5798  0.9170
   42CHL1   C21 5566   6.288   1.642   8.988  0.4740 -0.8962  0.3539
   42CHL1  H21A 5567   6.304   1.563   9.064  1.2868  0.4317  1.5823
   42CHL1  H21B 5568   6.346   1.731   9.021 -1.3326  0.6227 -0.4795
   42CHL1  H21C 5569   6.342   1.597   8.901  0.2978 -1.5807  0.5932
   42CHL1   C22 5570   6.140   1.753   8.812  0.2778  0.3012  0.2773
   42CHL1  H22A 5571   6.040   1.797   8.794  1.3274  1.8287 -2.0416
   42CHL1  H22B 5572   6.212   1.837   8.806 -1.0352  1.3088 -1.9795
   42CHL1   C23 5573   6.172   1.660   8.688  0.8488 -1.0684 -0.2200
   42CHL1  H23A 5574   6.273   1.615   8.704  0.7592 -1.3718 -0.4998
   42CHL1  H23B 5575   6.104   1.573   8.704  0.8299 -0.8491  0.9250
   42CHL1   C24 5576   6.163   1.722   8.546  0.4661  0.5420 -0.0485
   42CHL1  H24A 5577   6.161   1.634   8.479 -0.1369  0.9747 -0.6096
   42CHL1  H24B 5578   6.064   1.771   8.531  0.6937  1.1631  0.4540
   42CHL1   C25 5579   6.282   1.816   8.503  0.6164 -0.5322 -1.0338
   42CHL1   H25 5580   6.290   1.899   8.576  1.2790 -0.2912 -1.3746
   42CHL1   C26 5581   6.419   1.750   8.520  0.5140  0.1547  0.2737
   42CHL1  H26A 5582   6.506   1.819   8.514  1.0412 -0.6850 -2.6982
   42CHL1  H26B 5583   6.429   1.703   8.620 -0.4747 -0.6245  0.0165
   42CHL1  H26C 5584   6.427   1.674   8.439  3.2702 -0.2760  0.8890
   42CHL1   C27 5585   6.259   1.880   8.366 -0.1128  0.3796  0.3810
   42CHL1  H27A 5586   6.252   1.803   8.287  4.4451 -1.0473  1.2006
   42CHL1  H27B 5587   6.169   1.945   8.361 -0.4419 -0.1787 -1.2763
   42CHL1  H27C 5588   6.350   1.940   8.342 -0.5624  1.4453  1.3109
   43CHL1    C3 5589   6.587   1.821  10.018 -0.7797 -0.6542 -0.5138
   43CHL1    H3 5590   6.576   1.712  10.036 -0.6791 -0.4319  0.9272
   43CHL1    O3 5591   6.581   1.889  10.148  0.4472 -0.2713  0.2116
   43CHL1   H3' 5592   6.634   1.833  10.205  0.0689 -0.9501 -0.0959
   43CHL1    C4 5593   6.728   1.842   9.966  1.1013 -0.4536  0.5348
   43CHL1   H4A 5594   6.751   1.951   9.964  0.1737 -0.2636 -0.4526
   43CHL1   H4B 5595   6.797   1.791  10.036  0.8108  0.1348  1.2481
   43CHL1    C5 5596   6.738   1.786   9.831  0.3720  0.4462  0.7526
   43CHL1    C6 5597   6.826   1.692   9.802 -0.0833 -0.1618 -0.2574
   43CHL1    H6 5598   6.891   1.660   9.884 -2.5141 -0.8049  1.4752
   43CHL1    C7 5599   6.855   1.636   9.666 -0.7511 -0.2616 -0.5924
   43CHL1   H7A 5600   6.966   1.628   9.660 -0.7974 -2.1609  0.7298
   43CHL1   H7B 5601   6.817   1.535   9.642 -3.2261  0.9135 -1.8423
   43CHL1    C8 5602   6.795   1.732   9.554  0.0377 -0.1125 -0.3108
   43CHL1    H8 5603   6.852   1.827   9.560  0.8474 -0.6424  0.6138
   43CHL1   C14 5604   6.798   1.666   9.415  0.0288  0.6693 -0.1342
   43CHL1   H14 5605   6.739   1.573   9.429  3.6621 -1.7969 -0.4023
   43CHL1   C15 5606   6.926   1.600   9.362  0.0695 -0.0857 -0.1968
   43CHL1  H15A 5607   7.018   1.660   9.378 -0.1971 -0.3356  2.5651
   43CHL1  H15B 5608   6.943   1.494   9.391  0.5006 -0.2807 -1.1460
   43CHL1   C16 5609   6.900   1.599   9.209  0.5129  0.3005  0.4479
   43CHL1  H16A 5610   6.980   1.651   9.153  0.5321  1.4721  1.5331
   43CHL1  H16B 5611   6.901   1.495   9.172  0.5771  0.7041 -0.7115
   43CHL1   C17 5612   6.755   1.663   9.185 -0.8096  0.6783 -0.4209
   43CHL1   H17 5613   6.687   1.577   9.204  1.3691 -0.9507  0.2930
   43CHL1   C13 5614   6.735   1.752   9.304 -0.5078 -1.1074  0.5781
   43CHL1   C18 5615   6.816   1.885   9.289  0.4828  0.8539  0.6133
   43CHL1  H18A 5616   6.761   1.957   9.225 -1.8030 -1.6261 -0.3003
   43CHL1  H18B 5617   6.832   1.932   9.389 -1.0760  2.0723  0.3132
   43CHL1  H18C 5618   6.914   1.861   9.243 -0.2682  1.2852 -1.2234
   43CHL1   C12 5619   6.587   1.780   9.341  0.4460 -0.4703  0.9868
   43CHL1  H12A 5620   6.539   1.839   9.260  1.6213 -0.1718  0.5016
   43CHL1  H12B 5621   6.534   1.683   9.347 -1.7303  0.7235  1.8160
   43CHL1   C11 5622   6.575   1.848   9.479 -0.6034 -0.8537  1.1109
   43CHL1  H11A 5623   6.622   1.947   9.457  2.5249 -2.2242  1.3974
   43CHL1  H11B 5624   6.471   1.871   9.512 -0.7971  0.7482 -0.5084
   43CHL1    C9 5625   6.647   1.771   9.594 -0.1299  0.3494  0.1066
   43CHL1    H9 5626   6.588   1.676   9.594  1.0756 -0.4140 -0.1431
   43CHL1   C10 5627   6.641   1.845   9.725 -0.0630  0.3240 -1.1603
   43CHL1   C19 5628   6.686   1.993   9.711  0.9392  0.5622  0.3003
   43CHL1  H19A 5629   6.779   1.994   9.650 -1.2969  0.0902 -3.3149
   43CHL1  H19B 5630   6.607   2.053   9.662 -0.5120 -0.2998  1.5233
   43CHL1  H19C 5631   6.696   2.041   9.810  1.5566  0.2306  0.4005
   43CHL1    C1 5632   6.496   1.835   9.782 -0.2383 -0.0938 -0.1944
   43CHL1   H1A 5633   6.420   1.886   9.719 -0.8632 -2.7160 -1.6244
   43CHL1   H1B 5634   6.471   1.727   9.781  3.0520 -0.8959 -0.3584
   43CHL1    C2 5635   6.480   1.886   9.925 -0.5955  0.6668 -1.4445
   43CHL1   H2A 5636   6.378   1.873   9.966  0.4406 -2.3960  0.3201
   43CHL1   H2B 5637   6.492   1.996   9.913  0.3925  0.7908  0.4457
   43CHL1   C20 5638   6.731   1.707   9.041 -0.2325 -0.1059  0.0934
   43CHL1   H20 5639   6.649   1.782   9.037 -0.3855 -0.3560 -2.7898
   43CHL1   C21 5640   6.681   1.585   8.959  0.6225  0.3646  0.1325
   43CHL1  H21A 5641   6.679   1.600   8.849  1.5589  0.9581  0.1869
   43CHL1  H21B 5642   6.581   1.555   8.998  1.1203  0.8901  1.8776
   43CHL1  H21C 5643   6.738   1.495   8.992 -1.7432 -0.6212  1.6167
   43CHL1   C22 5644   6.851   1.783   8.972  1.4340 -0.2917  0.0394
   43CHL1  H22A 5645   6.925   1.823   9.045 -0.0741  0.0014  1.4223
   43CHL1  H22B 5646   6.907   1.710   8.910 -0.7768 -2.6475  0.7292
   43CHL1   C23 5647   6.808   1.902   8.886  1.0337 -0.6547 -0.5280
   43CHL1  H23A 5648   6.723   1.869   8.823 -1.0334  0.2578  1.6966
   43CHL1  H23B 5649   6.764   1.986   8.944 -1.7929 -1.6823 -1.1142
   43CHL1   C24 5650   6.904   1.975   8.797  0.7923  0.3135 -0.1568
   43CHL1  H24A 5651   6.946   1.912   8.716  1.6190 -1.0214  1.2719
   43CHL1  H24B 5652   6.854   2.066   8.757 -2.6082 -0.6307  1.7591
   43CHL1   C25 5653   7.028   2.035   8.867  0.5660 -0.5999 -0.0830
   43CHL1   H25 5654   7.068   1.962   8.941 -0.8666  0.1685  1.4939
   43CHL1   C26 5655   7.138   2.071   8.771  0.6031 -0.3044  0.2067
   43CHL1  H26A 5656   7.106   2.141   8.691 -0.7726 -0.5161  0.5567
   43CHL1  H26B 5657   7.231   2.119   8.808 -0.3770  2.1853 -0.4930
   43CHL1  H26C 5658   7.170   1.979   8.717  2.0020  0.2444  0.0778
   43CHL1   C27 5659   7.000   2.160   8.958  0.2654 -0.6857 -0.3451
   43CHL1  H27A 5660   6.924   2.138   9.036  1.3021  0.9066  1.1417
   43CHL1  H27B 5661   7.091   2.196   9.009 -0.7854 -0.7784  1.6785
   43CHL1  H27C 5662   6.956   2.239   8.894 -1.2208 -0.6071  0.7415
   44CHL1    C3 5663   6.709   2.355  10.240 -0.4829 -1.1307  0.4308
   44CHL1    H3 5664   6.801   2.295  10.257  0.4791  0.6223  1.5753
   44CHL1    O3 5665   6.644   2.374  10.360  0.1104 -0.4369 -0.3432
   44CHL1   H3' 5666   6.583   2.301  10.375  0.2071 -0.5010 -0.2589
   44CHL1    C4 5667   6.759   2.492  10.190  0.1745  1.0302 -0.5294
   44CHL1   H4A 5668   6.676   2.565  10.181  0.4651  1.4409  0.1750
   44CHL1   H4B 5669   6.839   2.538  10.250  0.2426  0.8068 -0.4505
   44CHL1    C5 5670   6.802   2.477  10.044 -0.4403 -0.4269  0.1771
   44CHL1    C6 5671   6.931   2.511  10.017  0.0508  0.2026 -0.2354
   44CHL1    H6 5672   6.987   2.549  10.104 -0.0395 -0.1595 -0.0168
   44CHL1    C7 5673   6.993   2.506   9.878 -0.2061 -0.6028  0.0037
   44CHL1   H7A 5674   7.044   2.602   9.855  0.2714 -0.0836  3.0656
   44CHL1   H7B 5675   7.062   2.422   9.853  0.3644 -1.0603  2.9546
   44CHL1    C8 5676   6.878   2.495   9.773  0.2620  0.7067  0.1136
   44CHL1    H8 5677   6.825   2.593   9.777  1.2268  1.1872  1.5230
   44CHL1   C14 5678   6.935   2.465   9.635  0.1783 -0.2015  0.0406
   44CHL1   H14 5679   6.983   2.365   9.640  3.8177  1.4460 -0.2481
   44CHL1   C15 5680   7.045   2.554   9.581  0.5543  0.6141  0.5423
   44CHL1  H15A 5681   7.017   2.658   9.608 -1.1061  0.5432 -0.7883
   44CHL1  H15B 5682   7.140   2.541   9.637  0.1497 -1.0414  0.8760
   44CHL1   C16 5683   7.042   2.538   9.438  0.3237  0.4193  0.6477
   44CHL1  H16A 5684   7.028   2.640   9.395  1.0372  0.4583  0.5038
   44CHL1  H16B 5685   7.133   2.492   9.393  0.5934  0.2435  1.3662
   44CHL1   C17 5686   6.923   2.451   9.396  0.1103  0.0797 -0.4955
   44CHL1   H17 5687   6.957   2.346   9.387  1.9731  0.7075 -1.0190
   44CHL1   C13 5688   6.832   2.462   9.519 -0.1394  0.7739 -0.8856
   44CHL1   C18 5689   6.758   2.592   9.498 -0.5279  0.0497 -0.2624
   44CHL1  H18A 5690   6.709   2.626   9.592  2.4994 -0.0441  1.4288
   44CHL1  H18B 5691   6.819   2.676   9.457  0.4157  0.0996  1.2075
   44CHL1  H18C 5692   6.678   2.571   9.423 -0.6579  2.8010 -0.9808
   44CHL1   C12 5693   6.736   2.346   9.550  0.2781  0.0478 -0.1404
   44CHL1  H12A 5694   6.657   2.327   9.474 -1.4261  1.1801  1.3046
   44CHL1  H12B 5695   6.802   2.256   9.551 -0.8622 -0.7928  0.7798
   44CHL1   C11 5696   6.671   2.357   9.688  0.3196 -0.4835 -0.1229
   44CHL1  H11A 5697   6.607   2.447   9.677  0.1033 -0.7210 -0.7660
   44CHL1  H11B 5698   6.617   2.265   9.720  2.6143 -2.3548 -1.4680
   44CHL1    C9 5699   6.772   2.392   9.811 -0.7392  0.2476 -0.2907
   44CHL1    H9 5700   6.828   2.298   9.831 -1.8062 -0.6377 -1.3985
   44CHL1   C10 5701   6.706   2.422   9.942  0.2156 -0.1083  0.1628
   44CHL1   C19 5702   6.578   2.518   9.928  0.9732 -0.9099 -0.1110
   44CHL1  H19A 5703   6.496   2.463   9.878  0.4771  0.3556 -0.7090
   44CHL1  H19B 5704   6.538   2.548  10.027  0.3486  1.3111 -1.0106
   44CHL1  H19C 5705   6.608   2.605   9.865 -0.8774 -0.3805 -0.2841
   44CHL1    C1 5706   6.672   2.277  10.002  0.0544 -0.4174  0.1775
   44CHL1   H1A 5707   6.592   2.230   9.941 -1.2601  0.5190  1.1499
   44CHL1   H1B 5708   6.757   2.206   9.999  1.0735  0.8028  0.0301
   44CHL1    C2 5709   6.614   2.288  10.148 -0.6334 -0.8387  0.5697
   44CHL1   H2A 5710   6.581   2.187  10.180  0.6995 -1.1109  1.1415
   44CHL1   H2B 5711   6.526   2.355  10.142  0.9177  1.0337 -3.5665
   44CHL1   C20 5712   6.873   2.480   9.250  0.7419 -0.6410 -0.2834
   44CHL1   H20 5713   6.821   2.578   9.239  0.8729 -0.6523 -0.9916
   44CHL1   C21 5714   6.764   2.363   9.215  0.3754 -0.5914  0.3377
   44CHL1  H21A 5715   6.744   2.370   9.106 -0.3340 -2.7629  0.3037
   44CHL1  H21B 5716   6.670   2.355   9.275 -2.3151 -1.8836 -3.8555
   44CHL1  H21C 5717   6.817   2.268   9.232 -0.2790 -0.5943  2.5662
   44CHL1   C22 5718   6.990   2.492   9.146  0.0441 -0.5089  0.4435
   44CHL1  H22A 5719   7.070   2.567   9.165  0.2283 -0.3751 -0.7937
   44CHL1  H22B 5720   7.042   2.394   9.134 -2.1430 -1.8276  1.3562
   44CHL1   C23 5721   6.937   2.523   9.002  0.2919 -0.3593 -0.3396
   44CHL1  H23A 5722   6.867   2.443   8.970  0.8974 -0.5800 -1.1326
   44CHL1  H23B 5723   6.887   2.622   9.015 -0.0588 -0.6474  0.5106
   44CHL1   C24 5724   7.055   2.527   8.904 -0.1588 -0.9910  0.1476
   44CHL1  H24A 5725   7.129   2.595   8.951 -0.1939 -1.6052  1.1201
   44CHL1  H24B 5726   7.110   2.430   8.902  0.3262 -0.6946 -1.1739
   44CHL1   C25 5727   7.025   2.572   8.761 -0.4087  0.4084  0.0993
   44CHL1   H25 5728   6.956   2.659   8.764  0.0191  0.6894  3.1431
   44CHL1   C26 5729   7.151   2.627   8.687 -0.5152  0.0545 -0.6355
   44CHL1  H26A 5730   7.198   2.712   8.742 -0.0157  0.1602 -1.2210
   44CHL1  H26B 5731   7.227   2.550   8.665  1.3243  1.6218  0.0759
   44CHL1  H26C 5732   7.132   2.675   8.588  3.5411 -0.7494 -1.9217
   44CHL1   C27 5733   6.960   2.458   8.682 -0.1652 -0.3393  0.4902
   44CHL1  H27A 5734   6.855   2.432   8.707  1.1666 -3.7965  2.7704
   44CHL1  H27B 5735   6.966   2.479   8.573 -1.1998 -0.9200  0.3123
   44CHL1  H27C 5736   7.010   2.360   8.693 -0.0792 -0.6806 -2.4511
   45CHL1    C3 5737   3.627   1.344  10.211 -0.5948  0.3321 -0.3533
   45CHL1    H3 5738   3.647   1.439  10.157  1.5146  0.3139  0.3302
   45CHL1    O3 5739   3.632   1.370  10.353 -0.1736 -0.1543 -0.1250
   45CHL1   H3' 5740   3.717   1.407  10.375  0.2764 -0.4901 -1.2612
   45CHL1    C4 5741   3.496   1.278  10.184  0.3645 -0.3676  0.0457
   45CHL1   H4A 5742   3.499   1.192  10.253  0.7488 -1.0729 -0.8357
   45CHL1   H4B 5743   3.418   1.348  10.221  0.5770 -1.5511  2.8130
   45CHL1    C5 5744   3.476   1.234  10.041  0.1815 -0.0021 -0.7148
   45CHL1    C6 5745   3.371   1.286   9.975  0.1030 -0.2449  0.3758
   45CHL1    H6 5746   3.309   1.361  10.027  0.7605  1.9110 -1.8871
   45CHL1    C7 5747   3.350   1.253   9.824  0.2333  0.7217  0.5566
   45CHL1   H7A 5748   3.249   1.208   9.815 -0.0038  1.3991 -0.1682
   45CHL1   H7B 5749   3.357   1.348   9.768 -0.6943  1.3098  1.4133
   45CHL1    C8 5750   3.452   1.148   9.755  0.0616  0.8797 -0.5771
   45CHL1    H8 5751   3.476   1.197   9.659  0.3061  1.4131 -0.2488
   45CHL1   C14 5752   3.377   1.016   9.734  0.4269 -0.1721  0.0642
   45CHL1   H14 5753   3.336   0.990   9.834 -1.1379 -0.2240 -0.5739
   45CHL1   C15 5754   3.265   1.033   9.627 -0.1944 -0.4379  0.1372
   45CHL1  H15A 5755   3.192   0.957   9.664  1.1626 -0.8341  2.0290
   45CHL1  H15B 5756   3.219   1.134   9.630  1.0551  0.1040  1.5994
   45CHL1   C16 5757   3.316   0.989   9.494 -0.4691  0.3958  0.0476
   45CHL1  H16A 5758   3.254   0.907   9.453 -1.5072  1.4542 -0.5336
   45CHL1  H16B 5759   3.320   1.081   9.431  2.5619  0.6735  0.5536
   45CHL1   C17 5760   3.462   0.927   9.523  0.5585 -0.1144  0.4242
   45CHL1   H17 5761   3.525   1.018   9.515 -0.1478  0.3949  0.6078
   45CHL1   C13 5762   3.470   0.901   9.676 -0.2568 -0.5019 -0.1411
   45CHL1   C18 5763   3.401   0.763   9.704 -0.1800 -0.3916  0.0938
   45CHL1  H18A 5764   3.309   0.749   9.643 -0.6201  1.1966  0.3654
   45CHL1  H18B 5765   3.474   0.686   9.671  0.5787  0.6063 -0.5888
   45CHL1  H18C 5766   3.378   0.758   9.812  2.1131 -1.9965  0.5477
   45CHL1   C12 5767   3.619   0.904   9.737  0.2367 -0.1955  0.0471
   45CHL1  H12A 5768   3.634   0.837   9.824 -1.0675  0.0188  0.4395
   45CHL1  H12B 5769   3.686   0.845   9.670  0.2983  1.2054 -1.1572
   45CHL1   C11 5770   3.683   1.042   9.773  1.0689 -0.5345 -0.2537
   45CHL1  H11A 5771   3.780   1.051   9.825  0.5396  0.9179  0.5009
   45CHL1  H11B 5772   3.709   1.087   9.674 -0.0792 -0.2505 -0.4342
   45CHL1    C9 5773   3.578   1.139   9.831 -0.3037 -0.2691  0.1979
   45CHL1    H9 5774   3.623   1.236   9.801 -2.4655  1.0913  1.2458
   45CHL1   C10 5775   3.587   1.146   9.983 -0.4963  0.1421 -0.3813
   45CHL1   C19 5776   3.565   1.002  10.044  0.4833  0.2033 -0.2279
   45CHL1  H19A 5777   3.474   0.959   9.998 -1.0411  2.9367  0.1160
   45CHL1  H19B 5778   3.643   0.927  10.020  1.3845  0.4848  1.7235
   45CHL1  H19C 5779   3.546   1.010  10.153  1.4117  3.9944 -0.2819
   45CHL1    C1 5780   3.725   1.201  10.031  0.0553 -0.0046 -0.4178
   45CHL1   H1A 5781   3.807   1.126  10.029  1.6851  1.7539 -0.1936
   45CHL1   H1B 5782   3.758   1.275   9.954 -0.2761 -0.3461 -0.8923
   45CHL1    C2 5783   3.738   1.247  10.179  0.1689 -1.1882 -0.8613
   45CHL1   H2A 5784   3.841   1.287  10.189  0.3071 -1.9172  0.7568
   45CHL1   H2B 5785   3.724   1.153  10.238  1.2346  0.3030  1.8596
   45CHL1   C20 5786   3.519   0.828   9.422 -0.3076 -1.1612  0.2863
   45CHL1   H20 5787   3.616   0.806   9.471  1.2578  1.9472 -1.2565
   45CHL1   C21 5788   3.557   0.897   9.283  0.1883  0.1629 -0.3180
   45CHL1  H21A 5789   3.614   0.992   9.296 -0.6983  0.6656 -0.0493
   45CHL1  H21B 5790   3.471   0.913   9.215  0.8773 -0.0203 -1.2462
   45CHL1  H21C 5791   3.631   0.831   9.232 -0.2451  0.0065 -0.7424
   45CHL1   C22 5792   3.440   0.701   9.382 -0.0929 -0.0712  0.8346
   45CHL1  H22A 5793   3.348   0.681   9.440  1.2456 -2.0314  2.3906
   45CHL1  H22B 5794   3.410   0.711   9.276 -1.7857 -3.0396  0.9891
   45CHL1   C23 5795   3.511   0.564   9.398 -0.8545 -0.3276 -0.6032
   45CHL1  H23A 5796   3.564   0.555   9.496 -1.4734  3.4179  0.1497
   45CHL1  H23B 5797   3.441   0.478   9.410 -1.6292  0.3723 -0.0012
   45CHL1   C24 5798   3.602   0.534   9.276 -0.6826  0.6664 -0.3731
   45CHL1  H24A 5799   3.532   0.547   9.191  1.1887 -0.1077 -2.0731
   45CHL1  H24B 5800   3.693   0.597   9.264  0.8271 -1.7780 -2.2987
   45CHL1   C25 5801   3.641   0.385   9.269  0.4561 -0.1284  0.8819
   45CHL1   H25 5802   3.550   0.326   9.293 -0.2624  0.6294  0.0405
   45CHL1   C26 5803   3.686   0.337   9.130 -0.2311  0.0813 -0.7932
   45CHL1  H26A 5804   3.772   0.400   9.101 -0.6219  0.8011 -0.4058
   45CHL1  H26B 5805   3.720   0.232   9.140 -0.4820  0.1054  0.3635
   45CHL1  H26C 5806   3.606   0.343   9.053  1.1132  1.6386 -2.1057
   45CHL1   C27 5807   3.750   0.348   9.367  0.6326 -0.0629  0.7228
   45CHL1  H27A 5808   3.699   0.313   9.459 -0.1949 -2.5532 -0.6185
   45CHL1  H27B 5809   3.800   0.257   9.328 -0.0905 -0.0694 -0.2291
   45CHL1  H27C 5810   3.827   0.425   9.389 -0.6547  0.9100  1.9044
   46CHL1    C3 5811   6.580   5.631   9.980  0.1295 -0.3221  0.0100
   46CHL1    H3 5812   6.677   5.587   9.948  0.7315  0.1623  1.1049
   46CHL1    O3 5813   6.583   5.658  10.120 -0.1866  0.5143  0.3267
   46CHL1   H3' 5814   6.497   5.624  10.144  1.3996 -2.9429  1.4258
   46CHL1    C4 5815   6.571   5.769   9.912  1.0624  1.2897  0.1424
   46CHL1   H4A 5816   6.494   5.838   9.952 -0.7400 -0.2671 -0.5562
   46CHL1   H4B 5817   6.670   5.806   9.946  0.3626  0.2383  3.4469
   46CHL1    C5 5818   6.560   5.760   9.762  0.1783 -0.7655  0.0506
   46CHL1    C6 5819   6.630   5.840   9.687  0.0573  0.2244 -0.0958
   46CHL1    H6 5820   6.699   5.919   9.718  3.1961 -1.9940 -1.1108
   46CHL1    C7 5821   6.625   5.837   9.534  0.7801 -0.1323 -0.0832
   46CHL1   H7A 5822   6.627   5.943   9.503 -0.4315  0.4625  1.8146
   46CHL1   H7B 5823   6.710   5.778   9.494 -0.3986 -0.9623 -1.4131
   46CHL1    C8 5824   6.495   5.767   9.479 -0.2801 -0.3010  0.2602
   46CHL1    H8 5825   6.411   5.839   9.489 -1.6543 -1.7108 -0.9348
   46CHL1   C14 5826   6.511   5.723   9.334 -0.4738 -0.5611  0.4484
   46CHL1   H14 5827   6.592   5.647   9.333 -1.9406 -2.1411 -0.4874
   46CHL1   C15 5828   6.550   5.828   9.231  0.7584  0.4164  0.1382
   46CHL1  H15A 5829   6.480   5.914   9.240 -0.0136  0.0614 -2.2740
   46CHL1  H15B 5830   6.649   5.859   9.269  0.2881  1.9001  0.1890
   46CHL1   C16 5831   6.540   5.756   9.096  0.1956  0.7452 -0.1588
   46CHL1  H16A 5832   6.486   5.829   9.032 -0.3663 -1.0004 -1.7065
   46CHL1  H16B 5833   6.626   5.719   9.036  0.5681 -0.0451  0.8344
   46CHL1   C17 5834   6.450   5.629   9.126  0.5137  0.1287 -0.2272
   46CHL1   H17 5835   6.528   5.550   9.127 -0.0756 -0.4424  0.4867
   46CHL1   C13 5836   6.397   5.648   9.267  0.1825 -0.3429 -0.6588
   46CHL1   C18 5837   6.275   5.738   9.272  0.3317 -0.0908  0.4495
   46CHL1  H18A 5838   6.184   5.677   9.257 -0.1182  0.8677 -0.8051
   46CHL1  H18B 5839   6.254   5.791   9.368  2.5191  0.1034  0.8485
   46CHL1  H18C 5840   6.277   5.803   9.181  0.5873 -1.2196 -0.3564
   46CHL1   C12 5841   6.380   5.516   9.349 -0.0721  0.4895 -0.1904
   46CHL1  H12A 5842   6.294   5.452   9.320  0.9210 -0.0731 -2.0121
   46CHL1  H12B 5843   6.467   5.447   9.341 -1.4074 -1.3223  0.4050
   46CHL1   C11 5844   6.350   5.547   9.498  0.2336 -0.1531  0.4902
   46CHL1  H11A 5845   6.252   5.600   9.499  0.7337  0.8331 -1.0869
   46CHL1  H11B 5846   6.350   5.446   9.543  1.1291 -0.0823  0.6590
   46CHL1    C9 5847   6.459   5.643   9.561 -0.4043  0.7043  0.4674
   46CHL1    H9 5848   6.548   5.578   9.549 -0.3599  0.7410  0.6035
   46CHL1   C10 5849   6.446   5.665   9.710  0.5847 -0.2250  0.2984
   46CHL1   C19 5850   6.312   5.743   9.733  0.3270  0.9041  0.5562
   46CHL1  H19A 5851   6.232   5.689   9.678  0.3357  0.4067  1.0197
   46CHL1  H19B 5852   6.277   5.740   9.839  1.1297 -2.2369  0.7824
   46CHL1  H19C 5853   6.315   5.849   9.702  0.3692  0.5201 -0.7753
   46CHL1    C1 5854   6.452   5.524   9.793 -0.3196 -0.3358  0.6217
   46CHL1   H1A 5855   6.363   5.464   9.768  0.1518 -1.1538  0.9069
   46CHL1   H1B 5856   6.545   5.476   9.755  1.3756  2.9312  0.4081
   46CHL1    C2 5857   6.463   5.546   9.943  0.0749  0.1213 -0.1705
   46CHL1   H2A 5858   6.481   5.450   9.996  1.3516 -0.1792 -1.1316
   46CHL1   H2B 5859   6.376   5.598   9.989 -0.4004 -0.3269 -0.5378
   46CHL1   C20 5860   6.345   5.584   9.019 -1.2471 -0.2276 -0.0492
   46CHL1   H20 5861   6.244   5.613   9.054 -1.8572  1.5743 -3.0564
   46CHL1   C21 5862   6.342   5.434   9.001  0.2524 -0.1071 -0.1365
   46CHL1  H21A 5863   6.337   5.379   9.097 -2.5507  0.9409  0.3796
   46CHL1  H21B 5864   6.436   5.417   8.944 -0.6200  1.1704 -2.0185
   46CHL1  H21C 5865   6.249   5.419   8.943  0.1369 -2.8646  0.7219
   46CHL1   C22 5866   6.378   5.648   8.877  0.3996  0.3794 -0.4165
   46CHL1  H22A 5867   6.350   5.755   8.887 -0.8887 -0.0152  0.3591
   46CHL1  H22B 5868   6.481   5.628   8.841  0.0813  1.5794 -2.0307
   46CHL1   C23 5869   6.289   5.584   8.766 -0.3727 -0.0806  0.4055
   46CHL1  H23A 5870   6.320   5.477   8.760 -0.1830 -0.1662  2.4843
   46CHL1  H23B 5871   6.179   5.582   8.782 -0.6451 -1.9245 -1.4316
   46CHL1   C24 5872   6.305   5.645   8.629  0.0741  1.1518  0.8002
   46CHL1  H24A 5873   6.289   5.755   8.638  0.2401  1.2543 -0.1065
   46CHL1  H24B 5874   6.409   5.634   8.592 -0.7921  1.1416 -1.7550
   46CHL1   C25 5875   6.212   5.596   8.517  0.4429  0.3816 -0.3396
   46CHL1   H25 5876   6.118   5.572   8.570  1.4937 -1.4274  0.7184
   46CHL1   C26 5877   6.190   5.703   8.409  0.1920 -0.2454  0.0925
   46CHL1  H26A 5878   6.171   5.806   8.447 -1.6231  0.2076 -1.9670
   46CHL1  H26B 5879   6.283   5.701   8.349 -0.5025 -0.5558 -0.9755
   46CHL1  H26C 5880   6.108   5.672   8.341  1.0423 -1.6354 -0.3261
   46CHL1   C27 5881   6.259   5.463   8.454  0.4500  0.0558 -0.6494
   46CHL1  H27A 5882   6.186   5.438   8.374  0.7686  1.7388 -1.4868
   46CHL1  H27B 5883   6.365   5.474   8.423  0.5145 -0.5454 -0.6428
   46CHL1  H27C 5884   6.252   5.380   8.527  1.9810  3.5823  3.7052
   47CHL1    C3 5885   0.393   2.027  10.143  0.1427  0.4441 -0.3682
   47CHL1    H3 5886   0.503   2.011  10.145  0.1664  0.5700 -0.6760
   47CHL1    O3 5887   0.351   2.047  10.274  1.0144 -0.2773  0.1842
   47CHL1   H3' 5888   0.334   2.142  10.273  1.3561 -0.1951  1.4368
   47CHL1    C4 5889   0.363   2.157  10.064  0.4980 -0.0895  1.0950
   47CHL1   H4A 5890   0.256   2.181  10.079  0.0562 -1.2291 -0.0327
   47CHL1   H4B 5891   0.425   2.236  10.111  2.1327 -0.7683  0.1282
   47CHL1    C5 5892   0.399   2.150   9.911  0.4086  0.3690  0.5284
   47CHL1    C6 5893   0.483   2.234   9.856  0.1503  0.4904  0.4620
   47CHL1    H6 5894   0.533   2.308   9.920  0.6348  0.0433  0.6070
   47CHL1    C7 5895   0.533   2.229   9.714  0.5163 -0.1589  0.1642
   47CHL1   H7A 5896   0.535   2.325   9.659  0.7283  1.5097  3.0605
   47CHL1   H7B 5897   0.633   2.180   9.713  1.4123  1.6459 -1.5214
   47CHL1    C8 5898   0.448   2.133   9.627 -0.5183 -0.3277  1.1048
   47CHL1    H8 5899   0.358   2.192   9.599 -0.0181  0.3922  1.0071
   47CHL1   C14 5900   0.525   2.105   9.500 -0.2230  0.0675  0.2324
   47CHL1   H14 5901   0.621   2.053   9.520 -0.6680 -0.2514  1.6584
   47CHL1   C15 5902   0.561   2.217   9.404  0.1166 -0.3192  0.1045
   47CHL1  H15A 5903   0.479   2.289   9.385 -1.3448 -1.1900  2.8922
   47CHL1  H15B 5904   0.653   2.276   9.429 -1.9859  2.2120  2.1896
   47CHL1   C16 5905   0.581   2.148   9.269  0.9101  0.4215 -0.0737
   47CHL1  H16A 5906   0.527   2.195   9.185 -0.7148 -0.7546  0.2927
   47CHL1  H16B 5907   0.684   2.177   9.239  0.2290  3.3879  0.3453
   47CHL1   C17 5908   0.543   1.996   9.288 -0.0829  0.1336  0.1264
   47CHL1   H17 5909   0.636   1.944   9.319 -0.4032 -0.0091  0.8526
   47CHL1   C13 5910   0.446   2.001   9.412  0.7358 -0.6267  0.5082
   47CHL1   C18 5911   0.316   2.064   9.364  1.1239 -0.3172  0.3676
   47CHL1  H18A 5912   0.258   2.093   9.454  1.9694 -1.4158  1.2895
   47CHL1  H18B 5913   0.320   2.157   9.304  0.4491 -1.1525 -0.9985
   47CHL1  H18C 5914   0.264   1.992   9.297  0.7509 -0.7513  1.1142
   47CHL1   C12 5915   0.428   1.867   9.492 -0.2297 -0.0368  0.0146
   47CHL1  H12A 5916   0.395   1.778   9.434  0.0834 -0.2214  0.1178
   47CHL1  H12B 5917   0.535   1.842   9.505 -0.8567 -2.4944  0.7049
   47CHL1   C11 5918   0.349   1.892   9.617 -0.0267  0.0923 -0.3137
   47CHL1  H11A 5919   0.245   1.914   9.585  0.1475 -0.3532 -1.2241
   47CHL1  H11B 5920   0.358   1.794   9.668  0.1404  0.5949  0.6255
   47CHL1    C9 5921   0.409   2.003   9.702  0.3599 -0.4348  1.2111
   47CHL1    H9 5922   0.506   1.954   9.725  0.3667 -0.9444  0.1077
   47CHL1   C10 5923   0.338   2.030   9.837  0.1081  0.7200 -0.4711
   47CHL1   C19 5924   0.187   2.059   9.805 -0.4710  0.0222  0.3061
   47CHL1  H19A 5925   0.169   2.134   9.725 -0.4923  1.2797  1.4689
   47CHL1  H19B 5926   0.143   1.967   9.760 -0.5393  0.6714 -1.0017
   47CHL1  H19C 5927   0.121   2.085   9.890 -1.4381 -1.2567 -0.0270
   47CHL1    C1 5928   0.354   1.898   9.925  0.0653  0.5672 -0.3175
   47CHL1   H1A 5929   0.282   1.829   9.877 -1.6899  1.7333  0.5824
   47CHL1   H1B 5930   0.463   1.876   9.918 -0.0732  0.0025 -0.7250
   47CHL1    C2 5931   0.319   1.911  10.079  0.6670 -0.5466  0.6297
   47CHL1   H2A 5932   0.327   1.811  10.128 -1.3116 -0.0144  2.0697
   47CHL1   H2B 5933   0.211   1.936  10.077  0.5736 -1.0173 -2.7058
   47CHL1   C20 5934   0.496   1.926   9.157 -0.1532 -0.5256 -0.0112
   47CHL1   H20 5935   0.405   1.985   9.136  1.1410  2.0321  1.3109
   47CHL1   C21 5936   0.434   1.788   9.180  0.7163  0.4448  0.3913
   47CHL1  H21A 5937   0.329   1.781   9.217 -0.1443  3.8324 -1.2963
   47CHL1  H21B 5938   0.499   1.734   9.252 -0.3204  0.2656  1.2087
   47CHL1  H21C 5939   0.417   1.730   9.087 -4.1367  0.7528  0.9632
   47CHL1   C22 5940   0.595   1.944   9.041 -0.2075  0.7657 -0.1454
   47CHL1  H22A 5941   0.607   2.051   9.015  0.7017  0.8906  0.7571
   47CHL1  H22B 5942   0.698   1.905   9.059 -1.3182 -1.5149  1.6810
   47CHL1   C23 5943   0.549   1.869   8.913 -0.0221  0.9757 -0.5270
   47CHL1  H23A 5944   0.560   1.765   8.950 -0.3354  1.7456  1.8403
   47CHL1  H23B 5945   0.443   1.876   8.881  0.2828 -0.8532 -2.0223
   47CHL1   C24 5946   0.652   1.869   8.798  0.3595 -0.7679 -0.2493
   47CHL1  H24A 5947   0.646   1.962   8.737 -3.2920 -1.4548 -1.0407
   47CHL1  H24B 5948   0.757   1.861   8.831 -0.0662 -0.4202  1.2137
   47CHL1   C25 5949   0.634   1.751   8.692  0.3707 -0.2404 -0.6565
   47CHL1   H25 5950   0.677   1.662   8.744  0.6395  0.1394 -0.2257
   47CHL1   C26 5951   0.487   1.722   8.664  0.3523  0.2467 -0.1142
   47CHL1  H26A 5952   0.428   1.695   8.754  0.8074 -0.2001  0.0507
   47CHL1  H26B 5953   0.481   1.635   8.595 -0.5747 -0.5466  0.9413
   47CHL1  H26C 5954   0.439   1.807   8.611  1.0305 -0.1255 -1.3479
   47CHL1   C27 5955   0.705   1.790   8.566 -0.5528 -0.3210 -0.1363
   47CHL1  H27A 5956   0.810   1.823   8.583 -0.5205 -0.5066  0.0265
   47CHL1  H27B 5957   0.711   1.696   8.508 -1.3836  0.3216 -1.2683
   47CHL1  H27C 5958   0.650   1.867   8.508  0.8747  0.7961 -0.0563
   48CHL1    C3 5959   1.172   3.002  10.258 -0.0886  0.3834 -0.0985
   48CHL1    H3 5960   1.164   3.105  10.219  0.0386  0.4900  0.1560
   48CHL1    O3 5961   1.142   3.010  10.401  0.1712  0.0174  0.0171
   48CHL1   H3' 5962   1.135   2.917  10.425  1.8606 -0.4101 -1.0359
   48CHL1    C4 5963   1.078   2.893  10.196 -0.1118  0.4353  0.2311
   48CHL1   H4A 5964   1.098   2.793  10.240  2.3214  0.4119 -0.8865
   48CHL1   H4B 5965   0.968   2.909  10.209 -0.3996 -0.0707 -1.5193
   48CHL1    C5 5966   1.108   2.883  10.046  0.3565 -0.0764  0.5846
   48CHL1    C6 5967   1.012   2.911   9.961  0.2388 -0.2076  0.7256
   48CHL1    H6 5968   0.914   2.951   9.992 -1.0639 -1.7264 -1.2746
   48CHL1    C7 5969   1.023   2.921   9.811  0.0874  0.5768  0.5039
   48CHL1   H7A 5970   0.941   2.857   9.772 -0.0486  0.8616  0.3269
   48CHL1   H7B 5971   1.012   3.021   9.766 -0.8592 -0.0894 -0.7780
   48CHL1    C8 5972   1.154   2.844   9.771  0.1067  0.3492 -0.0926
   48CHL1    H8 5973   1.145   2.735   9.787 -0.9965 -0.1772 -3.7438
   48CHL1   C14 5974   1.177   2.871   9.628 -0.4335  0.1928  0.4779
   48CHL1   H14 5975   1.201   2.980   9.629  1.7413 -0.2786  3.3461
   48CHL1   C15 5976   1.053   2.849   9.533 -1.3742  0.9346 -1.2049
   48CHL1  H15A 5977   1.009   2.750   9.553 -0.9301  1.0283  0.2841
   48CHL1  H15B 5978   0.989   2.940   9.537 -0.6370  1.4308 -0.3741
   48CHL1   C16 5979   1.120   2.838   9.395 -0.2035  0.0427 -0.3096
   48CHL1  H16A 5980   1.083   2.758   9.327 -1.6865 -0.3471  0.9330
   48CHL1  H16B 5981   1.103   2.925   9.328 -0.8480  1.2271  1.3899
   48CHL1   C17 5982   1.278   2.835   9.413 -0.1730  0.1379  0.1032
   48CHL1   H17 5983   1.296   2.944   9.398 -1.0675  0.3094  0.2344
   48CHL1   C13 5984   1.291   2.800   9.559  0.4178  0.4112 -0.1733
   48CHL1   C18 5985   1.270   2.641   9.566 -0.4933  0.0134 -0.4075
   48CHL1  H18A 5986   1.181   2.596   9.518 -1.8623  0.9917  1.1437
   48CHL1  H18B 5987   1.369   2.598   9.539  0.9740  1.2031  2.8481
   48CHL1  H18C 5988   1.263   2.623   9.676  0.4610  1.5412 -0.0804
   48CHL1   C12 5989   1.417   2.848   9.636  0.3667 -0.4634 -0.3984
   48CHL1  H12A 5990   1.504   2.785   9.607  0.7444 -0.5551  0.9008
   48CHL1  H12B 5991   1.438   2.954   9.613 -2.0797  0.2647  0.5755
   48CHL1   C11 5992   1.408   2.827   9.796 -0.2110 -0.1242  0.0445
   48CHL1  H11A 5993   1.427   2.719   9.816  3.8955  0.3292 -0.8456
   48CHL1  H11B 5994   1.489   2.879   9.850 -0.9078 -0.7276  1.6879
   48CHL1    C9 5995   1.281   2.884   9.852 -0.0859  0.0993  0.6832
   48CHL1    H9 5996   1.289   2.992   9.832  1.6406 -0.4040 -1.5198
   48CHL1   C10 5997   1.251   2.864  10.008 -1.2170  0.5041  0.0399
   48CHL1   C19 5998   1.290   2.722  10.049  0.2802  0.0159 -0.2300
   48CHL1  H19A 5999   1.283   2.708  10.159  0.4766  2.2147  0.0792
   48CHL1  H19B 6000   1.222   2.646  10.005  0.1270 -0.0964  0.2006
   48CHL1  H19C 6001   1.397   2.699  10.029 -0.1740 -0.6799 -1.9747
   48CHL1    C1 6002   1.349   2.960  10.077  0.2752  0.1693  0.1793
   48CHL1   H1A 6003   1.455   2.933  10.057 -0.2113  0.2496 -2.7421
   48CHL1   H1B 6004   1.336   3.062  10.033 -0.0017 -0.8409 -2.1707
   48CHL1    C2 6005   1.318   2.967  10.228 -0.5163  0.4534 -0.3492
   48CHL1   H2A 6006   1.378   3.047  10.276 -0.7320  0.7271 -0.5347
   48CHL1   H2B 6007   1.340   2.869  10.275 -0.8501  1.5138  2.0734
   48CHL1   C20 6008   1.353   2.754   9.305  0.3835  0.4258  0.2413
   48CHL1   H20 6009   1.322   2.648   9.318 -2.6765  1.5735  3.1198
   48CHL1   C21 6010   1.508   2.773   9.318 -0.3109  0.9930  0.5154
   48CHL1  H21A 6011   1.544   2.725   9.224 -0.3606 -1.2526  1.6068
   48CHL1  H21B 6012   1.552   2.715   9.402 -1.4982 -1.0414 -0.2057
   48CHL1  H21C 6013   1.540   2.878   9.331  0.0296  0.6136  3.1240
   48CHL1   C22 6014   1.313   2.793   9.167 -0.7037  0.8179 -0.6014
   48CHL1  H22A 6015   1.203   2.807   9.166 -0.7396  0.5308 -0.8872
   48CHL1  H22B 6016   1.361   2.887   9.133  1.0583 -0.2466 -1.0992
   48CHL1   C23 6017   1.333   2.691   9.056 -0.7133  0.2192  0.0925
   48CHL1  H23A 6018   1.440   2.676   9.032 -1.1298  1.1461 -2.4522
   48CHL1  H23B 6019   1.290   2.596   9.096  3.9893 -1.0939  2.4008
   48CHL1   C24 6020   1.266   2.713   8.916  0.0900  0.0430 -0.3278
   48CHL1  H24A 6021   1.165   2.670   8.930  0.7367 -2.3207 -2.4655
   48CHL1  H24B 6022   1.272   2.822   8.895  3.8368  0.4320  2.1620
   48CHL1   C25 6023   1.329   2.633   8.798 -0.3040  0.7024 -0.4821
   48CHL1   H25 6024   1.435   2.662   8.786  0.1973 -0.8877 -0.0722
   48CHL1   C26 6025   1.320   2.482   8.822 -0.2830  0.2465  0.0623
   48CHL1  H26A 6026   1.395   2.439   8.892  1.5899 -0.8357 -2.5208
   48CHL1  H26B 6027   1.220   2.451   8.859  0.0785 -2.2808 -0.9805
   48CHL1  H26C 6028   1.336   2.420   8.731 -0.3336  1.8596 -1.0775
   48CHL1   C27 6029   1.251   2.664   8.670 -0.4340  0.3415 -0.7839
   48CHL1  H27A 6030   1.312   2.621   8.588 -1.7149 -2.0183 -0.5303
   48CHL1  H27B 6031   1.156   2.607   8.677  0.0721 -0.5644 -1.3506
   48CHL1  H27C 6032   1.238   2.774   8.655 -2.4103  0.1316 -0.6436
   49CHL1    C3 6033   5.939   4.759  10.052 -0.6450  0.3311  0.9684
   49CHL1    H3 6034   5.906   4.653  10.058  3.0976 -0.8547  1.8439
   49CHL1    O3 6035   5.978   4.804  10.182 -0.1754  0.1732  0.1353
   49CHL1   H3' 6036   6.005   4.896  10.183 -0.2221  0.1932  1.7286
   49CHL1    C4 6037   6.063   4.767   9.962  0.9590  0.2335 -1.1158
   49CHL1   H4A 6038   6.105   4.870   9.964 -1.1670  1.1050 -0.6275
   49CHL1   H4B 6039   6.130   4.687  10.000  0.7602  0.8266  0.5226
   49CHL1    C5 6040   6.032   4.737   9.816 -0.1540  0.6464 -0.0428
   49CHL1    C6 6041   6.101   4.636   9.759  0.4376  0.9310  0.1628
   49CHL1    H6 6042   6.178   4.586   9.820 -2.4288 -0.8814  2.4149
   49CHL1    C7 6043   6.076   4.587   9.617 -0.4307 -0.5436 -0.2726
   49CHL1   H7A 6044   6.179   4.582   9.576  0.5238 -0.0984  1.9677
   49CHL1   H7B 6045   6.037   4.485   9.600  0.9522 -1.1604  0.2668
   49CHL1    C8 6046   5.983   4.688   9.528  0.2261  0.3910 -0.3891
   49CHL1    H8 6047   6.041   4.783   9.516 -1.3945  1.3347 -0.8188
   49CHL1   C14 6048   5.939   4.625   9.396 -0.2982  0.1023 -0.6509
   49CHL1   H14 6049   5.881   4.535   9.426  0.9768 -0.2860  0.7423
   49CHL1   C15 6050   6.049   4.578   9.296 -0.4233  0.4123  0.7237
   49CHL1  H15A 6051   6.143   4.635   9.311 -1.1581  1.7461  0.2606
   49CHL1  H15B 6052   6.089   4.476   9.319 -0.6823  0.0689 -0.3243
   49CHL1   C16 6053   5.999   4.591   9.154 -0.1405 -0.0503  0.5733
   49CHL1  H16A 6054   6.063   4.665   9.102 -1.9506  1.3430  0.2433
   49CHL1  H16B 6055   5.987   4.492   9.105 -0.2789  0.6245 -0.7639
   49CHL1   C17 6056   5.854   4.642   9.183  0.1597  0.5788  0.3140
   49CHL1   H17 6057   5.796   4.548   9.191 -1.2400  0.8487 -4.5893
   49CHL1   C13 6058   5.856   4.715   9.318  0.0753  0.0133  0.4395
   49CHL1   C18 6059   5.932   4.855   9.292  0.1174 -0.3100 -0.7983
   49CHL1  H18A 6060   5.863   4.922   9.236 -0.6550 -0.3194  0.1261
   49CHL1  H18B 6061   5.957   4.911   9.384  0.7750 -1.9658  0.0602
   49CHL1  H18C 6062   6.029   4.844   9.239  1.2966  0.9834  1.0594
   49CHL1   C12 6063   5.720   4.745   9.397  0.0971  0.5987 -0.2455
   49CHL1  H12A 6064   5.657   4.814   9.337 -1.0400 -0.4718 -0.2999
   49CHL1  H12B 6065   5.660   4.652   9.402  2.4731 -0.8944  1.6855
   49CHL1   C11 6066   5.751   4.811   9.536  0.3764 -0.6905 -0.1994
   49CHL1  H11A 6067   5.777   4.917   9.517 -1.1660 -0.2847 -0.1115
   49CHL1  H11B 6068   5.658   4.810   9.597  1.3060 -2.0604  1.2318
   49CHL1    C9 6069   5.865   4.738   9.616 -0.3443  0.0971  0.1109
   49CHL1    H9 6070   5.818   4.641   9.643  1.9818 -1.0018  0.3949
   49CHL1   C10 6071   5.910   4.807   9.748 -0.0985  0.9025  0.0684
   49CHL1   C19 6072   5.965   4.946   9.718 -0.2963 -0.2539  0.1497
   49CHL1  H19A 6073   6.044   4.952   9.640 -1.9821  3.3839 -1.3898
   49CHL1  H19B 6074   5.892   5.020   9.681 -0.9659 -1.1548 -0.3498
   49CHL1  H19C 6075   5.991   4.994   9.815 -1.0834  0.9697 -0.2350
   49CHL1    C1 6076   5.786   4.807   9.844 -0.1129  0.3945  0.4172
   49CHL1   H1A 6077   5.695   4.860   9.809  0.9514  0.7790 -1.8662
   49CHL1   H1B 6078   5.758   4.701   9.861 -1.3795  0.9639  2.0874
   49CHL1    C2 6079   5.831   4.851   9.990  0.3675  0.0799  0.2549
   49CHL1   H2A 6080   5.742   4.856  10.057 -0.8810 -3.8518 -0.9784
   49CHL1   H2B 6081   5.860   4.958   9.990 -2.0747  0.7750  0.2174
   49CHL1   C20 6082   5.768   4.705   9.068 -0.3387  0.3201  0.2561
   49CHL1   H20 6083   5.774   4.816   9.065 -0.9479  0.3477 -0.1123
   49CHL1   C21 6084   5.622   4.652   9.072 -0.2901 -0.2743  0.2533
   49CHL1  H21A 6085   5.574   4.669   9.171 -0.0829  1.2188  0.1049
   49CHL1  H21B 6086   5.613   4.543   9.049 -2.0976  0.0676 -0.8030
   49CHL1  H21C 6087   5.564   4.710   8.997  0.4886 -0.0279 -0.1630
   49CHL1   C22 6088   5.834   4.678   8.932 -0.0832  0.6721  0.6238
   49CHL1  H22A 6089   5.940   4.712   8.933  0.8208 -2.0345  2.2021
   49CHL1  H22B 6090   5.835   4.569   8.914 -2.1679  0.7705 -0.1762
   49CHL1   C23 6091   5.778   4.748   8.812  0.1070  0.3175 -0.3237
   49CHL1  H23A 6092   5.668   4.735   8.803 -0.0212  0.1346  1.2172
   49CHL1  H23B 6093   5.802   4.853   8.838  0.3868  0.6323 -1.8258
   49CHL1   C24 6094   5.847   4.717   8.680 -0.2316  0.1832  0.1350
   49CHL1  H24A 6095   5.956   4.698   8.689  0.3008  2.6414 -0.7870
   49CHL1  H24B 6096   5.797   4.625   8.644  0.5548 -0.4374  0.6128
   49CHL1   C25 6097   5.832   4.840   8.588 -0.9318  0.5374 -0.1423
   49CHL1   H25 6098   5.904   4.917   8.621  1.8447 -2.4681  1.1108
   49CHL1   C26 6099   5.885   4.796   8.449  0.0868 -0.0965 -0.1985
   49CHL1  H26A 6100   5.889   4.888   8.385  0.7971 -0.8571 -1.2605
   49CHL1  H26B 6101   5.991   4.767   8.467  0.8689  2.5539 -0.2752
   49CHL1  H26C 6102   5.818   4.720   8.404 -0.2537  0.0927 -0.0132
   49CHL1   C27 6103   5.689   4.898   8.589  0.6819  0.9275 -0.1292
   49CHL1  H27A 6104   5.671   4.939   8.690  1.5571  0.4715  0.2114
   49CHL1  H27B 6105   5.687   4.986   8.520  2.4028  0.2911 -1.0264
   49CHL1  H27C 6106   5.601   4.833   8.570  1.4281 -0.2614  0.4568
   50CHL1    C3 6107   2.420   0.191  10.203  0.3417  0.0209 -0.9841
   50CHL1    H3 6108   2.316   0.220  10.177 -0.4230 -1.7261  0.0579
   50CHL1    O3 6109   2.432   0.154  10.340  0.1297 -0.7534 -0.1171
   50CHL1   H3' 6110   2.352   0.107  10.366 -0.1730  0.2560  0.8148
   50CHL1    C4 6111   2.454   0.059  10.127 -0.3976  0.6758 -0.2428
   50CHL1   H4A 6112   2.543   0.013  10.175 -0.2708 -0.8018 -1.8469
   50CHL1   H4B 6113   2.376  -0.012  10.159  1.1635 -1.8309 -1.8609
   50CHL1    C5 6114   2.469   0.068   9.976  0.3552  0.6121  0.2420
   50CHL1    C6 6115   2.410  -0.008   9.885 -0.1139  0.6499 -0.3558
   50CHL1    H6 6116   2.360  -0.101   9.917  0.0200  0.2412 -1.3044
   50CHL1    C7 6117   2.419   0.002   9.733  0.9284 -0.3017  0.0470
   50CHL1   H7A 6118   2.439  -0.094   9.682 -0.8598  0.1952 -1.6401
   50CHL1   H7B 6119   2.311   0.016   9.710  0.5977 -1.7945  0.6011
   50CHL1    C8 6120   2.524   0.103   9.688  0.2158 -0.3639  0.2521
   50CHL1    H8 6121   2.620   0.054   9.715 -0.6570 -1.4259  1.4530
   50CHL1   C14 6122   2.520   0.140   9.542 -0.5302  0.1397  0.5552
   50CHL1   H14 6123   2.426   0.196   9.523 -0.3385  0.1811 -0.3040
   50CHL1   C15 6124   2.521   0.019   9.445 -0.7499  0.6968 -0.3778
   50CHL1  H15A 6125   2.590  -0.063   9.473 -2.0365  0.4839  2.2874
   50CHL1  H15B 6126   2.422  -0.031   9.437  0.2733 -2.5708  5.0078
   50CHL1   C16 6127   2.558   0.074   9.305  0.1757 -0.4425 -0.1557
   50CHL1  H16A 6128   2.642   0.009   9.270  0.1441  0.0546 -1.1512
   50CHL1  H16B 6129   2.474   0.069   9.233 -0.8600 -0.2683  1.0256
   50CHL1   C17 6130   2.605   0.220   9.334 -0.2192 -0.6815 -0.3038
   50CHL1   H17 6131   2.519   0.289   9.326  1.5743  1.8428  1.1690
   50CHL1   C13 6132   2.630   0.227   9.493 -0.0280  0.5538  0.1606
   50CHL1   C18 6133   2.769   0.167   9.520  0.3412  0.0610  0.8346
   50CHL1  H18A 6134   2.777   0.066   9.474 -1.4482 -0.5519  1.8009
   50CHL1  H18B 6135   2.853   0.219   9.469 -0.4646 -0.6213 -1.2366
   50CHL1  H18C 6136   2.793   0.160   9.629 -0.8254 -1.1218  1.0377
   50CHL1   C12 6137   2.624   0.352   9.569 -0.1848 -0.6456 -0.7670
   50CHL1  H12A 6138   2.710   0.416   9.538 -2.1181  2.6167  0.4075
   50CHL1  H12B 6139   2.529   0.401   9.539  0.3003  0.2346 -0.8873
   50CHL1   C11 6140   2.624   0.332   9.720  0.5038  0.1450 -0.4762
   50CHL1  H11A 6141   2.733   0.330   9.741  0.1942  1.4732  1.3663
   50CHL1  H11B 6142   2.595   0.431   9.761  0.6331 -0.2835  0.6636
   50CHL1    C9 6143   2.519   0.229   9.779  0.3707 -0.6022 -0.6094
   50CHL1    H9 6144   2.417   0.273   9.780  0.4148 -0.5090 -0.3519
   50CHL1   C10 6145   2.547   0.200   9.934  0.2433  0.8678  0.7566
   50CHL1   C19 6146   2.701   0.153   9.952  0.6217 -0.0365 -0.1223
   50CHL1  H19A 6147   2.773   0.233   9.925  0.8124 -1.2921 -3.5868
   50CHL1  H19B 6148   2.725   0.129  10.058 -0.3152  0.0191  0.1073
   50CHL1  H19C 6149   2.728   0.069   9.884 -0.4316 -2.9165  2.8970
   50CHL1    C1 6150   2.513   0.321  10.014 -0.6613 -0.2164  0.5623
   50CHL1   H1A 6151   2.571   0.410   9.982 -1.2899  0.2464  0.6882
   50CHL1   H1B 6152   2.407   0.350   9.996 -0.6144 -0.3623  0.0424
   50CHL1    C2 6153   2.515   0.303  10.168  0.3691  0.2111  0.0327
   50CHL1   H2A 6154   2.494   0.397  10.223  0.2236 -0.1850  0.6536
   50CHL1   H2B 6155   2.617   0.277  10.202  0.7478 -0.0258 -1.2464
   50CHL1   C20 6156   2.710   0.272   9.241  0.0859  0.6084  0.2736
   50CHL1   H20 6157   2.799   0.210   9.264 -0.5737  0.3558  2.2818
   50CHL1   C21 6158   2.741   0.424   9.268  0.6864  1.0122  0.3176
   50CHL1  H21A 6159   2.809   0.432   9.356  1.4284  0.2297 -0.1771
   50CHL1  H21B 6160   2.648   0.484   9.278 -1.2221 -1.8646  0.4553
   50CHL1  H21C 6161   2.791   0.461   9.176  1.5401 -1.0781 -0.0771
   50CHL1   C22 6162   2.667   0.249   9.093 -0.3930 -0.5969 -0.3690
   50CHL1  H22A 6163   2.608   0.156   9.080 -0.7938 -0.4925  0.6333
   50CHL1  H22B 6164   2.597   0.328   9.056 -0.8716 -1.0236 -0.3760
   50CHL1   C23 6165   2.787   0.232   8.988  0.0508  0.0446 -0.0245
   50CHL1  H23A 6166   2.834   0.331   8.969 -0.4334  0.1509 -0.7148
   50CHL1  H23B 6167   2.850   0.164   9.047 -1.5045 -1.4518 -0.0642
   50CHL1   C24 6168   2.753   0.174   8.849 -0.0488 -0.4390  0.4736
   50CHL1  H24A 6169   2.675   0.095   8.858 -0.4760 -0.0506  0.2131
   50CHL1  H24B 6170   2.700   0.247   8.785 -2.2856 -2.8282 -0.5169
   50CHL1   C25 6171   2.872   0.126   8.770  0.4348 -0.0890  0.3172
   50CHL1   H25 6172   2.909   0.042   8.833 -0.1323  0.0021  0.7753
   50CHL1   C26 6173   2.835   0.065   8.634 -0.4201  0.2739  0.3481
   50CHL1  H26A 6174   2.807   0.143   8.560  0.9067 -0.9033 -1.4045
   50CHL1  H26B 6175   2.928   0.016   8.600  0.6328  1.0118  2.0875
   50CHL1  H26C 6176   2.758  -0.015   8.642  0.6427 -0.6439  1.6778
   50CHL1   C27 6177   2.991   0.221   8.744 -0.1818  0.4761 -0.2626
   50CHL1  H27A 6178   3.028   0.268   8.837 -0.5792 -1.1654  0.7398
   50CHL1  H27B 6179   3.076   0.168   8.698  0.4855  1.3532 -0.0523
   50CHL1  H27C 6180   2.955   0.305   8.680  1.3312 -1.1277 -3.3184
   51CHL1    C3 6181   4.203   3.244  10.086  1.0271 -0.6776 -0.0942
   51CHL1    H3 6182   4.268   3.326  10.048  1.4476 -1.2280 -0.5962
   51CHL1    O3 6183   4.198   3.260  10.227 -0.1368  0.0083 -0.0059
   51CHL1   H3' 6184   4.146   3.341  10.228 -0.3480 -0.1220 -0.4666
   51CHL1    C4 6185   4.063   3.253  10.020 -0.4581  0.3367 -0.5189
   51CHL1   H4A 6186   4.008   3.177  10.079  1.7520 -1.4122 -0.6288
   51CHL1   H4B 6187   4.021   3.353  10.043 -0.8703  0.0803 -0.1550
   51CHL1    C5 6188   4.063   3.227   9.869  0.4202 -0.4148  0.0951
   51CHL1    C6 6189   4.022   3.326   9.789 -0.2486 -0.3829 -0.3121
   51CHL1    H6 6190   3.977   3.417   9.831 -0.3185 -0.9229  0.8085
   51CHL1    C7 6191   4.020   3.314   9.639  0.6806  0.4717 -0.3608
   51CHL1   H7A 6192   3.922   3.345   9.598  1.6746  2.3184 -1.3850
   51CHL1   H7B 6193   4.099   3.383   9.602  1.0740  0.7808  1.0393
   51CHL1    C8 6194   4.062   3.175   9.579 -0.0756 -0.4702  0.0589
   51CHL1    H8 6195   3.975   3.107   9.580 -2.2116  2.1577  0.7585
   51CHL1   C14 6196   4.125   3.180   9.441  0.3065  0.8248  0.0294
   51CHL1   H14 6197   4.220   3.237   9.440  0.3820  0.6863 -1.0419
   51CHL1   C15 6198   4.042   3.264   9.333 -0.4139  0.0173  0.3310
   51CHL1  H15A 6199   3.936   3.232   9.329  0.0740 -1.5022 -0.7722
   51CHL1  H15B 6200   4.059   3.372   9.352 -0.5613 -0.2255  1.8906
   51CHL1   C16 6201   4.110   3.218   9.199 -0.3978  0.2932 -0.8072
   51CHL1  H16A 6202   4.028   3.173   9.139  1.3265 -2.5230 -1.1579
   51CHL1  H16B 6203   4.160   3.302   9.148  0.0042  0.1631 -0.6296
   51CHL1   C17 6204   4.203   3.100   9.237 -0.3558 -0.2828 -0.5538
   51CHL1   H17 6205   4.301   3.151   9.249 -0.0079 -0.6586 -1.6825
   51CHL1   C13 6206   4.155   3.053   9.374  0.1222 -0.6333  0.8587
   51CHL1   C18 6207   4.034   2.956   9.374  0.3960 -0.3047 -0.1658
   51CHL1  H18A 6208   4.003   2.920   9.474  1.4530 -1.4763 -0.2501
   51CHL1  H18B 6209   3.944   3.002   9.327  0.5657 -0.2899 -0.4778
   51CHL1  H18C 6210   4.056   2.870   9.307 -0.2276 -0.9269  0.4282
   51CHL1   C12 6211   4.265   2.987   9.461 -0.0945  0.3837 -0.2540
   51CHL1  H12A 6212   4.272   2.880   9.434 -1.1818  0.0449  0.7763
   51CHL1  H12B 6213   4.364   3.038   9.460 -1.2069  2.7261  2.5984
   51CHL1   C11 6214   4.229   2.980   9.612 -0.5239  0.4285 -0.0368
   51CHL1  H11A 6215   4.171   2.887   9.628 -0.2785  0.5950  1.9581
   51CHL1  H11B 6216   4.324   2.957   9.664 -1.0687 -0.8151  0.4248
   51CHL1    C9 6217   4.167   3.110   9.674 -0.0938  0.2523  0.3676
   51CHL1    H9 6218   4.246   3.188   9.667 -0.7825  1.0750  1.5395
   51CHL1   C10 6219   4.132   3.105   9.823  0.0088  0.4442  0.4860
   51CHL1   C19 6220   4.016   3.007   9.845  0.7393  0.5932  0.1959
   51CHL1  H19A 6221   3.941   3.017   9.764 -1.4855  1.9781  2.3672
   51CHL1  H19B 6222   4.049   2.901   9.832  0.7766  0.8596 -2.1214
   51CHL1  H19C 6223   3.956   3.010   9.938  0.7316 -0.4262  0.2340
   51CHL1    C1 6224   4.265   3.076   9.906  0.5090  0.2169 -0.3653
   51CHL1   H1A 6225   4.293   2.972   9.882  2.9616  1.1127 -1.5629
   51CHL1   H1B 6226   4.344   3.147   9.872  0.3315  0.4522 -0.2798
   51CHL1    C2 6227   4.255   3.097  10.055 -0.3665  0.0538 -0.1929
   51CHL1   H2A 6228   4.352   3.096  10.110 -0.9859  3.7633  1.1609
   51CHL1   H2B 6229   4.183   3.022  10.094  0.1505 -0.2556  0.1634
   51CHL1   C20 6230   4.233   2.996   9.125 -0.5272 -0.2608  0.7381
   51CHL1   H20 6231   4.146   2.928   9.114  1.7157 -3.2572  1.0013
   51CHL1   C21 6232   4.363   2.921   9.152  0.1834 -0.6088  0.0767
   51CHL1  H21A 6233   4.375   2.837   9.080  1.3235  0.3932 -0.9184
   51CHL1  H21B 6234   4.346   2.870   9.250  0.3714 -0.9144 -0.0463
   51CHL1  H21C 6235   4.449   2.991   9.159  1.3392 -1.9940  0.1425
   51CHL1   C22 6236   4.231   3.056   8.980  0.1583  0.2070  0.7467
   51CHL1  H22A 6237   4.125   3.075   8.953  0.2125  0.6707  0.8470
   51CHL1  H22B 6238   4.294   3.147   8.971  0.4402 -0.1424 -1.0875
   51CHL1   C23 6239   4.293   2.964   8.863  0.1347  0.2594 -0.4489
   51CHL1  H23A 6240   4.404   2.963   8.867  0.0805  0.2971  1.3185
   51CHL1  H23B 6241   4.256   2.859   8.869 -0.9867  0.6143 -0.9895
   51CHL1   C24 6242   4.248   3.002   8.720 -0.1518 -1.0615  0.0131
   51CHL1  H24A 6243   4.302   2.939   8.646  1.2479 -0.7100  0.7040
   51CHL1  H24B 6244   4.140   2.979   8.719 -0.3243 -0.3443  1.1708
   51CHL1   C25 6245   4.271   3.151   8.688 -0.1666 -0.7565  0.1419
   51CHL1   H25 6246   4.223   3.214   8.766 -0.2989  0.6385 -1.0507
   51CHL1   C26 6247   4.423   3.197   8.694  0.5302  0.1151 -0.4346
   51CHL1  H26A 6248   4.457   3.202   8.800  0.4878  1.1139 -0.4592
   51CHL1  H26B 6249   4.491   3.131   8.636  1.1833  1.1591 -0.8861
   51CHL1  H26C 6250   4.425   3.298   8.649  0.8286 -0.0348 -0.7613
   51CHL1   C27 6251   4.221   3.194   8.551 -0.3260 -0.0965 -0.2131
   51CHL1  H27A 6252   4.254   3.297   8.528  0.6070 -0.1405  0.8736
   51CHL1  H27B 6253   4.272   3.127   8.480  1.1834 -2.0495  2.6034
   51CHL1  H27C 6254   4.111   3.183   8.539 -0.5447  1.3389  0.3766
   52CHL1    C3 6255   0.537   1.479  10.109  0.3150  0.4148 -0.2542
   52CHL1    H3 6256   0.598   1.569  10.087 -1.0346  0.9980 -1.7264
   52CHL1    O3 6257   0.490   1.494  10.245  0.0534 -0.2489 -0.3337
   52CHL1   H3' 6258   0.553   1.453  10.304 -0.2255 -1.7006 -1.0386
   52CHL1    C4 6259   0.409   1.466  10.021  0.2212 -0.2805  0.2946
   52CHL1   H4A 6260   0.353   1.377  10.057  2.4283 -2.0064 -0.4768
   52CHL1   H4B 6261   0.356   1.561  10.047  2.3431  0.3641  2.4945
   52CHL1    C5 6262   0.449   1.458   9.876  0.1548 -0.1288 -0.1813
   52CHL1    C6 6263   0.397   1.542   9.786  0.8134 -0.7665 -0.2775
   52CHL1    H6 6264   0.325   1.621   9.812 -0.0461 -0.9350 -2.0537
   52CHL1    C7 6265   0.405   1.512   9.636  0.2638 -0.4479 -0.0503
   52CHL1   H7A 6266   0.310   1.523   9.580 -0.2888 -2.8926  0.3504
   52CHL1   H7B 6267   0.485   1.577   9.596 -0.0006  0.4577  0.8922
   52CHL1    C8 6268   0.459   1.371   9.616  0.0051 -0.0909  0.1810
   52CHL1    H8 6269   0.374   1.306   9.645 -0.9353  1.2854  0.5714
   52CHL1   C14 6270   0.492   1.354   9.469 -0.4184 -0.6613  0.5331
   52CHL1   H14 6271   0.574   1.428   9.460 -2.1275  1.1423 -0.7635
   52CHL1   C15 6272   0.388   1.399   9.369  0.8750 -0.0153  0.3423
   52CHL1  H15A 6273   0.292   1.360   9.410  0.7156 -0.4844 -0.4580
   52CHL1  H15B 6274   0.380   1.508   9.349  1.8385 -0.2351 -1.2683
   52CHL1   C16 6275   0.425   1.318   9.240  0.0704  0.4639 -0.1269
   52CHL1  H16A 6276   0.339   1.257   9.207  0.7936  0.2729 -1.7210
   52CHL1  H16B 6277   0.447   1.382   9.152  3.6461  0.4336  0.6489
   52CHL1   C17 6278   0.548   1.230   9.271  0.3184  0.2614 -0.0729
   52CHL1   H17 6279   0.630   1.296   9.235  0.4271 -0.3513 -0.9557
   52CHL1   C13 6280   0.545   1.217   9.423  0.4495  0.5328 -0.3530
   52CHL1   C18 6281   0.444   1.111   9.455  0.6309 -1.2318  0.0834
   52CHL1  H18A 6282   0.469   1.005   9.434  2.6701 -0.4258 -1.6617
   52CHL1  H18B 6283   0.429   1.119   9.565 -1.1716 -1.1613 -0.1481
   52CHL1  H18C 6284   0.345   1.135   9.410  0.3392  0.1086  1.3933
   52CHL1   C12 6285   0.680   1.197   9.505 -0.1956 -0.0026  0.3516
   52CHL1  H12A 6286   0.708   1.094   9.471  3.3186  0.8621  0.4678
   52CHL1  H12B 6287   0.761   1.263   9.466  1.0216 -1.5335  0.2191
   52CHL1   C11 6288   0.664   1.218   9.653  0.2126 -0.2757 -0.0592
   52CHL1  H11A 6289   0.613   1.129   9.694 -0.6205  0.7606  1.1845
   52CHL1  H11B 6290   0.765   1.229   9.698  1.0631 -0.1339 -1.9335
   52CHL1    C9 6291   0.579   1.342   9.696  0.0350  0.5802 -0.2891
   52CHL1    H9 6292   0.647   1.428   9.677  0.2241  0.4833 -0.0540
   52CHL1   C10 6293   0.543   1.344   9.848  0.2887 -0.0518 -0.5865
   52CHL1   C19 6294   0.474   1.209   9.885 -0.7455  0.3959  0.0425
   52CHL1  H19A 6295   0.412   1.169   9.802  3.0195 -2.5052 -1.5046
   52CHL1  H19B 6296   0.554   1.136   9.912  0.8202  2.2169  0.4014
   52CHL1  H19C 6297   0.410   1.223   9.975  1.1022  1.2298  1.2464
   52CHL1    C1 6298   0.664   1.355   9.946 -0.7700  0.1838  0.4591
   52CHL1   H1A 6299   0.741   1.276   9.933  0.3106  1.1400  0.9765
   52CHL1   H1B 6300   0.714   1.450   9.915  2.3042 -2.1430 -2.0246
   52CHL1    C2 6301   0.625   1.356  10.092  0.0590  0.4342 -0.3546
   52CHL1   H2A 6302   0.711   1.358  10.163 -0.2136 -1.2326  0.0385
   52CHL1   H2B 6303   0.569   1.263  10.114  1.2201 -0.0899  0.4335
   52CHL1   C20 6304   0.551   1.106   9.179  0.4966 -0.9817  0.0050
   52CHL1   H20 6305   0.452   1.055   9.182 -1.0722  1.6031 -3.9646
   52CHL1   C21 6306   0.660   1.011   9.215 -0.0691  0.2340 -0.1677
   52CHL1  H21A 6307   0.653   0.931   9.139  0.0857  1.5326 -1.5810
   52CHL1  H21B 6308   0.640   0.969   9.316 -2.3199  1.2985 -0.1390
   52CHL1  H21C 6309   0.755   1.068   9.220  0.1931 -0.2480  0.3729
   52CHL1   C22 6310   0.553   1.144   9.032  0.1897  0.4879 -0.7229
   52CHL1  H22A 6311   0.562   1.057   8.965  0.1301 -0.7676  0.8626
   52CHL1  H22B 6312   0.457   1.194   9.006 -1.1282 -2.2376 -1.2144
   52CHL1   C23 6313   0.673   1.230   8.992  0.0320  0.5331  0.1116
   52CHL1  H23A 6314   0.647   1.333   9.025  0.2082  0.2044  1.2983
   52CHL1  H23B 6315   0.768   1.195   9.038 -0.3250  0.9537  1.1843
   52CHL1   C24 6316   0.692   1.237   8.832  0.2614 -0.0811 -0.1800
   52CHL1  H24A 6317   0.741   1.140   8.807 -2.3428 -2.0153  1.8927
   52CHL1  H24B 6318   0.593   1.242   8.783  0.4843  2.0235 -0.4456
   52CHL1   C25 6319   0.781   1.344   8.772 -0.4711 -0.6885  0.4301
   52CHL1   H25 6320   0.747   1.437   8.822 -2.9361 -2.4416  2.2124
   52CHL1   C26 6321   0.929   1.334   8.806 -1.7309  0.3607  0.6297
   52CHL1  H26A 6322   0.945   1.329   8.916 -2.1734  1.3944  0.7495
   52CHL1  H26B 6323   0.978   1.246   8.760  1.8425  4.0196 -2.9423
   52CHL1  H26C 6324   0.973   1.418   8.749 -0.5343 -0.9676 -0.4609
   52CHL1   C27 6325   0.775   1.352   8.617  0.2664  0.3442 -0.9739
   52CHL1  H27A 6326   0.787   1.250   8.575  0.7110  0.2499 -0.6098
   52CHL1  H27B 6327   0.671   1.376   8.586 -1.1008 -1.1607  2.2766
   52CHL1  H27C 6328   0.849   1.426   8.578 -0.4370  1.7641  0.3166
   53CHL1    C3 6329   1.395   1.107  10.216 -1.5528 -0.1612 -0.2761
   53CHL1    H3 6330   1.336   1.194  10.179 -0.0949  2.1005  2.5156
   53CHL1    O3 6331   1.364   1.081  10.351 -0.2896  0.0560  0.1037
   53CHL1   H3' 6332   1.331   1.166  10.382  0.2491  1.5455 -3.2208
   53CHL1    C4 6333   1.355   0.982  10.125 -0.6279  1.1671 -0.3288
   53CHL1   H4A 6334   1.404   0.888  10.158 -0.3453  1.0818 -0.9647
   53CHL1   H4B 6335   1.247   0.958  10.133 -0.3545 -0.3178 -0.8916
   53CHL1    C5 6336   1.389   1.005   9.978  0.1094 -0.1957  0.2105
   53CHL1    C6 6337   1.301   1.003   9.874  0.5719 -0.2828  0.3354
   53CHL1    H6 6338   1.192   0.993   9.882  0.7228 -1.1008  1.6477
   53CHL1    C7 6339   1.345   0.991   9.729 -0.2342 -0.2067 -0.6423
   53CHL1   H7A 6340   1.296   0.916   9.662  0.6273 -0.4590 -0.9939
   53CHL1   H7B 6341   1.301   1.082   9.684 -0.8729 -0.2298 -0.0670
   53CHL1    C8 6342   1.495   0.992   9.711  0.1410 -0.2829  0.9466
   53CHL1    H8 6343   1.523   0.885   9.719  1.6199 -0.0757 -0.8932
   53CHL1   C14 6344   1.537   1.045   9.567 -0.4513 -0.0873 -0.0188
   53CHL1   H14 6345   1.496   1.148   9.572 -1.9054 -0.7335  1.9338
   53CHL1   C15 6346   1.474   0.983   9.440 -0.6129 -0.1563  0.9008
   53CHL1  H15A 6347   1.489   0.873   9.438 -1.3643 -0.2661  1.1211
   53CHL1  H15B 6348   1.370   1.006   9.409 -0.4920  1.6125  1.7610
   53CHL1   C16 6349   1.559   1.050   9.328  0.1074  0.0842  0.0690
   53CHL1  H16A 6350   1.581   0.977   9.248  0.0820 -1.1331  1.1528
   53CHL1  H16B 6351   1.488   1.119   9.277 -1.5800 -2.3707 -1.0217
   53CHL1   C17 6352   1.692   1.106   9.392  0.1701  0.5349  0.5270
   53CHL1   H17 6353   1.675   1.215   9.400  2.1237  1.0487 -1.7409
   53CHL1   C13 6354   1.687   1.050   9.535 -0.0520 -0.0448 -0.0343
   53CHL1   C18 6355   1.747   0.903   9.524 -0.1296 -0.5823 -0.4522
   53CHL1  H18A 6356   1.699   0.835   9.450 -0.8473 -0.2311 -0.3093
   53CHL1  H18B 6357   1.858   0.899   9.513 -0.1484  0.5244 -1.0223
   53CHL1  H18C 6358   1.717   0.849   9.617  0.2347  1.2135  0.7290
   53CHL1   C12 6359   1.764   1.137   9.643  0.2969  0.2104  0.3677
   53CHL1  H12A 6360   1.872   1.157   9.626  0.8511 -3.9783 -1.6346
   53CHL1  H12B 6361   1.725   1.242   9.636 -0.0037 -0.0161 -1.9315
   53CHL1   C11 6362   1.731   1.079   9.780 -0.6272 -0.2122 -0.3090
   53CHL1  H11A 6363   1.785   0.982   9.786  1.2557  0.8441  0.1864
   53CHL1  H11B 6364   1.773   1.143   9.861 -0.1218 -0.3412 -0.4709
   53CHL1    C9 6365   1.573   1.075   9.814  0.4098 -0.4784  0.0331
   53CHL1    H9 6366   1.542   1.181   9.798  1.5978 -0.0265  0.6651
   53CHL1   C10 6367   1.546   1.028   9.959  0.2914 -1.0362 -0.0020
   53CHL1   C19 6368   1.624   0.903   9.996  0.5761 -0.0216 -0.2773
   53CHL1  H19A 6369   1.731   0.931  10.006  0.4315  0.1917  0.7581
   53CHL1  H19B 6370   1.604   0.873  10.101 -2.0152 -0.3397 -0.8326
   53CHL1  H19C 6371   1.613   0.822   9.921 -2.3224  0.9630 -0.9586
   53CHL1    C1 6372   1.587   1.147  10.055 -0.4980 -0.7618  0.3253
   53CHL1   H1A 6373   1.698   1.142  10.053 -0.5712 -2.3636 -2.1774
   53CHL1   H1B 6374   1.560   1.240  10.002 -0.8192 -1.2777 -0.4335
   53CHL1    C2 6375   1.542   1.139  10.203  0.0708  0.5538  0.3275
   53CHL1   H2A 6376   1.573   1.230  10.258 -0.8031  1.5028 -0.7208
   53CHL1   H2B 6377   1.601   1.059  10.253  0.3493 -0.3571 -1.4264
   53CHL1   C20 6378   1.816   1.087   9.305  0.0085  0.0692  0.0957
   53CHL1   H20 6379   1.851   0.982   9.315 -2.1162 -0.5775  0.8911
   53CHL1   C21 6380   1.932   1.164   9.364 -0.5802  0.0049 -0.5019
   53CHL1  H21A 6381   1.984   1.123   9.453  0.5915 -1.2580 -1.7621
   53CHL1  H21B 6382   1.895   1.263   9.400 -1.4025 -0.6616  0.5404
   53CHL1  H21C 6383   2.020   1.169   9.298  0.3613 -2.6984  0.5016
   53CHL1   C22 6384   1.804   1.130   9.153  0.3675  0.1325  0.3079
   53CHL1  H22A 6385   1.696   1.123   9.128  0.7564 -0.5996 -1.1833
   53CHL1  H22B 6386   1.847   1.233   9.149 -0.2973  0.5313  2.4683
   53CHL1   C23 6387   1.879   1.040   9.054  0.3239 -0.3213  0.6801
   53CHL1  H23A 6388   1.983   1.040   9.094  0.4947  3.1774  0.4108
   53CHL1  H23B 6389   1.843   0.935   9.051  2.4161 -1.0957  1.4928
   53CHL1   C24 6390   1.882   1.091   8.908  0.4407  0.3565 -1.3588
   53CHL1  H24A 6391   1.782   1.131   8.879 -0.0405  0.8567  0.9315
   53CHL1  H24B 6392   1.950   1.179   8.915  0.4641  0.1602  1.1220
   53CHL1   C25 6393   1.925   0.995   8.789  0.1225  0.3790 -0.1062
   53CHL1   H25 6394   2.026   0.962   8.820 -0.3658  0.6844  1.9189
   53CHL1   C26 6395   1.826   0.874   8.785  0.1305  0.4355 -0.5239
   53CHL1  H26A 6396   1.723   0.914   8.768 -0.2580 -0.1264  0.4529
   53CHL1  H26B 6397   1.850   0.802   8.705 -2.7472 -0.0366 -1.0423
   53CHL1  H26C 6398   1.822   0.825   8.885  2.7593  0.3724 -0.4195
   53CHL1   C27 6399   1.933   1.074   8.659  0.3001 -0.1505  0.1268
   53CHL1  H27A 6400   1.839   1.118   8.620  0.9900  0.8556 -0.4273
   53CHL1  H27B 6401   1.989   1.165   8.690  0.4774  0.0412 -0.7615
   53CHL1  H27C 6402   1.987   1.014   8.583 -1.0005 -2.6595  1.1164
   54CHL1    C3 6403   1.169   2.187  10.141 -0.1203 -0.0963 -0.0468
   54CHL1    H3 6404   1.063   2.178  10.110  0.1980 -2.1368 -0.6433
   54CHL1    O3 6405   1.176   2.201  10.280 -0.7187  0.5850 -0.3158
   54CHL1   H3' 6406   1.186   2.294  10.305  1.3340  0.2011  0.3586
   54CHL1    C4 6407   1.235   2.055  10.100 -0.2469  0.3124  0.8230
   54CHL1   H4A 6408   1.336   2.039  10.142 -0.3265  1.9735  1.6640
   54CHL1   H4B 6409   1.164   1.978  10.137  0.5919 -1.1089 -0.4615
   54CHL1    C5 6410   1.258   2.035   9.950  0.4951  0.9056 -0.5241
   54CHL1    C6 6411   1.221   1.922   9.893  0.5549 -0.5952  0.0089
   54CHL1    H6 6412   1.184   1.839   9.955  0.2747 -1.2642 -1.0321
   54CHL1    C7 6413   1.261   1.889   9.751 -0.1357 -0.2798  0.2441
   54CHL1   H7A 6414   1.302   1.786   9.753 -2.0519 -1.0688  0.1800
   54CHL1   H7B 6415   1.171   1.870   9.688 -0.1982 -1.4312  0.6772
   54CHL1    C8 6416   1.349   2.000   9.687  0.5055  0.2536 -0.0410
   54CHL1    H8 6417   1.453   1.970   9.713  0.9019  1.1728 -0.5728
   54CHL1   C14 6418   1.332   1.992   9.539  0.0039 -0.4424  0.3720
   54CHL1   H14 6419   1.238   2.046   9.514  0.5435 -0.2347 -1.2622
   54CHL1   C15 6420   1.325   1.858   9.463 -0.1830 -0.2881  0.6043
   54CHL1  H15A 6421   1.410   1.791   9.488  1.8056  0.6766 -3.1488
   54CHL1  H15B 6422   1.229   1.806   9.481  1.9051 -4.2441  0.8531
   54CHL1   C16 6423   1.341   1.891   9.319  0.0556  0.0977 -0.0485
   54CHL1  H16A 6424   1.426   1.829   9.282 -0.7627 -1.6502  0.9367
   54CHL1  H16B 6425   1.256   1.863   9.254  0.7267  1.8461 -1.7223
   54CHL1   C17 6426   1.385   2.038   9.313 -0.5241 -0.4160 -0.7167
   54CHL1   H17 6427   1.291   2.097   9.314 -0.1678  0.1513 -0.4878
   54CHL1   C13 6428   1.429   2.076   9.458 -0.0945 -1.1626  0.2056
   54CHL1   C18 6429   1.578   2.029   9.469  0.3367  0.0505 -0.0795
   54CHL1  H18A 6430   1.649   2.110   9.442 -0.7720  0.7885 -0.8010
   54CHL1  H18B 6431   1.607   2.005   9.574 -1.5190 -0.0127  0.4383
   54CHL1  H18C 6432   1.593   1.934   9.413  2.0128  1.2405 -1.7251
   54CHL1   C12 6433   1.412   2.223   9.510 -0.4229  0.4514  0.0581
   54CHL1  H12A 6434   1.489   2.294   9.472  0.6649 -1.4462 -1.4481
   54CHL1  H12B 6435   1.312   2.261   9.480 -0.2639  1.1879  0.4730
   54CHL1   C11 6436   1.419   2.239   9.665  0.7265  0.3982 -0.5164
   54CHL1  H11A 6437   1.526   2.225   9.692  0.0999 -0.7330  1.4977
   54CHL1  H11B 6438   1.399   2.345   9.690  3.7803  0.6967  0.7888
   54CHL1    C9 6439   1.322   2.145   9.736  0.4607 -0.1691  0.4902
   54CHL1    H9 6440   1.217   2.173   9.708  0.3779  1.0100  1.9000
   54CHL1   C10 6441   1.320   2.166   9.885 -0.0594 -0.4087  0.4877
   54CHL1   C19 6442   1.468   2.192   9.934  0.1923  0.0726 -0.2633
   54CHL1  H19A 6443   1.538   2.114   9.896 -0.5882 -1.2297  0.9028
   54CHL1  H19B 6444   1.506   2.293   9.909 -0.9072  0.7540  0.7735
   54CHL1  H19C 6445   1.471   2.194  10.045  0.0034  2.0916 -0.2899
   54CHL1    C1 6446   1.233   2.288   9.925 -0.1570 -0.4786 -0.1538
   54CHL1   H1A 6447   1.256   2.378   9.864  2.9943  0.0550  1.7361
   54CHL1   H1B 6448   1.130   2.262   9.890  0.1907 -0.7753 -0.9571
   54CHL1    C2 6449   1.229   2.315  10.077 -0.6809  0.9754 -0.1766
   54CHL1   H2A 6450   1.161   2.396  10.110 -1.9365 -0.4263  0.7520
   54CHL1   H2B 6451   1.331   2.338  10.113 -0.4058 -0.9748  0.3337
   54CHL1   C20 6452   1.472   2.079   9.192 -0.1254  0.6397 -0.5416
   54CHL1   H20 6453   1.565   2.017   9.189  0.5101  1.3611  2.7999
   54CHL1   C21 6454   1.516   2.224   9.205 -0.1082  0.5354  0.0450
   54CHL1  H21A 6455   1.425   2.287   9.200  0.7055  2.0680  3.0449
   54CHL1  H21B 6456   1.571   2.252   9.113  0.0536  0.0382 -0.0108
   54CHL1  H21C 6457   1.579   2.248   9.294  0.0733  1.5857 -0.3550
   54CHL1   C22 6458   1.402   2.052   9.060  0.3228 -0.0621  0.0242
   54CHL1  H22A 6459   1.348   1.957   9.043  0.4373 -0.0217 -0.5758
   54CHL1  H22B 6460   1.316   2.123   9.065  1.3921  1.3055 -0.6179
   54CHL1   C23 6461   1.481   2.074   8.930  0.5455 -0.2502 -0.7941
   54CHL1  H23A 6462   1.513   2.180   8.922  0.2304 -0.0966 -0.0634
   54CHL1  H23B 6463   1.571   2.009   8.936  1.0833  0.5432 -0.1845
   54CHL1   C24 6464   1.404   2.017   8.810 -0.1763  0.0526 -0.4619
   54CHL1  H24A 6465   1.420   1.907   8.813  1.5698  0.3522  1.4643
   54CHL1  H24B 6466   1.297   2.044   8.828  0.0119  0.0282  0.7187
   54CHL1   C25 6467   1.449   2.074   8.670 -0.1869 -0.2626  0.5614
   54CHL1   H25 6468   1.442   2.185   8.672 -0.9204 -0.2599 -1.1869
   54CHL1   C26 6469   1.593   2.030   8.643  0.1533  0.3350 -0.3846
   54CHL1  H26A 6470   1.609   2.037   8.533 -0.6910 -0.2385 -0.5460
   54CHL1  H26B 6471   1.670   2.095   8.691 -0.3011 -0.6240  1.6735
   54CHL1  H26C 6472   1.611   1.924   8.670  3.0560  1.0658  0.7612
   54CHL1   C27 6473   1.357   2.011   8.564 -0.2428 -0.4324  0.3551
   54CHL1  H27A 6474   1.378   2.056   8.465  1.8886  0.2632  1.0818
   54CHL1  H27B 6475   1.372   1.902   8.569 -2.6273 -0.8380 -0.5031
   54CHL1  H27C 6476   1.251   2.038   8.586 -0.2598  0.4306 -0.7682
   55CHL1    C3 6477   2.006   6.624  10.134 -0.1905  0.6087  0.2404
   55CHL1    H3 6478   1.919   6.691  10.148 -1.4888 -0.7114 -1.2793
   55CHL1    O3 6479   2.068   6.605  10.258 -0.3438  0.1043  0.7952
   55CHL1   H3' 6480   2.131   6.535  10.241 -2.1734 -1.3228 -0.3376
   55CHL1    C4 6481   1.974   6.486  10.079 -0.3979 -0.7137 -0.2742
   55CHL1   H4A 6482   2.060   6.420  10.104  0.5660  0.4535 -0.4696
   55CHL1   H4B 6483   1.896   6.441  10.145  2.1507 -3.5162  0.9741
   55CHL1    C5 6484   1.945   6.475   9.930 -0.1396 -0.3902 -0.4385
   55CHL1    C6 6485   1.838   6.407   9.887  0.1183  0.1286 -0.4699
   55CHL1    H6 6486   1.777   6.352   9.961 -2.4162  1.7963 -1.2329
   55CHL1    C7 6487   1.804   6.404   9.743  0.0903 -0.3028  0.2937
   55CHL1   H7A 6488   1.791   6.301   9.701 -2.8051  1.0897 -2.4491
   55CHL1   H7B 6489   1.704   6.445   9.718 -0.6771 -2.1121  0.2750
   55CHL1    C8 6490   1.914   6.449   9.646 -0.5416  0.9323  0.2006
   55CHL1    H8 6491   2.006   6.386   9.648 -0.3815  1.1911  1.8588
   55CHL1   C14 6492   1.854   6.469   9.510 -0.0279  0.1032  0.1831
   55CHL1   H14 6493   1.766   6.537   9.518 -0.3236 -0.3785  1.0891
   55CHL1   C15 6494   1.789   6.352   9.440  0.4247 -0.3143  0.6035
   55CHL1  H15A 6495   1.854   6.262   9.444  0.7962 -0.0313  0.9947
   55CHL1  H15B 6496   1.694   6.312   9.483 -0.0874 -0.5186 -0.7073
   55CHL1   C16 6497   1.770   6.399   9.296 -0.1490  0.2007  0.7094
   55CHL1  H16A 6498   1.807   6.319   9.227  0.8764  1.3705 -0.1077
   55CHL1  H16B 6499   1.667   6.430   9.269 -0.4798 -0.4686  1.1861
   55CHL1   C17 6500   1.857   6.529   9.280 -0.3910 -0.3222 -0.2521
   55CHL1   H17 6501   1.793   6.617   9.300  2.5888  1.6424  0.8732
   55CHL1   C13 6502   1.949   6.526   9.406  0.5174 -0.0124  1.1895
   55CHL1   C18 6503   2.056   6.421   9.372  1.1505 -0.2195 -0.6022
   55CHL1  H18A 6504   2.100   6.365   9.458  1.4586 -0.6240 -1.0217
   55CHL1  H18B 6505   2.024   6.345   9.298 -1.4606 -0.0131  0.2586
   55CHL1  H18C 6506   2.137   6.471   9.315  2.1330  1.2175  1.9466
   55CHL1   C12 6507   2.003   6.657   9.446  0.3055  0.2303 -0.0738
   55CHL1  H12A 6508   2.079   6.702   9.378 -1.0696 -1.4394 -2.7487
   55CHL1  H12B 6509   1.925   6.736   9.444  0.4997  0.4850  1.5054
   55CHL1   C11 6510   2.071   6.646   9.589  0.1661 -1.2561 -0.1983
   55CHL1  H11A 6511   2.168   6.592   9.579  2.0395  2.1878 -1.4961
   55CHL1  H11B 6512   2.086   6.753   9.616  0.7163 -0.9265 -1.7614
   55CHL1    C9 6513   1.970   6.581   9.690 -0.1276 -0.2516  0.3344
   55CHL1    H9 6514   1.882   6.649   9.701  0.2624 -0.0183  2.2594
   55CHL1   C10 6515   2.023   6.564   9.837  0.6548  0.6332  0.4717
   55CHL1   C19 6516   2.161   6.485   9.838 -0.1687  0.0193  0.4999
   55CHL1  H19A 6517   2.174   6.410   9.758  3.0255  0.1137  0.8631
   55CHL1  H19B 6518   2.241   6.560   9.818 -1.1970  0.9486 -0.1449
   55CHL1  H19C 6519   2.198   6.428   9.927  1.5590 -1.0231 -0.8627
   55CHL1    C1 6520   2.045   6.710   9.905  0.0810 -0.1885 -0.2059
   55CHL1   H1A 6521   2.118   6.760   9.838  0.3656  2.0907  1.7515
   55CHL1   H1B 6522   1.947   6.763   9.911  0.0324 -0.4885  2.1022
   55CHL1    C2 6523   2.105   6.702  10.043  0.2186  0.0109 -0.3880
   55CHL1   H2A 6524   2.125   6.801  10.089 -0.3340  1.2508 -2.7047
   55CHL1   H2B 6525   2.194   6.637  10.054 -0.3202 -0.5086  0.9380
   55CHL1   C20 6526   1.926   6.549   9.134  0.1620  0.3182 -0.4591
   55CHL1   H20 6527   1.993   6.461   9.122  0.8137  0.1108  3.7394
   55CHL1   C21 6528   2.009   6.680   9.130 -0.9145  0.1329 -0.6030
   55CHL1  H21A 6529   2.105   6.670   9.186 -0.1587  0.8826 -1.7437
   55CHL1  H21B 6530   1.945   6.759   9.174  0.2163  0.9542 -0.4254
   55CHL1  H21C 6531   2.024   6.702   9.023 -0.6057 -1.4732 -0.9113
   55CHL1   C22 6532   1.815   6.545   9.028  0.1703  0.3974 -0.3142
   55CHL1  H22A 6533   1.756   6.452   9.041  0.8365 -0.0084 -0.1976
   55CHL1  H22B 6534   1.749   6.635   9.020 -1.0862 -0.3675  1.1080
   55CHL1   C23 6535   1.880   6.514   8.882 -0.1427 -0.1898 -0.0327
   55CHL1  H23A 6536   1.807   6.520   8.799 -1.1960 -0.3677  0.8708
   55CHL1  H23B 6537   1.933   6.609   8.859  0.4065 -0.8413 -1.5130
   55CHL1   C24 6538   1.972   6.388   8.857  0.3371  0.6209  0.1356
   55CHL1  H24A 6539   2.058   6.401   8.927 -0.5113 -0.2006  1.3440
   55CHL1  H24B 6540   1.919   6.292   8.874 -1.7850  1.7366 -0.0316
   55CHL1   C25 6541   2.044   6.394   8.717  0.4539 -0.2568 -0.1623
   55CHL1   H25 6542   2.062   6.500   8.692 -0.8119 -0.1997 -0.9276
   55CHL1   C26 6543   2.182   6.323   8.719 -0.6542 -0.4788 -0.2093
   55CHL1  H26A 6544   2.193   6.226   8.772 -1.5676 -0.2453  0.4272
   55CHL1  H26B 6545   2.228   6.324   8.618  1.0288  0.2673  0.5461
   55CHL1  H26C 6546   2.245   6.392   8.780  1.8935 -2.3084 -0.6951
   55CHL1   C27 6547   1.954   6.342   8.610  0.5255 -0.1152 -0.0079
   55CHL1  H27A 6548   1.938   6.234   8.628 -0.2664  0.2145  1.3181
   55CHL1  H27B 6549   1.859   6.400   8.611  0.5955  0.1552 -2.8819
   55CHL1  H27C 6550   2.001   6.360   8.511 -0.4172  2.1524 -0.0960
   56CHL1    C3 6551   6.459   5.052  10.001  0.3150  0.6889  0.2353
   56CHL1    H3 6552   6.399   4.959  10.009  0.2349  0.6818 -0.4619
   56CHL1    O3 6553   6.488   5.102  10.135  0.7687  1.0025  0.7280
   56CHL1   H3' 6554   6.492   5.195  10.112  0.2190  0.3976 -1.9623
   56CHL1    C4 6555   6.590   5.019   9.918 -1.0815 -0.3725 -0.5542
   56CHL1   H4A 6556   6.648   5.113   9.924  1.0575 -1.5522 -2.0805
   56CHL1   H4B 6557   6.641   4.933   9.966  0.1995  0.9947  0.5748
   56CHL1    C5 6558   6.567   4.984   9.773 -0.3095 -0.2373 -0.4434
   56CHL1    C6 6559   6.612   4.870   9.725 -0.6513  0.1865 -0.0607
   56CHL1    H6 6560   6.666   4.803   9.794 -1.2518  0.1629  0.3825
   56CHL1    C7 6561   6.591   4.817   9.589  0.2217 -0.1329  0.0039
   56CHL1   H7A 6562   6.679   4.778   9.533 -0.1086  1.9776 -2.0803
   56CHL1   H7B 6563   6.513   4.737   9.593  0.5009 -0.5576 -2.3588
   56CHL1    C8 6564   6.527   4.927   9.499  0.6921  0.9437 -0.6088
   56CHL1    H8 6565   6.605   5.000   9.468  2.7349 -1.2761 -0.8559
   56CHL1   C14 6566   6.466   4.876   9.369  0.1100 -0.1008  0.0506
   56CHL1   H14 6567   6.379   4.812   9.395 -0.7940 -0.2237 -3.1129
   56CHL1   C15 6568   6.550   4.780   9.283  0.4004 -0.3202 -0.2741
   56CHL1  H15A 6569   6.651   4.821   9.264  1.1660 -1.9350  0.1957
   56CHL1  H15B 6570   6.568   4.678   9.324 -0.3327 -0.2443  0.2531
   56CHL1   C16 6571   6.486   4.786   9.141 -0.3184 -0.4934 -0.1156
   56CHL1  H16A 6572   6.562   4.813   9.065 -1.2750 -0.0761 -0.9358
   56CHL1  H16B 6573   6.446   4.690   9.104 -2.8811  1.2768 -2.1792
   56CHL1   C17 6574   6.368   4.886   9.154  0.2947 -0.0554 -0.2821
   56CHL1   H17 6575   6.277   4.837   9.194 -0.3367  0.4119 -1.1297
   56CHL1   C13 6576   6.412   4.983   9.276  0.1984 -0.1509  0.6911
   56CHL1   C18 6577   6.526   5.078   9.217  0.2001 -0.2246 -0.1743
   56CHL1  H18A 6578   6.478   5.139   9.138 -1.9137  0.0776  1.2879
   56CHL1  H18B 6579   6.559   5.140   9.303 -1.9003  2.8780 -1.5238
   56CHL1  H18C 6580   6.611   5.020   9.176  2.3681 -0.0075  3.7744
   56CHL1   C12 6581   6.292   5.058   9.343 -0.4171 -0.4648  0.1665
   56CHL1  H12A 6582   6.259   5.142   9.278 -1.5670 -0.9086  0.1788
   56CHL1  H12B 6583   6.208   4.991   9.370 -0.8387 -0.2798 -0.6620
   56CHL1   C11 6584   6.331   5.103   9.486 -0.0891  0.1175  0.9729
   56CHL1  H11A 6585   6.380   5.203   9.480 -1.6100  0.8975  1.4510
   56CHL1  H11B 6586   6.239   5.132   9.540  0.7532 -0.9269  3.0289
   56CHL1    C9 6587   6.415   5.005   9.572 -0.1632  0.0887  0.4382
   56CHL1    H9 6588   6.337   4.931   9.600  0.1457  0.2006  1.5886
   56CHL1   C10 6589   6.467   5.074   9.704 -0.4053  0.5224  0.4278
   56CHL1   C19 6590   6.552   5.197   9.658 -0.2312  0.3736 -0.3457
   56CHL1  H19A 6591   6.628   5.161   9.587 -0.3700  1.2394 -0.9350
   56CHL1  H19B 6592   6.490   5.270   9.602 -1.1101  0.8348  1.1761
   56CHL1  H19C 6593   6.603   5.253   9.739 -0.5173  0.5263 -0.2701
   56CHL1    C1 6594   6.350   5.123   9.784  0.3317  0.7500  0.1457
   56CHL1   H1A 6595   6.291   5.203   9.735 -0.4556  0.1735  0.1465
   56CHL1   H1B 6596   6.286   5.033   9.800  2.0330 -0.6860 -0.9576
   56CHL1    C2 6597   6.383   5.157   9.930  0.1843  0.3316 -0.8750
   56CHL1   H2A 6598   6.288   5.193   9.976  0.7519 -0.0682  0.6442
   56CHL1   H2B 6599   6.434   5.256   9.927  2.5254 -0.8071  0.2600
   56CHL1   C20 6600   6.316   4.943   9.023 -0.1688  0.4535 -0.2264
   56CHL1   H20 6601   6.254   5.034   9.041  0.9060  1.1294  0.0982
   56CHL1   C21 6602   6.208   4.843   8.964  0.5050  0.4147  0.4338
   56CHL1  H21A 6603   6.127   4.841   9.040  1.4426  0.3351  1.4446
   56CHL1  H21B 6604   6.258   4.745   8.947 -2.5074 -0.8822 -1.3218
   56CHL1  H21C 6605   6.162   4.882   8.871 -2.6035  1.3816  2.3033
   56CHL1   C22 6606   6.423   4.964   8.920  0.3194  0.2208 -0.4322
   56CHL1  H22A 6607   6.509   5.023   8.959  0.1178  1.3725 -1.7250
   56CHL1  H22B 6608   6.463   4.864   8.891 -0.0864 -0.0210 -0.1621
   56CHL1   C23 6609   6.373   5.025   8.789 -0.0223 -0.2707 -0.2384
   56CHL1  H23A 6610   6.301   4.965   8.729 -1.5384  0.1007  1.1644
   56CHL1  H23B 6611   6.327   5.122   8.817 -2.0071 -0.8896 -1.2385
   56CHL1   C24 6612   6.484   5.050   8.684  0.2957  0.6114  0.2891
   56CHL1  H24A 6613   6.558   5.127   8.716  0.7886  0.4553 -0.4467
   56CHL1  H24B 6614   6.535   4.952   8.675  2.0056  1.6639 -2.0552
   56CHL1   C25 6615   6.435   5.106   8.548 -0.3436  0.2269 -0.9333
   56CHL1   H25 6616   6.357   5.184   8.555 -0.6485 -0.0475 -1.2489
   56CHL1   C26 6617   6.552   5.178   8.477  0.9056  0.4060  0.1000
   56CHL1  H26A 6618   6.646   5.121   8.491  0.9394  0.2621 -0.7410
   56CHL1  H26B 6619   6.518   5.181   8.372  1.7348  2.2488 -0.1271
   56CHL1  H26C 6620   6.571   5.282   8.511  2.0170  0.1720  0.1987
   56CHL1   C27 6621   6.387   4.994   8.454 -0.3605 -0.5350 -0.1223
   56CHL1  H27A 6622   6.361   5.043   8.358 -0.9018  0.6712  0.6202
   56CHL1  H27B 6623   6.461   4.913   8.437 -0.1912 -0.4557  0.2207
   56CHL1  H27C 6624   6.292   4.950   8.491 -1.2203  0.7449 -0.7518
   57CHL1    C3 6625   2.053   0.794  10.257 -0.1791  1.1673 -0.6753
   57CHL1    H3 6626   2.030   0.691  10.223  1.1864  1.9278 -4.1787
   57CHL1    O3 6627   2.040   0.808  10.397  0.3204 -0.1560 -0.2067
   57CHL1   H3' 6628   2.121   0.769  10.432 -0.2621 -1.7912 -0.6550
   57CHL1    C4 6629   2.206   0.817  10.226  0.8711  0.4713  0.8425
   57CHL1   H4A 6630   2.240   0.915  10.265 -0.7979  2.2509 -1.9364
   57CHL1   H4B 6631   2.255   0.744  10.294  1.1803  1.6727  1.9235
   57CHL1    C5 6632   2.242   0.803  10.079  0.0863 -0.3441 -0.1160
   57CHL1    C6 6633   2.322   0.705  10.037 -0.2051  0.0386 -0.7356
   57CHL1    H6 6634   2.367   0.629  10.104 -0.7003  0.8441  0.5071
   57CHL1    C7 6635   2.355   0.686   9.891  0.0307 -0.1881 -0.2235
   57CHL1   H7A 6636   2.465   0.676   9.877 -0.0425 -0.1582 -0.8630
   57CHL1   H7B 6637   2.309   0.592   9.854 -0.6719  0.1823 -0.2955
   57CHL1    C8 6638   2.317   0.814   9.808  0.1689  0.2123  0.4337
   57CHL1    H8 6639   2.394   0.892   9.827 -1.2927  2.0033 -0.7739
   57CHL1   C14 6640   2.317   0.771   9.664 -0.3523 -0.2221  0.8438
   57CHL1   H14 6641   2.234   0.697   9.660 -0.3968 -0.1728  0.8599
   57CHL1   C15 6642   2.429   0.676   9.610  0.1493 -0.1518 -0.1579
   57CHL1  H15A 6643   2.526   0.701   9.659 -0.8886 -1.0218  2.3864
   57CHL1  H15B 6644   2.403   0.570   9.633  3.3572 -1.1558 -0.8661
   57CHL1   C16 6645   2.442   0.706   9.459 -0.0923 -0.1493  0.0620
   57CHL1  H16A 6646   2.531   0.771   9.451 -1.0993  1.0119 -2.0540
   57CHL1  H16B 6647   2.439   0.621   9.387 -0.6024  1.1692 -1.4879
   57CHL1   C17 6648   2.322   0.806   9.428  0.6249 -0.5170 -0.4205
   57CHL1   H17 6649   2.237   0.738   9.405  1.3671 -1.6930  0.2173
   57CHL1   C13 6650   2.301   0.883   9.561  0.2840 -0.8146  0.4609
   57CHL1   C18 6651   2.417   0.987   9.582  0.7801 -0.0053  0.1266
   57CHL1  H18A 6652   2.517   0.940   9.572  0.2647 -0.7636 -1.7780
   57CHL1  H18B 6653   2.407   1.069   9.509  0.4024 -1.3821 -1.3946
   57CHL1  H18C 6654   2.403   1.030   9.684  0.0098 -2.5719  1.1587
   57CHL1   C12 6655   2.158   0.945   9.590  0.4017  0.0279 -0.0673
   57CHL1  H12A 6656   2.154   1.037   9.528 -0.4483 -0.0399 -0.1090
   57CHL1  H12B 6657   2.078   0.879   9.551  0.5703  1.8016 -3.6238
   57CHL1   C11 6658   2.135   0.989   9.738  0.3403  0.1005  0.2997
   57CHL1  H11A 6659   2.189   1.083   9.763 -0.9954  1.1567 -0.7138
   57CHL1  H11B 6660   2.027   1.012   9.751 -0.1212 -1.7411 -0.2269
   57CHL1    C9 6661   2.175   0.869   9.835 -0.0513  0.1066  0.7750
   57CHL1    H9 6662   2.107   0.783   9.821  1.2628 -0.7280 -0.6411
   57CHL1   C10 6663   2.157   0.900   9.987  0.6044  0.0025  0.2781
   57CHL1   C19 6664   2.225   1.035  10.012 -0.1978 -0.0941  0.3721
   57CHL1  H19A 6665   2.169   1.116   9.961  0.6588 -0.0078 -0.4473
   57CHL1  H19B 6666   2.223   1.068  10.118 -0.9527  2.2766 -0.3393
   57CHL1  H19C 6667   2.324   1.042   9.962 -1.1751  1.9408 -1.3283
   57CHL1    C1 6668   2.006   0.896  10.031 -0.3508  0.2482 -0.1759
   57CHL1   H1A 6669   1.949   0.968   9.970  0.4897  0.3414 -0.8483
   57CHL1   H1B 6670   1.976   0.796   9.993  1.2617  0.2921 -1.6463
   57CHL1    C2 6671   1.975   0.902  10.182 -0.2534 -0.3091 -0.1964
   57CHL1   H2A 6672   1.867   0.887  10.201  0.3465 -3.4374  1.0305
   57CHL1   H2B 6673   2.006   1.004  10.212  0.7653 -0.5755 -0.3204
   57CHL1   C20 6674   2.345   0.894   9.304  0.5902  0.0186  0.2241
   57CHL1   H20 6675   2.412   0.980   9.326  1.7320 -0.8584  0.2390
   57CHL1   C21 6676   2.213   0.944   9.247  0.2054 -0.3025 -0.4041
   57CHL1  H21A 6677   2.227   1.010   9.159  0.3942 -1.6979 -1.4356
   57CHL1  H21B 6678   2.164   1.010   9.322 -1.0579  1.2995 -2.5555
   57CHL1  H21C 6679   2.134   0.870   9.223  0.2967 -0.7716  0.7010
   57CHL1   C22 6680   2.417   0.815   9.194  0.0104  0.6320 -0.2328
   57CHL1  H22A 6681   2.517   0.791   9.236 -0.1075 -0.0712 -0.3402
   57CHL1  H22B 6682   2.375   0.714   9.176  3.0729 -0.8979  0.8557
   57CHL1   C23 6683   2.441   0.882   9.058  0.3245 -1.0526  0.0000
   57CHL1  H23A 6684   2.359   0.881   8.983  0.8893  3.1979 -0.8099
   57CHL1  H23B 6685   2.468   0.988   9.077  3.1239 -1.4003 -1.7660
   57CHL1   C24 6686   2.558   0.828   8.972 -0.3043 -0.3533 -0.1802
   57CHL1  H24A 6687   2.577   0.892   8.883 -0.2636  0.8414  0.6791
   57CHL1  H24B 6688   2.652   0.840   9.031  0.0931  1.2744 -1.1341
   57CHL1   C25 6689   2.548   0.679   8.923 -0.1923 -0.4293  0.1402
   57CHL1   H25 6690   2.491   0.634   9.007 -0.4390 -0.9898 -0.3181
   57CHL1   C26 6691   2.474   0.665   8.787 -0.6124  0.5210 -1.0936
   57CHL1  H26A 6692   2.533   0.712   8.706 -0.2652  2.7558  0.4133
   57CHL1  H26B 6693   2.464   0.554   8.775 -1.9875  0.4084  0.9050
   57CHL1  H26C 6694   2.374   0.715   8.788 -1.2210 -0.6693 -0.8348
   57CHL1   C27 6695   2.688   0.617   8.935 -0.0770  0.4178  0.0810
   57CHL1  H27A 6696   2.699   0.513   8.896  0.6777 -0.0701  1.5703
   57CHL1  H27B 6697   2.745   0.685   8.869  1.2214  0.1821  0.9445
   57CHL1  H27C 6698   2.740   0.620   9.033  2.3834 -2.1157 -1.0775
   58CHL1    C3 6699   5.033   6.502  10.048 -0.9791  0.8787  0.3819
   58CHL1    H3 6700   4.926   6.502  10.020 -1.3620 -0.4626  1.7791
   58CHL1    O3 6701   5.050   6.482  10.184  0.1068  0.2547  0.7923
   58CHL1   H3' 6702   5.144   6.476  10.204  0.4222 -2.0337 -1.1340
   58CHL1    C4 6703   5.104   6.385   9.977  0.2351 -0.5737 -0.5282
   58CHL1   H4A 6704   5.203   6.361  10.021  1.0468 -0.3785 -2.2119
   58CHL1   H4B 6705   5.059   6.286  10.001  2.1348 -1.4626 -0.5626
   58CHL1    C5 6706   5.128   6.386   9.829  0.1318 -1.0873 -0.0664
   58CHL1    C6 6707   5.075   6.297   9.746 -0.9634  0.1911  0.4348
   58CHL1    H6 6708   5.030   6.206   9.788 -0.1426  0.6964  2.5033
   58CHL1    C7 6709   5.077   6.313   9.599 -0.4907 -0.6505  0.7173
   58CHL1   H7A 6710   5.097   6.217   9.547  2.8393 -0.2995  1.2010
   58CHL1   H7B 6711   4.980   6.353   9.562  0.7192  1.2900 -0.4706
   58CHL1    C8 6712   5.193   6.410   9.550 -0.1904 -0.0759 -1.0446
   58CHL1    H8 6713   5.289   6.360   9.571  0.1483  0.8474 -0.3444
   58CHL1   C14 6714   5.169   6.453   9.406 -0.0510 -0.2527  0.4203
   58CHL1   H14 6715   5.081   6.520   9.400 -0.2958 -0.7214 -1.9491
   58CHL1   C15 6716   5.155   6.337   9.313  1.0037 -0.0223 -0.4194
   58CHL1  H15A 6717   5.237   6.266   9.337 -1.8170 -2.5989  1.9706
   58CHL1  H15B 6718   5.062   6.277   9.306 -0.3069  1.6772  1.9360
   58CHL1   C16 6719   5.181   6.405   9.173  0.0327  0.1386  0.3011
   58CHL1  H16A 6720   5.269   6.359   9.123  0.3591 -0.3640  1.3275
   58CHL1  H16B 6721   5.092   6.404   9.105 -0.1266 -3.5692  0.4413
   58CHL1   C17 6722   5.234   6.548   9.200 -0.8669 -0.4125  0.6878
   58CHL1   H17 6723   5.143   6.612   9.203 -0.7771 -0.2716  0.3570
   58CHL1   C13 6724   5.279   6.544   9.345  0.0058  0.4262 -0.0275
   58CHL1   C18 6725   5.422   6.474   9.360 -0.2543  0.6940  0.7897
   58CHL1  H18A 6726   5.422   6.383   9.296  0.2644  1.5813 -0.4831
   58CHL1  H18B 6727   5.495   6.545   9.315 -0.7747  0.0224 -1.1755
   58CHL1  H18C 6728   5.451   6.446   9.464  1.8366 -2.6469 -0.5952
   58CHL1   C12 6729   5.262   6.682   9.427  0.2308  0.9365  0.1547
   58CHL1  H12A 6730   5.340   6.756   9.400  0.5955  0.9964  1.3658
   58CHL1  H12B 6731   5.162   6.719   9.394  1.1969  1.9308 -1.7274
   58CHL1   C11 6732   5.278   6.661   9.576  0.4198  0.2159  0.2455
   58CHL1  H11A 6733   5.383   6.633   9.598  1.0844  2.5796  0.1602
   58CHL1  H11B 6734   5.249   6.758   9.621 -0.4138 -0.0952  0.4048
   58CHL1    C9 6735   5.181   6.545   9.630 -0.4093  0.6760  0.0665
   58CHL1    H9 6736   5.076   6.577   9.616 -0.1316  2.0061  0.9704
   58CHL1   C10 6737   5.191   6.517   9.789 -0.6608 -0.4652  0.0582
   58CHL1   C19 6738   5.344   6.517   9.819 -0.1094  0.1182 -0.5910
   58CHL1  H19A 6739   5.407   6.442   9.767 -0.2634 -0.6186  0.2756
   58CHL1  H19B 6740   5.377   6.620   9.792  1.8769 -0.8354 -1.9345
   58CHL1  H19C 6741   5.356   6.498   9.928  0.5958  4.2004  0.1429
   58CHL1    C1 6742   5.123   6.638   9.857 -0.5435  0.4781 -0.7556
   58CHL1   H1A 6743   5.186   6.728   9.839 -0.7590  0.4151 -1.8173
   58CHL1   H1B 6744   5.026   6.653   9.806 -0.4080  1.3567 -0.7720
   58CHL1    C2 6745   5.099   6.635  10.007  0.5115 -0.0889  0.9413
   58CHL1   H2A 6746   5.032   6.717  10.039 -1.5003 -0.8588 -1.1199
   58CHL1   H2B 6747   5.194   6.634  10.064  1.9667 -0.3670 -1.3842
   58CHL1   C20 6748   5.342   6.594   9.092 -0.3238 -0.5131 -0.0480
   58CHL1   H20 6749   5.412   6.507   9.084 -1.1479 -1.5344  2.8999
   58CHL1   C21 6750   5.409   6.728   9.128  0.3946  0.0164 -0.3604
   58CHL1  H21A 6751   5.465   6.720   9.224 -2.2286  0.4295  1.2564
   58CHL1  H21B 6752   5.326   6.802   9.124 -0.0792 -0.6248 -2.9856
   58CHL1  H21C 6753   5.476   6.768   9.050  0.6947 -1.6035 -0.9531
   58CHL1   C22 6754   5.272   6.607   8.951  0.1479  0.1620  0.0269
   58CHL1  H22A 6755   5.204   6.523   8.931  1.9275 -1.6969  1.5194
   58CHL1  H22B 6756   5.203   6.692   8.932  3.0613  2.4054 -0.9998
   58CHL1   C23 6757   5.373   6.618   8.837  0.2130 -0.6974 -0.1192
   58CHL1  H23A 6758   5.323   6.633   8.739  2.2904  1.1392 -0.9222
   58CHL1  H23B 6759   5.447   6.698   8.855 -1.1353  0.4709  0.3455
   58CHL1   C24 6760   5.456   6.492   8.800  0.1182  0.3476  0.1078
   58CHL1  H24A 6761   5.530   6.473   8.881  0.0940 -3.6458 -0.7211
   58CHL1  H24B 6762   5.394   6.400   8.804 -0.4328  0.8069  2.7073
   58CHL1   C25 6763   5.539   6.507   8.668  0.2645  0.0212  0.1511
   58CHL1   H25 6764   5.606   6.419   8.683 -0.2728 -0.1177  1.8075
   58CHL1   C26 6765   5.448   6.495   8.551 -0.0726 -0.1364 -0.0484
   58CHL1  H26A 6766   5.389   6.401   8.546 -0.3231 -0.0942  1.7589
   58CHL1  H26B 6767   5.369   6.573   8.543 -0.8566 -0.8862  0.4449
   58CHL1  H26C 6768   5.507   6.499   8.456  1.1863 -1.1603  0.6738
   58CHL1   C27 6769   5.645   6.627   8.662  0.6233  0.5601 -0.5303
   58CHL1  H27A 6770   5.726   6.605   8.589 -0.3701 -0.1375 -1.4378
   58CHL1  H27B 6771   5.604   6.728   8.644  1.2632  0.7889 -0.7233
   58CHL1  H27C 6772   5.701   6.632   8.758 -0.6803 -0.4950  0.3047
   59CHL1    C3 6773   4.444   5.652  10.283  0.1648 -0.6950 -0.6707
   59CHL1    H3 6774   4.521   5.719  10.239 -2.0846  1.2085 -1.8478
   59CHL1    O3 6775   4.453   5.667  10.425  0.2370 -0.1710 -0.1850
   59CHL1   H3' 6776   4.396   5.597  10.458 -0.4232  0.1366 -0.6677
   59CHL1    C4 6777   4.307   5.702  10.230  0.2790  0.5556 -0.1510
   59CHL1   H4A 6778   4.225   5.660  10.291 -0.3181  2.3130  0.2865
   59CHL1   H4B 6779   4.306   5.811  10.248  1.3599  0.5553 -0.0680
   59CHL1    C5 6780   4.283   5.686  10.084  0.1416  0.4679  0.1967
   59CHL1    C6 6781   4.254   5.789  10.014  0.0761  0.8233  0.5038
   59CHL1    H6 6782   4.231   5.875  10.078  0.7148 -0.1151  2.0060
   59CHL1    C7 6783   4.237   5.790   9.860 -0.4045 -0.0783 -0.7805
   59CHL1   H7A 6784   4.151   5.846   9.818  0.4951  1.8200 -0.1376
   59CHL1   H7B 6785   4.330   5.818   9.807 -1.1247  0.6075 -1.7093
   59CHL1    C8 6786   4.228   5.643   9.809 -0.0759 -0.6532 -0.1779
   59CHL1    H8 6787   4.129   5.598   9.833  1.3138 -3.0652  1.2574
   59CHL1   C14 6788   4.265   5.644   9.662 -0.2191  0.1481 -0.1648
   59CHL1   H14 6789   4.369   5.683   9.656 -0.6519  1.2789 -0.3533
   59CHL1   C15 6790   4.190   5.741   9.572  0.1145  0.0339  0.9261
   59CHL1  H15A 6791   4.084   5.745   9.606 -1.1495 -0.0723 -2.7621
   59CHL1  H15B 6792   4.226   5.845   9.581  2.9435 -0.8337  0.1226
   59CHL1   C16 6793   4.219   5.692   9.432 -0.4863  0.1668  0.0791
   59CHL1  H16A 6794   4.124   5.686   9.374 -1.3359  0.9947  1.3731
   59CHL1  H16B 6795   4.281   5.771   9.383 -1.8971  0.1730 -1.7401
   59CHL1   C17 6796   4.299   5.556   9.450  0.3845 -0.6031 -0.1487
   59CHL1   H17 6797   4.406   5.584   9.450  0.7602 -1.9185  2.0512
   59CHL1   C13 6798   4.261   5.508   9.585 -0.3569 -0.0939  0.5409
   59CHL1   C18 6799   4.111   5.462   9.578 -0.5648 -0.1172  0.0333
   59CHL1  H18A 6800   4.091   5.373   9.515  0.6790 -1.5482  1.6078
   59CHL1  H18B 6801   4.088   5.433   9.683  1.5304  0.3071  0.6202
   59CHL1  H18C 6802   4.034   5.534   9.542 -0.4268 -0.5578 -1.1379
   59CHL1   C12 6803   4.355   5.411   9.660 -0.2036 -0.1807  0.2369
   59CHL1  H12A 6804   4.353   5.308   9.620 -2.8331 -0.9438  2.1537
   59CHL1  H12B 6805   4.457   5.444   9.632 -0.4446  1.1579  0.8951
   59CHL1   C11 6806   4.331   5.408   9.811 -0.1775 -0.1044 -0.1402
   59CHL1  H11A 6807   4.238   5.351   9.829  0.0588  0.2506  2.4236
   59CHL1  H11B 6808   4.412   5.342   9.850  0.5860 -0.0948 -1.6791
   59CHL1    C9 6809   4.326   5.545   9.874 -0.1326 -0.1847  0.5389
   59CHL1    H9 6810   4.428   5.585   9.852 -0.8317  0.2615 -2.1535
   59CHL1   C10 6811   4.313   5.540  10.031  0.1427 -1.3178  0.1978
   59CHL1   C19 6812   4.192   5.449  10.069  0.3155 -0.1400  0.5058
   59CHL1  H19A 6813   4.213   5.345  10.039 -0.3341 -0.2256  0.3388
   59CHL1  H19B 6814   4.160   5.459  10.175  0.8611 -0.5480  0.7117
   59CHL1  H19C 6815   4.112   5.477   9.998 -0.4897  1.8504  2.1435
   59CHL1    C1 6816   4.449   5.494  10.085 -0.5156 -0.0758 -0.3331
   59CHL1   H1A 6817   4.456   5.388  10.052 -2.3343 -0.9893  2.0244
   59CHL1   H1B 6818   4.528   5.561  10.045  0.8007 -1.3701  0.0615
   59CHL1    C2 6819   4.450   5.507  10.242  0.0700  0.6814  0.0266
   59CHL1   H2A 6820   4.540   5.461  10.288 -0.2681 -0.9658 -0.8986
   59CHL1   H2B 6821   4.362   5.455  10.285  0.2125  1.5636  1.3999
   59CHL1   C20 6822   4.281   5.457   9.329 -0.0889  0.0878 -0.6406
   59CHL1   H20 6823   4.182   5.407   9.329 -0.3592  0.5885  1.0393
   59CHL1   C21 6824   4.386   5.352   9.331 -0.5782  0.2645  0.2968
   59CHL1  H21A 6825   4.483   5.402   9.351 -1.2026  0.7599  2.2193
   59CHL1  H21B 6826   4.379   5.289   9.240 -1.0948  0.1683  0.4015
   59CHL1  H21C 6827   4.366   5.287   9.419 -0.1042  2.4601  2.0913
   59CHL1   C22 6828   4.292   5.529   9.191  0.3577  0.3730 -0.0067
   59CHL1  H22A 6829   4.219   5.612   9.193 -1.3109 -1.0831  0.2906
   59CHL1  H22B 6830   4.390   5.580   9.180 -0.2264  1.2685 -1.1262
   59CHL1   C23 6831   4.255   5.436   9.073 -0.0706  1.1918 -0.5101
   59CHL1  H23A 6832   4.346   5.372   9.063 -1.0528  0.1617 -3.3105
   59CHL1  H23B 6833   4.167   5.375   9.103  1.3288 -0.6669 -0.0836
   59CHL1   C24 6834   4.237   5.504   8.938 -0.0051  0.5347  0.0210
   59CHL1  H24A 6835   4.163   5.587   8.936 -1.2998 -0.5744  1.4924
   59CHL1  H24B 6836   4.334   5.550   8.910  0.4078  0.4585  1.3379
   59CHL1   C25 6837   4.197   5.407   8.823  0.2979 -0.0005 -0.2809
   59CHL1   H25 6838   4.108   5.352   8.859  0.5179  0.2718  0.7155
   59CHL1   C26 6839   4.161   5.495   8.708  0.8224 -0.0163  0.5177
   59CHL1  H26A 6840   4.076   5.562   8.730  1.4629  0.1519  2.6972
   59CHL1  H26B 6841   4.237   5.575   8.693  1.4825 -0.4366  1.4957
   59CHL1  H26C 6842   4.132   5.430   8.624  0.9127 -0.3874  0.7714
   59CHL1   C27 6843   4.298   5.297   8.794  0.0545  0.3396 -0.1977
   59CHL1  H27A 6844   4.404   5.329   8.798  0.5400 -0.8192 -3.1254
   59CHL1  H27B 6845   4.283   5.216   8.869  0.9102  1.5650  1.3425
   59CHL1  H27C 6846   4.277   5.253   8.695 -1.4318 -2.5550  1.3394
   60CHL1    C3 6847   3.688   4.324  10.193 -0.1870  0.1052  0.2875
   60CHL1    H3 6848   3.697   4.234  10.129  0.3804 -0.1812  0.7673
   60CHL1    O3 6849   3.708   4.290  10.329 -0.3332 -0.9117 -0.5531
   60CHL1   H3' 6850   3.622   4.304  10.369  0.2863  0.3792  0.3642
   60CHL1    C4 6851   3.790   4.426  10.147 -0.1029  0.3475 -0.3509
   60CHL1   H4A 6852   3.795   4.515  10.214 -3.8554 -1.0105  1.8879
   60CHL1   H4B 6853   3.892   4.384  10.156 -0.6416 -1.3155 -1.8429
   60CHL1    C5 6854   3.775   4.463  10.001 -0.2131 -0.0805 -0.5082
   60CHL1    C6 6855   3.875   4.453   9.915  0.0202  0.3191 -0.1589
   60CHL1    H6 6856   3.969   4.422   9.962  0.4339 -0.3518 -1.4259
   60CHL1    C7 6857   3.877   4.505   9.773 -0.0833  0.2131 -0.6406
   60CHL1   H7A 6858   3.966   4.561   9.737  0.8577 -0.5974  0.3853
   60CHL1   H7B 6859   3.863   4.415   9.708  0.4807  0.4360 -1.0776
   60CHL1    C8 6860   3.751   4.592   9.741  0.4461 -0.1075  0.4401
   60CHL1    H8 6861   3.767   4.687   9.797 -1.3218 -0.5302  1.7063
   60CHL1   C14 6862   3.738   4.593   9.593  0.4769  0.3240 -0.1401
   60CHL1   H14 6863   3.720   4.488   9.562  1.5098 -0.0250  0.4176
   60CHL1   C15 6864   3.862   4.642   9.514  0.6937  0.0547 -0.0849
   60CHL1  H15A 6865   3.890   4.736   9.566 -0.7578  0.6469 -0.3543
   60CHL1  H15B 6866   3.939   4.562   9.509 -1.1927 -1.9895  2.1100
   60CHL1   C16 6867   3.809   4.690   9.376  0.3788 -0.0268  0.3592
   60CHL1  H16A 6868   3.835   4.798   9.372 -0.0904  0.2119  2.8098
   60CHL1  H16B 6869   3.842   4.642   9.281  2.2936 -0.0622  1.0296
   60CHL1   C17 6870   3.651   4.681   9.393  0.3945  0.2386 -0.1820
   60CHL1   H17 6871   3.625   4.578   9.358  1.0946 -0.2163  0.5995
   60CHL1   C13 6872   3.623   4.677   9.545  0.0773 -0.1789  0.1388
   60CHL1   C18 6873   3.626   4.823   9.603 -0.3560  0.0171  1.1459
   60CHL1  H18A 6874   3.642   4.815   9.712  0.2381  2.5090  1.2756
   60CHL1  H18B 6875   3.717   4.873   9.565  1.2709 -2.1282  2.1234
   60CHL1  H18C 6876   3.535   4.880   9.574 -0.2228  0.0494  0.7823
   60CHL1   C12 6877   3.488   4.608   9.589 -0.1836 -0.0991  0.0029
   60CHL1  H12A 6878   3.393   4.658   9.561 -1.4823 -3.0654 -1.1491
   60CHL1  H12B 6879   3.478   4.513   9.533 -2.3165  0.3147 -0.3366
   60CHL1   C11 6880   3.494   4.584   9.743  0.1235 -0.5298  1.1600
   60CHL1  H11A 6881   3.468   4.682   9.790 -0.8848 -0.5356  0.6332
   60CHL1  H11B 6882   3.407   4.524   9.778 -0.0746 -0.6952  0.3999
   60CHL1    C9 6883   3.630   4.523   9.804  0.0717 -0.2094 -0.1488
   60CHL1    H9 6884   3.627   4.418   9.768  4.6046 -1.7031  3.3375
   60CHL1   C10 6885   3.634   4.510   9.960  0.2409 -1.0316 -0.0429
   60CHL1   C19 6886   3.603   4.652  10.004  0.3158  0.7263  0.6165
   60CHL1  H19A 6887   3.631   4.677  10.108  2.2837  1.3790 -0.0645
   60CHL1  H19B 6888   3.659   4.732   9.952 -0.3380  0.4128 -0.6208
   60CHL1  H19C 6889   3.496   4.676   9.986  0.1692 -1.7173 -2.2990
   60CHL1    C1 6890   3.525   4.419  10.016 -0.4880 -0.5028  0.0047
   60CHL1   H1A 6891   3.431   4.469   9.985  0.0747 -0.7287 -2.1314
   60CHL1   H1B 6892   3.519   4.328   9.953 -2.0953 -2.2182  2.5290
   60CHL1    C2 6893   3.544   4.381  10.164 -0.2627 -0.5187  0.1571
   60CHL1   H2A 6894   3.462   4.309  10.187 -0.8936 -0.7794 -2.7407
   60CHL1   H2B 6895   3.525   4.467  10.232  1.0087  0.5383 -0.8213
   60CHL1   C20 6896   3.581   4.788   9.308  0.2731  0.5397  0.1684
   60CHL1   H20 6897   3.612   4.887   9.350 -0.5049  1.2673 -0.9354
   60CHL1   C21 6898   3.422   4.778   9.302 -0.0758  0.2740  0.1900
   60CHL1  H21A 6899   3.385   4.682   9.260  0.1132 -0.1575  0.9878
   60CHL1  H21B 6900   3.384   4.863   9.242  1.0589  0.2868 -0.5162
   60CHL1  H21C 6901   3.371   4.799   9.399 -0.0832 -0.6526  0.3953
   60CHL1   C22 6902   3.630   4.793   9.159  0.2586 -0.2800  0.1376
   60CHL1  H22A 6903   3.570   4.877   9.117  0.0544  0.0720  1.1276
   60CHL1  H22B 6904   3.734   4.833   9.155  0.0519  0.1774 -0.8593
   60CHL1   C23 6905   3.628   4.660   9.084  0.6374  0.1840 -0.2721
   60CHL1  H23A 6906   3.726   4.609   9.100  1.7898  2.2964 -0.4152
   60CHL1  H23B 6907   3.548   4.604   9.136  0.2142  0.4922 -0.5833
   60CHL1   C24 6908   3.603   4.678   8.935 -0.2509 -0.1983  1.4213
   60CHL1  H24A 6909   3.523   4.754   8.922  0.3879  0.4155  1.0313
   60CHL1  H24B 6910   3.704   4.707   8.901  0.5240 -0.2501  3.6039
   60CHL1   C25 6911   3.574   4.543   8.869  0.2842 -1.1121 -0.4736
   60CHL1   H25 6912   3.658   4.474   8.889  1.9581  1.5653  2.0979
   60CHL1   C26 6913   3.436   4.480   8.913 -0.8943  0.2461  0.3398
   60CHL1  H26A 6914   3.445   4.423   9.007  0.1132  0.6473  0.4966
   60CHL1  H26B 6915   3.367   4.564   8.935  1.2961  1.6837  1.9163
   60CHL1  H26C 6916   3.397   4.419   8.829  0.2142 -0.6545  0.4563
   60CHL1   C27 6917   3.583   4.553   8.716  0.5785 -0.5275 -0.4227
   60CHL1  H27A 6918   3.493   4.608   8.682 -1.0593 -2.0813  1.2501
   60CHL1  H27B 6919   3.677   4.603   8.685  0.2156  0.9324  0.7630
   60CHL1  H27C 6920   3.574   4.452   8.671 -1.8109 -0.5887  0.0965
   61CHL1    C3 6921   0.809   4.046  10.235 -0.4098 -0.2275 -0.4424
   61CHL1    H3 6922   0.768   3.945  10.215  0.8642 -0.8825  0.2085
   61CHL1    O3 6923   0.777   4.096  10.359 -0.4914  0.5141 -0.1607
   61CHL1   H3' 6924   0.791   4.019  10.414  2.8256  0.1618 -1.4182
   61CHL1    C4 6925   0.957   4.030  10.218 -0.2556  0.3226  0.5292
   61CHL1   H4A 6926   0.993   4.134  10.226 -0.0612  0.2365  0.7948
   61CHL1   H4B 6927   0.993   3.971  10.306  0.0166 -0.8555 -0.3609
   61CHL1    C5 6928   0.994   3.979  10.075 -0.6632 -0.1809 -0.5742
   61CHL1    C6 6929   1.058   3.856  10.060  0.1328 -0.3495  0.3190
   61CHL1    H6 6930   1.094   3.811  10.153 -0.7487 -3.1291 -0.6276
   61CHL1    C7 6931   1.073   3.782   9.931 -0.3175  0.4792  0.3903
   61CHL1   H7A 6932   1.180   3.751   9.921 -0.3397  0.7522 -0.7853
   61CHL1   H7B 6933   1.006   3.693   9.930  0.8220 -0.5304 -4.7684
   61CHL1    C8 6934   1.056   3.878   9.812  0.0035  0.8993 -0.7696
   61CHL1    H8 6935   1.153   3.931   9.819  0.1096  0.5059  0.9380
   61CHL1   C14 6936   1.053   3.804   9.679  0.7520 -0.1243 -0.5766
   61CHL1   H14 6937   0.962   3.741   9.689  1.0593 -0.1440  2.8114
   61CHL1   C15 6938   1.168   3.705   9.657 -0.2213 -0.4375 -0.2084
   61CHL1  H15A 6939   1.257   3.765   9.684 -0.3255 -0.7035  0.7638
   61CHL1  H15B 6940   1.166   3.610   9.715 -0.5478 -0.7324 -0.6960
   61CHL1   C16 6941   1.157   3.685   9.509  0.0572 -0.2287  0.1069
   61CHL1  H16A 6942   1.261   3.683   9.469 -0.1483 -1.0452 -0.3936
   61CHL1  H16B 6943   1.105   3.587   9.507  2.7136 -1.6622 -0.6305
   61CHL1   C17 6944   1.069   3.798   9.443 -0.4910 -0.9337  0.8251
   61CHL1   H17 6945   0.964   3.761   9.434 -1.1496  1.3175 -1.2428
   61CHL1   C13 6946   1.056   3.896   9.557 -0.0239 -0.1020  0.8294
   61CHL1   C18 6947   1.177   3.994   9.559 -0.2429  0.0921 -0.0242
   61CHL1  H18A 6948   1.266   3.933   9.529  1.0400  1.4178  1.0097
   61CHL1  H18B 6949   1.160   4.074   9.483 -0.0015  0.4709  0.3178
   61CHL1  H18C 6950   1.194   4.038   9.659  0.7187 -3.2431  1.3559
   61CHL1   C12 6951   0.923   3.976   9.567 -1.8060  0.5190 -0.3375
   61CHL1  H12A 6952   0.904   4.048   9.484  0.9377  1.4907 -0.1550
   61CHL1  H12B 6953   0.838   3.904   9.561 -2.3072  0.8840  1.8419
   61CHL1   C11 6954   0.913   4.053   9.698 -0.6459 -0.2354 -0.0719
   61CHL1  H11A 6955   0.985   4.137   9.689  0.6824 -1.5648 -2.1072
   61CHL1  H11B 6956   0.808   4.085   9.713 -0.8198 -1.2557  0.9462
   61CHL1    C9 6957   0.938   3.971   9.823  0.2584 -0.1103  0.0626
   61CHL1    H9 6958   0.852   3.902   9.831  1.2297 -1.3772 -0.3590
   61CHL1   C10 6959   0.933   4.053   9.959 -0.0113 -0.3787  0.2687
   61CHL1   C19 6960   1.024   4.186   9.941 -0.2814 -0.1676  0.0152
   61CHL1  H19A 6961   0.983   4.251   9.861  2.2268 -0.2342 -1.3655
   61CHL1  H19B 6962   1.039   4.238  10.038  1.5791 -0.9779  0.1695
   61CHL1  H19C 6963   1.122   4.152   9.902 -0.9573  1.7072 -3.5321
   61CHL1    C1 6964   0.787   4.103   9.982  0.1199  0.2612  0.1956
   61CHL1   H1A 6965   0.770   4.189   9.913  1.5278  0.7466  0.4274
   61CHL1   H1B 6966   0.720   4.019   9.955 -0.5125  0.7908  0.1190
   61CHL1    C2 6967   0.760   4.149  10.130  0.0979  0.1644  0.0121
   61CHL1   H2A 6968   0.654   4.165  10.158  0.5575  3.0318  0.1884
   61CHL1   H2B 6969   0.815   4.245  10.139  1.3016 -0.4204 -0.8260
   61CHL1   C20 6970   1.109   3.838   9.305  0.0572 -0.2405  0.0633
   61CHL1   H20 6971   1.216   3.867   9.308  0.1145 -0.4783  0.3346
   61CHL1   C21 6972   1.017   3.951   9.240 -0.6804  0.5258 -0.2475
   61CHL1  H21A 6973   1.040   4.055   9.272  0.2330  0.8376 -1.8951
   61CHL1  H21B 6974   0.909   3.940   9.267 -0.7394  0.0536 -0.6813
   61CHL1  H21C 6975   1.015   3.958   9.130  1.5409 -1.3523 -0.4311
   61CHL1   C22 6976   1.098   3.713   9.212  0.3284  0.1309 -0.1861
   61CHL1  H22A 6977   1.168   3.638   9.252  1.3102 -1.1050 -4.0071
   61CHL1  H22B 6978   0.995   3.671   9.214  1.1400 -1.9348 -0.5361
   61CHL1   C23 6979   1.151   3.739   9.067  0.5259 -0.1257  0.6625
   61CHL1  H23A 6980   1.088   3.813   9.015  1.6427  0.1006 -0.3980
   61CHL1  H23B 6981   1.254   3.780   9.067 -0.4123  2.4383 -2.3168
   61CHL1   C24 6982   1.160   3.608   8.989  0.2749  0.0671  0.1745
   61CHL1  H24A 6983   1.220   3.527   9.036 -1.3953 -1.1001  0.3260
   61CHL1  H24B 6984   1.054   3.573   8.990  1.0092 -2.2062  0.9573
   61CHL1   C25 6985   1.207   3.620   8.840 -0.4456  0.0889 -0.7039
   61CHL1   H25 6986   1.134   3.689   8.793 -1.4203 -1.5544 -1.6501
   61CHL1   C26 6987   1.345   3.680   8.816 -0.1463  0.4918 -0.8757
   61CHL1  H26A 6988   1.412   3.629   8.889 -0.5806  0.1305 -0.7279
   61CHL1  H26B 6989   1.378   3.659   8.711  0.6154  1.8232 -0.9041
   61CHL1  H26C 6990   1.353   3.789   8.836  0.7331  0.2730  0.0052
   61CHL1   C27 6991   1.216   3.485   8.759 -0.3818 -0.3273 -0.6126
   61CHL1  H27A 6992   1.238   3.508   8.652 -2.4329  0.1830 -0.9542
   61CHL1  H27B 6993   1.284   3.412   8.807 -0.0322  0.9548  0.9135
   61CHL1  H27C 6994   1.112   3.447   8.763  0.2562 -1.8793  1.6630
   62CHL1    C3 6995   1.987   0.411  10.019 -0.1362 -0.2190 -1.3874
   62CHL1    H3 6996   2.061   0.494  10.020  0.3249 -0.6426  0.6790
   62CHL1    O3 6997   1.923   0.409  10.144 -0.4102  0.0180 -0.1933
   62CHL1   H3' 6998   1.832   0.414  10.113  0.3458  0.1291 -2.5295
   62CHL1    C4 6999   1.873   0.448   9.916 -0.1029 -0.1134  0.6393
   62CHL1   H4A 7000   1.797   0.368   9.915  0.3079 -0.5002 -0.0890
   62CHL1   H4B 7001   1.821   0.538   9.955 -0.7190 -0.4315  0.5500
   62CHL1    C5 7002   1.928   0.465   9.776  0.1272 -0.1932 -0.0083
   62CHL1    C6 7003   1.917   0.580   9.705  0.1385  0.7042 -0.4154
   62CHL1    H6 7004   1.860   0.662   9.752 -0.5953  0.2908 -0.5698
   62CHL1    C7 7005   1.951   0.591   9.560  0.4367  0.0017  0.2175
   62CHL1   H7A 7006   1.880   0.653   9.503 -0.9247 -2.5639 -0.9919
   62CHL1   H7B 7007   2.047   0.647   9.561  0.6810 -0.4137  0.7349
   62CHL1    C8 7008   1.965   0.451   9.496 -0.0707 -1.1515 -0.3539
   62CHL1    H8 7009   1.858   0.423   9.487 -0.7681  1.0311  0.5604
   62CHL1   C14 7010   2.042   0.477   9.363 -0.2061 -0.2450  0.0327
   62CHL1   H14 7011   2.144   0.513   9.389  0.0090  1.8055 -3.3470
   62CHL1   C15 7012   1.985   0.579   9.259 -0.2489  0.3171  0.3571
   62CHL1  H15A 7013   1.875   0.568   9.246 -0.0659  1.6403 -2.6964
   62CHL1  H15B 7014   2.003   0.682   9.296 -0.3413 -0.2069  1.9253
   62CHL1   C16 7015   2.059   0.536   9.132  0.4040 -0.3100  0.3761
   62CHL1  H16A 7016   1.986   0.529   9.049 -0.8906  2.2679  1.2528
   62CHL1  H16B 7017   2.127   0.617   9.096 -2.0249  1.6914  0.1609
   62CHL1   C17 7018   2.134   0.402   9.158  0.7315 -0.3391 -0.0669
   62CHL1   H17 7019   2.236   0.429   9.193  1.0699 -1.1316 -0.4156
   62CHL1   C13 7020   2.068   0.348   9.286  0.1937 -0.1857 -0.6035
   62CHL1   C18 7021   1.934   0.276   9.257  1.2444 -0.3960 -0.0607
   62CHL1  H18A 7022   1.889   0.225   9.345  2.6076 -0.9087  0.3513
   62CHL1  H18B 7023   1.864   0.347   9.207  1.0918 -0.0469  0.6444
   62CHL1  H18C 7024   1.967   0.191   9.194  0.2043 -1.2791  0.5732
   62CHL1   C12 7025   2.161   0.257   9.370 -0.1186  0.2619  0.0967
   62CHL1  H12A 7026   2.171   0.163   9.311 -1.9791 -0.8291  1.4757
   62CHL1  H12B 7027   2.260   0.309   9.372  0.7517 -1.2970 -1.0152
   62CHL1   C11 7028   2.103   0.231   9.513 -0.0170  0.0553 -0.3458
   62CHL1  H11A 7029   2.019   0.160   9.499  0.3227 -0.2048 -1.0878
   62CHL1  H11B 7030   2.169   0.176   9.584 -2.0160 -0.8506  0.8596
   62CHL1    C9 7031   2.049   0.359   9.585 -0.9712  0.5213  0.3925
   62CHL1    H9 7032   2.140   0.422   9.593 -2.0806  2.4916 -2.0285
   62CHL1   C10 7033   1.997   0.333   9.726  0.5243 -0.0606  0.5177
   62CHL1   C19 7034   1.903   0.209   9.721  0.3331  0.1067  0.0186
   62CHL1  H19A 7035   1.818   0.225   9.652  1.3873 -3.0772 -2.1353
   62CHL1  H19B 7036   1.971   0.125   9.695  0.9510  1.0630 -1.5670
   62CHL1  H19C 7037   1.870   0.167   9.818  0.4741  0.4030  0.1949
   62CHL1    C1 7038   2.112   0.300   9.830  0.2702 -0.4306  0.4166
   62CHL1   H1A 7039   2.166   0.206   9.805  1.3342 -0.6411  3.3258
   62CHL1   H1B 7040   2.194   0.374   9.829  1.4742 -1.7513 -0.0060
   62CHL1    C2 7041   2.065   0.284   9.978  0.1490  0.2214  0.2727
   62CHL1   H2A 7042   2.154   0.268  10.042  1.3530  0.8719 -1.2188
   62CHL1   H2B 7043   1.997   0.196   9.987  0.2883 -0.0056 -0.8618
   62CHL1   C20 7044   2.147   0.307   9.033 -0.1157  0.1800  0.4053
   62CHL1   H20 7045   2.154   0.205   9.076 -0.9399 -0.0812 -0.0684
   62CHL1   C21 7046   2.279   0.335   8.956  0.0793  0.6073  0.2470
   62CHL1  H21A 7047   2.296   0.258   8.877 -0.0114  0.7719  0.0686
   62CHL1  H21B 7048   2.357   0.336   9.035 -2.3866 -0.6363  2.7833
   62CHL1  H21C 7049   2.268   0.436   8.911 -1.0089  1.8282  3.1753
   62CHL1   C22 7050   2.025   0.302   8.940  0.0302  0.3251  0.2057
   62CHL1  H22A 7051   1.933   0.290   9.001  0.6437  0.4719  1.1665
   62CHL1  H22B 7052   2.019   0.401   8.891 -1.1764  2.0397  3.6517
   62CHL1   C23 7053   2.025   0.182   8.836  0.6920  0.0245  0.5473
   62CHL1  H23A 7054   2.112   0.196   8.769 -1.0909 -0.2620 -1.8756
   62CHL1  H23B 7055   2.039   0.089   8.895  2.4756 -0.0073  0.1169
   62CHL1   C24 7056   1.894   0.193   8.756  0.2601 -0.4531 -0.0106
   62CHL1  H24A 7057   1.806   0.140   8.798 -1.2322  1.7844 -0.2205
   62CHL1  H24B 7058   1.865   0.296   8.725  0.4306 -0.0915  1.0052
   62CHL1   C25 7059   1.911   0.127   8.617 -0.0418 -0.6216  0.0581
   62CHL1   H25 7060   1.991   0.183   8.566 -3.0143  0.7610 -3.2993
   62CHL1   C26 7061   1.935  -0.030   8.626  0.2572  0.6633 -0.4681
   62CHL1  H26A 7062   1.850  -0.079   8.679  0.9105  0.5743  0.5035
   62CHL1  H26B 7063   1.940  -0.071   8.523  3.1119 -2.3326  0.7880
   62CHL1  H26C 7064   2.017  -0.055   8.697 -1.5676  2.0775  2.2734
   62CHL1   C27 7065   1.792   0.158   8.522 -0.5568  0.0155  0.6710
   62CHL1  H27A 7066   1.697   0.124   8.568  1.1582 -0.6674  3.8628
   62CHL1  H27B 7067   1.795   0.262   8.483  0.6155 -0.6456 -1.0945
   62CHL1  H27C 7068   1.798   0.092   8.432 -0.9727  1.9676 -0.8182
   63CHL1    C3 7069   3.055   2.270  10.394 -0.1623  0.6989 -0.6399
   63CHL1    H3 7070   3.150   2.319  10.423  0.3055 -0.6435  0.1723
   63CHL1    O3 7071   2.970   2.267  10.504  0.1830 -0.0540  0.0627
   63CHL1   H3' 7072   2.885   2.239  10.470  0.5976 -0.1491 -0.9297
   63CHL1    C4 7073   2.989   2.361  10.288  0.3330 -0.0387 -0.1805
   63CHL1   H4A 7074   2.881   2.335  10.277 -0.2154  2.1309 -0.1850
   63CHL1   H4B 7075   2.991   2.460  10.339  0.3390 -0.3346  0.3949
   63CHL1    C5 7076   3.069   2.355  10.162 -0.6726  0.5392 -0.5463
   63CHL1    C6 7077   3.121   2.465  10.110 -0.3308  0.5516  0.2343
   63CHL1    H6 7078   3.114   2.565  10.154  0.8729  0.5697  0.4272
   63CHL1    C7 7079   3.194   2.457   9.980 -0.3093 -0.0808 -0.7103
   63CHL1   H7A 7080   3.171   2.549   9.922 -0.0797 -0.0069 -0.6814
   63CHL1   H7B 7081   3.299   2.458  10.016  0.1493 -1.3432 -2.0037
   63CHL1    C8 7082   3.167   2.329   9.896 -0.1411  0.2287  0.5234
   63CHL1    H8 7083   3.067   2.336   9.846  1.0913  4.7561 -1.5788
   63CHL1   C14 7084   3.276   2.324   9.784 -0.0729  0.1083 -0.3335
   63CHL1   H14 7085   3.376   2.323   9.832  0.0280 -1.5376 -0.5503
   63CHL1   C15 7086   3.288   2.455   9.698  0.2562  0.3096  0.7702
   63CHL1  H15A 7087   3.191   2.500   9.666  0.8590  3.5437  3.1860
   63CHL1  H15B 7088   3.343   2.528   9.761  2.0238 -0.7218  0.4398
   63CHL1   C16 7089   3.363   2.407   9.575  0.0844 -0.3800 -0.2916
   63CHL1  H16A 7090   3.307   2.442   9.486  1.1442  1.2349 -0.3247
   63CHL1  H16B 7091   3.466   2.446   9.565  0.0458 -0.3931 -0.7314
   63CHL1   C17 7092   3.365   2.249   9.582 -0.5025  0.1362  0.6665
   63CHL1   H17 7093   3.459   2.219   9.633  0.2818 -1.9364 -1.9321
   63CHL1   C13 7094   3.259   2.212   9.688  0.4654 -0.1408  0.0262
   63CHL1   C18 7095   3.123   2.237   9.611 -0.2528  0.2789 -0.7289
   63CHL1  H18A 7096   3.039   2.231   9.683 -0.2235  0.7153 -0.6557
   63CHL1  H18B 7097   3.119   2.340   9.568  0.3503  0.3544 -0.6079
   63CHL1  H18C 7098   3.101   2.162   9.532 -1.7077  0.3644 -0.4019
   63CHL1   C12 7099   3.267   2.075   9.761  0.3270 -0.6611 -0.3472
   63CHL1  H12A 7100   3.234   1.992   9.694 -1.7347 -0.8416  0.8409
   63CHL1  H12B 7101   3.364   2.063   9.812 -0.4084 -2.0046  0.7780
   63CHL1   C11 7102   3.176   2.074   9.890 -0.5358  0.8461  0.5821
   63CHL1  H11A 7103   3.073   2.059   9.852 -0.4938  3.3687 -0.6605
   63CHL1  H11B 7104   3.201   1.985   9.952  0.5725  2.3746  2.4040
   63CHL1    C9 7105   3.184   2.203   9.979  0.2046 -0.1358  0.0070
   63CHL1    H9 7106   3.289   2.212  10.016 -0.3180  1.2446  1.1828
   63CHL1   C10 7107   3.095   2.208  10.104 -0.4750 -0.3121 -0.4439
   63CHL1   C19 7108   2.957   2.157  10.071  0.7764  0.0214  0.4682
   63CHL1  H19A 7109   2.905   2.221   9.996  0.9223  0.8932  1.1018
   63CHL1  H19B 7110   2.950   2.054  10.031  1.4906 -0.0296  0.4621
   63CHL1  H19C 7111   2.885   2.171  10.154 -0.5841  3.8379 -1.2184
   63CHL1    C1 7112   3.169   2.131  10.218 -0.0946  0.3989 -0.4421
   63CHL1   H1A 7113   3.190   2.028  10.182  0.8130  0.6234 -0.5875
   63CHL1   H1B 7114   3.264   2.188  10.232  0.5935 -1.3030  2.0957
   63CHL1    C2 7115   3.089   2.129  10.349 -0.0378 -0.0925  0.3348
   63CHL1   H2A 7116   3.149   2.082  10.431  0.0595  1.1669  0.9997
   63CHL1   H2B 7117   3.001   2.064  10.329  0.4598 -1.0786  1.2416
   63CHL1   C20 7118   3.366   2.186   9.446  0.2612  0.1706  0.3423
   63CHL1   H20 7119   3.268   2.182   9.393 -0.9583 -0.7692  2.5809
   63CHL1   C21 7120   3.405   2.034   9.453 -0.6074  0.2225  0.0705
   63CHL1  H21A 7121   3.327   1.972   9.502 -1.6624  1.3828 -0.0848
   63CHL1  H21B 7122   3.495   2.014   9.514 -0.2031 -2.4393 -1.3528
   63CHL1  H21C 7123   3.423   1.983   9.356 -0.1978  0.3801  0.0655
   63CHL1   C22 7124   3.472   2.251   9.348  0.4759  0.4053 -0.0184
   63CHL1  H22A 7125   3.477   2.362   9.341  1.8785  0.4078  0.8686
   63CHL1  H22B 7126   3.567   2.223   9.399  0.8783 -1.4551 -1.7105
   63CHL1   C23 7127   3.471   2.197   9.202 -0.0907 -0.4274 -0.4821
   63CHL1  H23A 7128   3.507   2.094   9.223  0.4966  0.4790  3.2415
   63CHL1  H23B 7129   3.371   2.202   9.153  0.4155 -2.0508 -1.7531
   63CHL1   C24 7130   3.568   2.268   9.105 -0.4092 -0.9345  0.0168
   63CHL1  H24A 7131   3.534   2.374   9.102  1.3597 -0.3712 -0.1891
   63CHL1  H24B 7132   3.670   2.262   9.147 -0.6204  3.6606  1.4199
   63CHL1   C25 7133   3.563   2.236   8.950 -0.6800 -0.4492  0.8296
   63CHL1   H25 7134   3.484   2.299   8.904  0.5476  0.0633 -0.5915
   63CHL1   C26 7135   3.695   2.275   8.877  0.3532 -0.1177  0.5281
   63CHL1  H26A 7136   3.711   2.385   8.880 -0.7231  0.0793 -0.4019
   63CHL1  H26B 7137   3.782   2.223   8.922  1.7392  1.3901 -0.3408
   63CHL1  H26C 7138   3.696   2.239   8.772 -0.8230  3.9434 -0.9862
   63CHL1   C27 7139   3.534   2.089   8.935  0.7480  0.2073  0.4092
   63CHL1  H27A 7140   3.533   2.052   8.830 -0.7895 -0.8985  0.7891
   63CHL1  H27B 7141   3.614   2.026   8.979 -1.4764 -1.1265  2.6654
   63CHL1  H27C 7142   3.440   2.058   8.985 -0.4888  1.9747 -0.7408
   64CHL1    C3 7143   2.563   1.838   9.987 -0.0138  0.3229  0.4312
   64CHL1    H3 7144   2.646   1.769   9.960 -1.0365 -0.6283 -0.3295
   64CHL1    O3 7145   2.559   1.846  10.126  0.5737  0.1587 -0.1942
   64CHL1   H3' 7146   2.467   1.857  10.150  0.2162 -0.9361 -1.0303
   64CHL1    C4 7147   2.583   1.976   9.912  0.5602  0.1507  0.0689
   64CHL1   H4A 7148   2.497   2.042   9.936 -1.0914 -2.3722  1.4408
   64CHL1   H4B 7149   2.674   2.020   9.957 -0.2460 -0.8103  2.7603
   64CHL1    C5 7150   2.598   1.950   9.764  0.3405 -0.4899 -0.0438
   64CHL1    C6 7151   2.716   1.974   9.701  0.6814  1.1444  0.2116
   64CHL1    H6 7152   2.804   2.003   9.760  2.3703 -2.2519 -0.5152
   64CHL1    C7 7153   2.737   1.968   9.555  0.0298  0.8088 -0.0778
   64CHL1   H7A 7154   2.767   2.070   9.523 -3.7558  1.7280 -0.9786
   64CHL1   H7B 7155   2.816   1.891   9.537 -0.6518 -0.1923  1.1280
   64CHL1    C8 7156   2.602   1.940   9.486 -0.1616 -0.4886  0.1378
   64CHL1    H8 7157   2.553   2.039   9.472 -2.2451 -1.4295  0.6737
   64CHL1   C14 7158   2.636   1.889   9.349 -0.0719 -0.3267 -0.3278
   64CHL1   H14 7159   2.693   1.797   9.372 -0.8156 -0.7571 -0.1593
   64CHL1   C15 7160   2.730   1.960   9.257 -0.0875 -0.6252 -0.2653
   64CHL1  H15A 7161   2.696   2.066   9.261 -2.5953 -1.3983 -0.0901
   64CHL1  H15B 7162   2.840   1.955   9.276  0.4254  0.8881 -2.6640
   64CHL1   C16 7163   2.704   1.908   9.116 -0.2874 -0.1863 -1.6194
   64CHL1  H16A 7164   2.685   1.995   9.049  1.1354  3.0830  2.0798
   64CHL1  H16B 7165   2.794   1.848   9.090 -0.1578 -1.0835  0.7892
   64CHL1   C17 7166   2.589   1.801   9.128  0.2451  0.0118 -0.5764
   64CHL1   H17 7167   2.635   1.704   9.154 -3.3706 -1.9106 -1.0377
   64CHL1   C13 7168   2.516   1.847   9.257 -0.4863 -0.2552  0.2007
   64CHL1   C18 7169   2.429   1.965   9.241  0.2887  0.4341  0.4200
   64CHL1  H18A 7170   2.328   1.926   9.215  0.5770 -0.0361 -0.0157
   64CHL1  H18B 7171   2.417   2.032   9.328  0.8016  0.8900  0.1440
   64CHL1  H18C 7172   2.452   2.037   9.159  1.2967  1.2578  1.4217
   64CHL1   C12 7173   2.443   1.731   9.339 -0.0667  0.0632 -0.5399
   64CHL1  H12A 7174   2.357   1.699   9.276  1.7424  0.1528 -3.1268
   64CHL1  H12B 7175   2.511   1.643   9.338 -1.2692 -0.9196  0.6360
   64CHL1   C11 7176   2.389   1.782   9.475 -0.4106  0.4027  0.4947
   64CHL1  H11A 7177   2.307   1.853   9.454 -0.3140 -0.5255 -3.5485
   64CHL1  H11B 7178   2.334   1.705   9.534 -1.0609 -0.0681 -0.7076
   64CHL1    C9 7179   2.515   1.834   9.552 -0.3256 -0.4483  0.1894
   64CHL1    H9 7180   2.574   1.741   9.565 -0.6238 -0.3680  2.2910
   64CHL1   C10 7181   2.471   1.883   9.693  0.4801  0.3180  1.1162
   64CHL1   C19 7182   2.367   1.983   9.692  0.2469  0.0165  0.6080
   64CHL1  H19A 7183   2.277   1.934   9.650 -1.2755  3.1784 -0.0246
   64CHL1  H19B 7184   2.350   2.024   9.794 -1.6862 -1.9350  1.0942
   64CHL1  H19C 7185   2.391   2.064   9.619 -0.8905  0.1297  0.3504
   64CHL1    C1 7186   2.438   1.762   9.778 -0.1806  0.5488  0.2733
   64CHL1   H1A 7187   2.340   1.718   9.750 -0.4236  0.8170  0.7090
   64CHL1   H1B 7188   2.525   1.694   9.762 -0.0957  1.0537 -1.4379
   64CHL1    C2 7189   2.434   1.776   9.936  0.1256 -0.4149  0.4942
   64CHL1   H2A 7190   2.420   1.679   9.987 -3.0968  1.4326  3.2838
   64CHL1   H2B 7191   2.348   1.842   9.958  0.5225  0.2565  0.0844
   64CHL1   C20 7192   2.504   1.803   8.998 -0.0860 -0.8449  0.3544
   64CHL1   H20 7193   2.468   1.907   8.987 -0.0248 -0.6429  2.0042
   64CHL1   C21 7194   2.392   1.700   9.012 -0.2277 -0.5335 -0.1694
   64CHL1  H21A 7195   2.351   1.679   8.912  0.5516 -0.4496 -0.5136
   64CHL1  H21B 7196   2.315   1.747   9.077  0.9080 -0.4388  1.1627
   64CHL1  H21C 7197   2.432   1.605   9.055 -1.9150 -0.6385  1.2248
   64CHL1   C22 7198   2.593   1.774   8.873 -0.4552 -0.7266  0.1233
   64CHL1  H22A 7199   2.530   1.750   8.784 -0.1059  0.1950 -0.3762
   64CHL1  H22B 7200   2.661   1.854   8.837  0.0059 -1.2119 -0.0930
   64CHL1   C23 7201   2.686   1.653   8.890 -0.1270  0.6805  0.0692
   64CHL1  H23A 7202   2.735   1.645   8.989  1.2640 -0.1829 -0.6812
   64CHL1  H23B 7203   2.631   1.557   8.881 -1.2162  1.0976  2.0189
   64CHL1   C24 7204   2.798   1.649   8.786  0.7163 -0.2175 -0.2875
   64CHL1  H24A 7205   2.739   1.642   8.692 -2.5296  1.3231  1.5379
   64CHL1  H24B 7206   2.854   1.745   8.785 -1.3355  0.9769 -1.6839
   64CHL1   C25 7207   2.881   1.519   8.788 -0.2936 -0.7401  0.2745
   64CHL1   H25 7208   2.930   1.503   8.886 -0.0848  3.0593  0.8484
   64CHL1   C26 7209   2.799   1.399   8.745  0.0717 -0.3557 -0.0078
   64CHL1  H26A 7210   2.703   1.395   8.800 -0.3670  1.4808 -0.6274
   64CHL1  H26B 7211   2.780   1.405   8.636 -0.1139 -2.3864 -0.1005
   64CHL1  H26C 7212   2.852   1.306   8.776 -0.5077 -0.3132  1.1357
   64CHL1   C27 7213   2.991   1.540   8.683 -0.5748 -0.6154 -0.3993
   64CHL1  H27A 7214   3.043   1.442   8.670 -0.0302 -0.6423  1.7198
   64CHL1  H27B 7215   2.955   1.578   8.586  0.2186  0.7422 -0.1767
   64CHL1  H27C 7216   3.058   1.622   8.715 -1.6570 -0.4000  1.4300
   65CHL1    C3 7217   4.994   5.662  10.285 -0.0782  0.0902 -0.0306
   65CHL1    H3 7218   4.979   5.564  10.234 -1.5788  0.0142  0.5413
   65CHL1    O3 7219   5.042   5.631  10.409 -0.0026  0.6776  0.4175
   65CHL1   H3' 7220   5.089   5.708  10.442  1.4333 -0.4987  1.1500
   65CHL1    C4 7221   5.096   5.751  10.206 -0.2314  0.4749  0.3922
   65CHL1   H4A 7222   5.114   5.839  10.271 -3.5070  1.9807 -0.6470
   65CHL1   H4B 7223   5.187   5.689  10.219 -0.5202  0.0513  0.4373
   65CHL1    C5 7224   5.044   5.795  10.065  0.1799 -0.4137 -0.1872
   65CHL1    C6 7225   5.113   5.758   9.957  0.2980  0.7452 -0.2053
   65CHL1    H6 7226   5.205   5.701   9.973  0.1820  0.8718  0.9756
   65CHL1    C7 7227   5.074   5.797   9.821  0.0282  0.6976  0.4183
   65CHL1   H7A 7228   5.157   5.833   9.757 -0.1034  2.7533  1.3733
   65CHL1   H7B 7229   5.033   5.706   9.773  2.3310 -0.1836  0.0438
   65CHL1    C8 7230   4.950   5.889   9.808 -0.7593 -0.1345  0.0525
   65CHL1    H8 7231   4.975   5.996   9.824 -0.3713 -0.2905  0.5013
   65CHL1   C14 7232   4.885   5.870   9.666  0.0795 -0.0405 -0.6993
   65CHL1   H14 7233   4.874   5.760   9.654 -1.2137 -0.0573  0.5901
   65CHL1   C15 7234   4.969   5.916   9.545  0.4228  0.0040 -0.8501
   65CHL1  H15A 7235   5.023   6.010   9.572 -2.9546  2.4990 -2.3633
   65CHL1  H15B 7236   5.049   5.841   9.528  0.1564 -0.3330 -0.6089
   65CHL1   C16 7237   4.868   5.944   9.437 -0.7483  0.6343 -0.1928
   65CHL1  H16A 7238   4.879   6.048   9.398 -1.1547 -0.4348 -3.2921
   65CHL1  H16B 7239   4.893   5.888   9.344  1.5190  0.0931  0.6966
   65CHL1   C17 7240   4.719   5.925   9.497 -0.2910  0.2464 -0.4438
   65CHL1   H17 7241   4.691   5.818   9.492 -1.7134  0.6009 -0.2742
   65CHL1   C13 7242   4.753   5.948   9.651  0.1116 -0.1397  0.4422
   65CHL1   C18 7243   4.770   6.106   9.672  0.5125  0.3262 -0.8594
   65CHL1  H18A 7244   4.829   6.158   9.594  1.1159 -2.4679 -2.3213
   65CHL1  H18B 7245   4.665   6.142   9.678  0.3743  0.0688 -1.6656
   65CHL1  H18C 7246   4.808   6.127   9.774 -1.0831 -2.8042  0.4241
   65CHL1   C12 7247   4.652   5.886   9.754  0.0120 -0.1082  0.3126
   65CHL1  H12A 7248   4.551   5.934   9.755  0.1828  0.2778 -0.9320
   65CHL1  H12B 7249   4.641   5.777   9.735 -1.2693  0.3610 -1.8288
   65CHL1   C11 7250   4.703   5.910   9.899 -0.5667  0.1916  0.6243
   65CHL1  H11A 7251   4.708   6.014   9.937  2.2095 -0.1151  1.2514
   65CHL1  H11B 7252   4.633   5.854   9.964 -0.3638  0.4734  1.0866
   65CHL1    C9 7253   4.848   5.849   9.914  0.2649  0.6621 -0.2791
   65CHL1    H9 7254   4.831   5.741   9.895 -0.7250  0.5154  1.4225
   65CHL1   C10 7255   4.905   5.860  10.060  0.1958  0.0154 -0.6161
   65CHL1   C19 7256   4.901   6.005  10.110  0.4682  0.3195 -0.0501
   65CHL1  H19A 7257   4.801   6.053  10.101  0.5762  0.1516 -2.2627
   65CHL1  H19B 7258   4.921   5.997  10.219 -0.8800 -1.5797  0.0871
   65CHL1  H19C 7259   4.978   6.070  10.064  0.2157 -0.1815 -1.1951
   65CHL1    C1 7260   4.802   5.778  10.154  0.1040  0.4065 -0.3321
   65CHL1   H1A 7261   4.704   5.830  10.161 -0.1980 -0.3947  1.4976
   65CHL1   H1B 7262   4.783   5.688  10.091 -0.7904  1.6816 -1.9520
   65CHL1    C2 7263   4.859   5.741  10.292  0.1439 -0.1687 -0.2119
   65CHL1   H2A 7264   4.786   5.673  10.341 -0.1623  0.8268  0.7134
   65CHL1   H2B 7265   4.871   5.826  10.362  1.8136  1.3565 -2.2592
   65CHL1   C20 7266   4.625   6.020   9.424 -0.1775 -0.0173  0.2580
   65CHL1   H20 7267   4.662   6.125   9.424 -1.2393  0.3600  0.7622
   65CHL1   C21 7268   4.488   6.012   9.500 -0.0854 -0.1584 -0.3609
   65CHL1  H21A 7269   4.404   6.059   9.443 -0.6752  0.8515  1.3066
   65CHL1  H21B 7270   4.510   6.068   9.593 -2.0430 -0.0878  0.0749
   65CHL1  H21C 7271   4.467   5.905   9.517 -2.1403  0.2709  0.0081
   65CHL1   C22 7272   4.611   5.986   9.266  0.5242 -0.3190  0.4502
   65CHL1  H22A 7273   4.544   6.067   9.231  0.7711 -0.7108 -0.9811
   65CHL1  H22B 7274   4.713   6.011   9.230  0.6187  0.3576  1.1761
   65CHL1   C23 7275   4.580   5.842   9.239  0.3022  0.3631  0.5012
   65CHL1  H23A 7276   4.662   5.789   9.291 -0.5274  0.9207  2.4563
   65CHL1  H23B 7277   4.483   5.828   9.293 -0.9147  0.0473 -1.7138
   65CHL1   C24 7278   4.557   5.812   9.087 -0.2373  0.3875  0.8337
   65CHL1  H24A 7279   4.647   5.842   9.030  0.4451 -1.8365  0.6875
   65CHL1  H24B 7280   4.529   5.706   9.066 -0.2467 -0.1079  3.2151
   65CHL1   C25 7281   4.457   5.900   9.013  0.2619 -0.3980  0.0511
   65CHL1   H25 7282   4.494   6.004   9.019 -1.4644  0.2576 -0.3455
   65CHL1   C26 7283   4.442   5.857   8.860  0.8498 -0.2557 -0.2287
   65CHL1  H26A 7284   4.386   5.762   8.850  1.2612 -0.2504 -2.9038
   65CHL1  H26B 7285   4.383   5.933   8.806  1.9409  1.6331  1.1850
   65CHL1  H26C 7286   4.538   5.849   8.804  0.9679 -1.4508  0.1330
   65CHL1   C27 7287   4.313   5.906   9.072 -0.5508  0.2585 -0.0341
   65CHL1  H27A 7288   4.267   5.813   9.032  0.6667  0.1039 -1.0768
   65CHL1  H27B 7289   4.325   5.897   9.182 -0.8650 -0.3944 -0.0528
   65CHL1  H27C 7290   4.253   5.993   9.038 -1.3099 -0.2745 -0.0857
   66CHL1    C3 7291   2.916   3.234  10.647  0.0015  0.2330 -0.7154
   66CHL1    H3 7292   2.995   3.161  10.621  0.4433 -0.0481  1.3406
   66CHL1    O3 7293   2.889   3.220  10.784 -0.3052 -0.1168 -0.1391
   66CHL1   H3' 7294   2.895   3.126  10.802 -0.5302 -0.2485 -0.7476
   66CHL1    C4 7295   2.977   3.371  10.609  0.4973  0.0831 -0.3436
   66CHL1   H4A 7296   2.904   3.447  10.641 -1.2384 -2.2202  1.3558
   66CHL1   H4B 7297   3.073   3.389  10.661  0.6357  3.2312 -1.6117
   66CHL1    C5 7298   2.982   3.377  10.456 -0.0487  0.0139  0.5920
   66CHL1    C6 7299   3.100   3.401  10.399  0.2923  0.3202  0.2778
   66CHL1    H6 7300   3.192   3.421  10.456  2.2121  0.8381 -2.8326
   66CHL1    C7 7301   3.114   3.401  10.253 -0.0867  0.2512 -0.2115
   66CHL1   H7A 7302   3.189   3.473  10.214  2.0677 -0.2497  2.7815
   66CHL1   H7B 7303   3.153   3.301  10.223 -0.3754  0.5901 -1.7278
   66CHL1    C8 7304   2.985   3.406  10.166 -0.9681 -0.4219  0.3063
   66CHL1    H8 7305   2.963   3.514  10.158  0.0363 -0.1977  0.5192
   66CHL1   C14 7306   3.009   3.386  10.014  0.3709  0.3806 -0.1103
   66CHL1   H14 7307   3.041   3.282   9.993 -0.6881  0.0600 -0.1649
   66CHL1   C15 7308   3.120   3.472   9.940 -0.5985 -0.2966 -0.4896
   66CHL1  H15A 7309   3.115   3.574   9.982 -1.8667 -1.0090  1.1750
   66CHL1  H15B 7310   3.216   3.421   9.959 -0.6380 -0.4442 -0.6705
   66CHL1   C16 7311   3.073   3.464   9.798 -0.6234 -0.8579 -0.6166
   66CHL1  H16A 7312   3.052   3.567   9.760 -0.3023 -1.0187 -1.2288
   66CHL1  H16B 7313   3.151   3.416   9.736  1.1529 -0.1532  1.0169
   66CHL1   C17 7314   2.940   3.387   9.791  0.5389 -0.1818 -0.1151
   66CHL1   H17 7315   2.963   3.280   9.771 -0.9426 -0.4903 -0.2255
   66CHL1   C13 7316   2.877   3.398   9.931  0.1868 -0.1082  0.5263
   66CHL1   C18 7317   2.816   3.543   9.942 -0.4943 -0.0671  0.2475
   66CHL1  H18A 7318   2.782   3.571  10.044  1.1001  1.4165  0.3862
   66CHL1  H18B 7319   2.899   3.606   9.903  1.6323 -4.2292 -2.3524
   66CHL1  H18C 7320   2.721   3.561   9.887  0.3619  0.8574 -0.9367
   66CHL1   C12 7321   2.778   3.284   9.977 -0.6279 -0.1830 -0.6207
   66CHL1  H12A 7322   2.681   3.300   9.926 -0.7098  1.2099 -0.0464
   66CHL1  H12B 7323   2.819   3.186   9.946 -1.4603 -0.9141  0.5573
   66CHL1   C11 7324   2.751   3.294  10.126 -0.2490 -0.0311  0.0439
   66CHL1  H11A 7325   2.703   3.391  10.149 -1.1042 -0.5601  0.5296
   66CHL1  H11B 7326   2.685   3.209  10.152 -0.2950  0.2525  0.8952
   66CHL1    C9 7327   2.885   3.304  10.218  0.4813  0.8627 -0.3170
   66CHL1    H9 7328   2.930   3.204  10.207  1.2314  1.0695  0.8401
   66CHL1   C10 7329   2.853   3.334  10.372 -0.2255 -0.5849 -0.4162
   66CHL1   C19 7330   2.751   3.446  10.389 -0.1171  0.3081 -0.1657
   66CHL1  H19A 7331   2.654   3.416  10.344  0.7821 -0.8512 -1.3890
   66CHL1  H19B 7332   2.730   3.488  10.489  2.6234  0.0329  0.5891
   66CHL1  H19C 7333   2.780   3.536  10.330 -1.9890  2.2527  1.8318
   66CHL1    C1 7334   2.804   3.203  10.434 -0.2466 -0.5645  0.3454
   66CHL1   H1A 7335   2.707   3.185  10.383 -1.8727  1.0176  2.7910
   66CHL1   H1B 7336   2.880   3.129  10.399  2.2876  1.8787  0.5195
   66CHL1    C2 7337   2.784   3.194  10.583 -0.4231  0.3028 -0.6582
   66CHL1   H2A 7338   2.769   3.089  10.613  0.2565 -0.3059 -2.3744
   66CHL1   H2B 7339   2.704   3.262  10.619  1.1057  3.3548 -2.7319
   66CHL1   C20 7340   2.853   3.403   9.661  0.1746  0.7679  0.2526
   66CHL1   H20 7341   2.796   3.498   9.676  0.1503  0.3723  2.7394
   66CHL1   C21 7342   2.758   3.280   9.631 -0.0912 -0.4449  0.0542
   66CHL1  H21A 7343   2.832   3.201   9.607  2.0114  0.2966  3.7227
   66CHL1  H21B 7344   2.706   3.290   9.534 -1.1288  0.7651  0.7133
   66CHL1  H21C 7345   2.686   3.255   9.712  1.4066 -2.1879  0.8772
   66CHL1   C22 7346   2.953   3.424   9.546  0.0802 -0.0123 -0.1837
   66CHL1  H22A 7347   3.029   3.503   9.561 -0.3108 -0.1203  2.5948
   66CHL1  H22B 7348   3.011   3.330   9.527  1.9357  0.8875  0.9117
   66CHL1   C23 7349   2.882   3.477   9.421 -0.0775  0.2833 -0.4887
   66CHL1  H23A 7350   2.821   3.400   9.371  1.4959  0.5947 -2.9368
   66CHL1  H23B 7351   2.823   3.567   9.450  1.4776  1.1515  0.0902
   66CHL1   C24 7352   2.985   3.517   9.318  0.0336  0.3829  0.4276
   66CHL1  H24A 7353   2.939   3.581   9.240  0.5176  0.3388  0.1072
   66CHL1  H24B 7354   3.063   3.585   9.360  0.7979 -0.0346 -0.3039
   66CHL1   C25 7355   3.063   3.398   9.255  0.8031 -0.0309  0.7535
   66CHL1   H25 7356   3.001   3.307   9.267  1.2109 -0.8756 -2.9229
   66CHL1   C26 7357   3.050   3.410   9.098 -0.0758 -0.4830  0.3410
   66CHL1  H26A 7358   3.102   3.496   9.051  0.9036 -1.2219  0.0418
   66CHL1  H26B 7359   3.097   3.315   9.064  1.8415  0.8100 -0.7009
   66CHL1  H26C 7360   2.939   3.407   9.086 -0.2014  0.3917  1.2276
   66CHL1   C27 7361   3.208   3.375   9.296  0.3500  0.3153  0.7272
   66CHL1  H27A 7362   3.260   3.306   9.227  1.1563 -1.8757  3.4207
   66CHL1  H27B 7363   3.259   3.474   9.287  3.2333 -1.1307  0.6026
   66CHL1  H27C 7364   3.212   3.339   9.401  0.7126 -0.8568  0.3192
   67CHL1    C3 7365   0.239   4.158  10.226  0.0974  0.5390 -0.0950
   67CHL1    H3 7366   0.131   4.132  10.231  0.3622 -0.2479  1.8779
   67CHL1    O3 7367   0.280   4.184  10.363 -0.1262  0.0350  0.2628
   67CHL1   H3' 7368   0.374   4.198  10.352 -0.1208 -0.6101 -0.5812
   67CHL1    C4 7369   0.315   4.038  10.178 -0.3169  0.5958  0.5126
   67CHL1   H4A 7370   0.422   4.066  10.188  0.0474 -0.6063  0.0474
   67CHL1   H4B 7371   0.305   3.960  10.257  0.9526  2.1514  2.2543
   67CHL1    C5 7372   0.268   3.999  10.044  0.5996  0.2476  0.0631
   67CHL1    C6 7373   0.224   3.875  10.018  0.3552 -0.4117 -0.1494
   67CHL1    H6 7374   0.224   3.798  10.097 -0.4117  0.1036  0.3580
   67CHL1    C7 7375   0.184   3.815   9.882  0.5351 -0.1493  0.8379
   67CHL1   H7A 7376   0.240   3.721   9.862  1.3148  0.7165 -1.1890
   67CHL1   H7B 7377   0.075   3.794   9.879  0.9884 -2.4642 -0.6775
   67CHL1    C8 7378   0.215   3.917   9.766 -0.4426  0.4244 -1.0628
   67CHL1    H8 7379   0.323   3.903   9.742  0.0874  1.2335  0.7153
   67CHL1   C14 7380   0.135   3.882   9.647 -0.8915 -0.0006  0.4233
   67CHL1   H14 7381   0.028   3.895   9.676 -1.3152  0.4503 -1.2829
   67CHL1   C15 7382   0.133   3.740   9.591  0.0619 -0.5736  0.0497
   67CHL1  H15A 7383   0.231   3.689   9.590  0.6136  0.4700  0.5963
   67CHL1  H15B 7384   0.054   3.676   9.635  0.3279 -0.7512  0.2699
   67CHL1   C16 7385   0.088   3.766   9.447 -0.2758 -0.0594 -0.4858
   67CHL1  H16A 7386   0.170   3.724   9.385 -0.1529  0.2949 -0.5670
   67CHL1  H16B 7387  -0.006   3.710   9.425  1.3168 -1.9127 -2.8322
   67CHL1   C17 7388   0.077   3.918   9.424  0.2833  0.4896  0.5642
   67CHL1   H17 7389  -0.030   3.941   9.443  0.2197  0.1819  0.5858
   67CHL1   C13 7390   0.167   3.979   9.536 -0.4391 -0.4486 -0.1196
   67CHL1   C18 7391   0.314   3.968   9.481 -0.2094  0.2792  0.4297
   67CHL1  H18A 7392   0.355   3.866   9.462  1.1698  0.8265  0.3685
   67CHL1  H18B 7393   0.337   4.039   9.399 -0.6678  1.6343  1.4524
   67CHL1  H18C 7394   0.381   4.005   9.562  1.3169  1.2954 -1.2684
   67CHL1   C12 7395   0.133   4.123   9.572 -0.0465  0.8470  0.5549
   67CHL1  H12A 7396   0.160   4.189   9.487  0.4362 -0.9424 -0.6976
   67CHL1  H12B 7397   0.024   4.141   9.576 -0.7949 -3.3244  0.2552
   67CHL1   C11 7398   0.208   4.171   9.691  0.4684 -0.7387  0.3543
   67CHL1  H11A 7399   0.313   4.193   9.660  0.6343 -1.3481  0.4682
   67CHL1  H11B 7400   0.167   4.267   9.727  1.2002  0.5216 -2.0136
   67CHL1    C9 7401   0.194   4.062   9.806 -0.0300 -0.4323 -0.6009
   67CHL1    H9 7402   0.087   4.069   9.836  0.2997  0.2620  0.4248
   67CHL1   C10 7403   0.279   4.107   9.933 -0.0134 -0.1913  0.8075
   67CHL1   C19 7404   0.427   4.125   9.904 -0.1337 -0.0156 -0.1908
   67CHL1  H19A 7405   0.452   4.206   9.833 -0.5566  1.1881  1.0165
   67CHL1  H19B 7406   0.483   4.161   9.993 -1.7469  0.6108  0.5935
   67CHL1  H19C 7407   0.480   4.032   9.874 -1.3482 -0.1383 -1.9881
   67CHL1    C1 7408   0.217   4.242   9.998  0.4357  0.2106 -0.4391
   67CHL1   H1A 7409   0.255   4.328   9.939 -0.6625  0.9531 -0.0794
   67CHL1   H1B 7410   0.106   4.237   9.989  0.5334  0.6766 -2.1013
   67CHL1    C2 7411   0.258   4.281  10.133 -0.5825  0.2897 -0.0236
   67CHL1   H2A 7412   0.208   4.376  10.163 -1.2948 -0.1153  0.0705
   67CHL1   H2B 7413   0.364   4.314  10.129 -1.0923  2.0240  0.1834
   67CHL1   C20 7414   0.100   3.967   9.284  0.0771 -0.0465  0.5026
   67CHL1   H20 7415   0.162   4.059   9.294 -0.7156  0.3618  1.6711
   67CHL1   C21 7416  -0.039   4.009   9.219  0.2799 -0.3309 -0.5989
   67CHL1  H21A 7417  -0.091   3.920   9.178  2.5215 -1.6936 -0.6078
   67CHL1  H21B 7418  -0.029   4.065   9.124  1.0176  0.9522  0.2194
   67CHL1  H21C 7419  -0.103   4.069   9.287  1.7971 -0.5895  1.1195
   67CHL1   C22 7420   0.176   3.879   9.181 -0.2132  0.5034  0.2558
   67CHL1  H22A 7421   0.256   3.820   9.231 -2.0632 -3.0658 -0.8443
   67CHL1  H22B 7422   0.110   3.802   9.137  0.5445  0.1817 -0.3175
   67CHL1   C23 7423   0.235   3.946   9.062  0.1175 -0.0689 -0.1664
   67CHL1  H23A 7424   0.165   4.013   9.008 -1.7013 -2.5789 -1.0088
   67CHL1  H23B 7425   0.323   4.007   9.094  0.3158 -0.6903  0.4985
   67CHL1   C24 7426   0.295   3.855   8.950  0.2340 -0.0487 -0.6486
   67CHL1  H24A 7427   0.367   3.778   8.987 -1.4287 -2.0482 -1.4775
   67CHL1  H24B 7428   0.216   3.797   8.897 -1.3475  1.5224 -0.0653
   67CHL1   C25 7429   0.357   3.944   8.844  0.0770 -0.2462  0.0484
   67CHL1   H25 7430   0.297   4.037   8.833  0.3613 -0.0770 -0.1081
   67CHL1   C26 7431   0.501   3.989   8.883  0.3773  0.0086 -0.0813
   67CHL1  H26A 7432   0.531   4.055   8.799 -1.6128  1.3932  0.2548
   67CHL1  H26B 7433   0.504   4.056   8.972 -1.4239  0.7751 -0.5801
   67CHL1  H26C 7434   0.560   3.896   8.898  0.7806  0.1414 -0.8672
   67CHL1   C27 7435   0.345   3.876   8.702  0.2023  0.0507 -0.0615
   67CHL1  H27A 7436   0.240   3.845   8.682 -0.2550  1.2967  0.3084
   67CHL1  H27B 7437   0.386   3.948   8.628  0.5089  2.9678  2.8127
   67CHL1  H27C 7438   0.407   3.784   8.702 -1.7442 -1.2998 -0.6094
   68CHL1    C3 7439   5.096   5.233  10.323  1.2720  0.0275  0.6981
   68CHL1    H3 7440   5.112   5.342  10.337 -1.2393  0.3476  1.4465
   68CHL1    O3 7441   5.123   5.164  10.447 -0.3261 -0.1801 -0.2981
   68CHL1   H3' 7442   5.116   5.073  10.419 -2.1342 -0.8290  2.1766
   68CHL1    C4 7443   4.959   5.207  10.269 -0.0374 -0.3279  0.0670
   68CHL1   H4A 7444   4.944   5.097  10.272  1.5090 -0.4961  2.8898
   68CHL1   H4B 7445   4.875   5.241  10.334  0.4708  1.0007  0.0420
   68CHL1    C5 7446   4.940   5.261  10.126  0.2497 -0.4553  0.0662
   68CHL1    C6 7447   4.838   5.340  10.098 -0.5286 -0.6346 -0.3153
   68CHL1    H6 7448   4.761   5.345  10.177 -0.4844  1.2693 -0.3593
   68CHL1    C7 7449   4.801   5.401   9.965  0.5847  0.6954 -0.1047
   68CHL1   H7A 7450   4.697   5.373   9.936  1.0029  0.1843 -1.1318
   68CHL1   H7B 7451   4.807   5.511   9.976  0.6613  0.7026 -0.2155
   68CHL1    C8 7452   4.883   5.348   9.841 -0.2571 -0.3908 -0.2853
   68CHL1    H8 7453   4.838   5.250   9.818 -1.3276 -0.9453  3.7315
   68CHL1   C14 7454   4.879   5.446   9.725 -0.3617  0.2843  0.3623
   68CHL1   H14 7455   4.917   5.543   9.764  0.4871  2.0839 -4.4988
   68CHL1   C15 7456   4.741   5.488   9.673 -0.7436  0.2582 -0.0288
   68CHL1  H15A 7457   4.663   5.409   9.681 -0.0840 -0.5262 -1.2003
   68CHL1  H15B 7458   4.704   5.579   9.723  1.1488  1.5560 -0.9318
   68CHL1   C16 7459   4.756   5.507   9.525  0.1340 -0.4504 -0.3223
   68CHL1  H16A 7460   4.706   5.428   9.465 -1.4638  0.7836 -0.6351
   68CHL1  H16B 7461   4.727   5.605   9.482  0.6424 -0.5190 -0.8327
   68CHL1   C17 7462   4.914   5.499   9.498  0.4000 -0.0745  0.0408
   68CHL1   H17 7463   4.957   5.598   9.526  2.8108 -1.1966  0.4577
   68CHL1   C13 7464   4.961   5.408   9.604  0.4870 -0.5874  0.3154
   68CHL1   C18 7465   4.923   5.261   9.565 -0.2192 -0.1295 -0.6345
   68CHL1  H18A 7466   4.821   5.246   9.521 -0.3259  0.9534 -0.7613
   68CHL1  H18B 7467   4.988   5.216   9.487 -0.7288  1.0558 -1.7681
   68CHL1  H18C 7468   4.938   5.185   9.644  0.4001  0.1400 -0.4942
   68CHL1   C12 7469   5.106   5.409   9.662 -0.5205  0.3132 -0.0942
   68CHL1  H12A 7470   5.180   5.388   9.582  2.4316 -0.6906  2.7965
   68CHL1  H12B 7471   5.124   5.508   9.710  0.2025  1.5148 -2.7716
   68CHL1   C11 7472   5.129   5.311   9.780 -0.6935  0.5637  0.2424
   68CHL1  H11A 7473   5.117   5.207   9.741  1.0984  1.3254 -2.5663
   68CHL1  H11B 7474   5.233   5.319   9.818 -0.8940  1.5457  0.5941
   68CHL1    C9 7475   5.029   5.329   9.895 -0.4718  0.6371 -0.2993
   68CHL1    H9 7476   5.060   5.428   9.936  0.6767 -0.5382  1.7890
   68CHL1   C10 7477   5.045   5.232  10.023 -0.0946  0.7696  0.0527
   68CHL1   C19 7478   5.024   5.082   9.984 -0.2953  0.2987  0.3414
   68CHL1  H19A 7479   4.924   5.074   9.937  0.1178 -1.3009 -0.3319
   68CHL1  H19B 7480   5.109   5.072   9.913  0.2434  1.7957  0.7647
   68CHL1  H19C 7481   5.032   5.007  10.067  0.8479  1.2212  1.0841
   68CHL1    C1 7482   5.184   5.243  10.084 -0.2629 -0.1693 -0.5521
   68CHL1   H1A 7483   5.261   5.195  10.019  0.6924 -0.3904  0.7192
   68CHL1   H1B 7484   5.213   5.350  10.077 -0.1440 -0.0171  1.7442
   68CHL1    C2 7485   5.199   5.185  10.226  0.3261 -0.2103  0.1449
   68CHL1   H2A 7486   5.297   5.214  10.270  1.7133 -2.2327 -1.5121
   68CHL1   H2B 7487   5.193   5.075  10.217 -1.9548 -0.0333 -0.7602
   68CHL1   C20 7488   4.960   5.465   9.352 -0.5482 -0.1415  0.0748
   68CHL1   H20 7489   4.965   5.354   9.345 -0.5839 -0.2546  1.6158
   68CHL1   C21 7490   5.097   5.532   9.337  0.4541 -0.2901  0.6932
   68CHL1  H21A 7491   5.161   5.474   9.267 -1.2773 -0.4570 -0.8085
   68CHL1  H21B 7492   5.152   5.546   9.432 -0.9928 -0.5339  1.5764
   68CHL1  H21C 7493   5.088   5.638   9.303  1.9517 -0.5792 -0.6795
   68CHL1   C22 7494   4.857   5.521   9.248 -0.2507  0.1140 -0.1958
   68CHL1  H22A 7495   4.770   5.451   9.244  1.9986 -2.9561  1.8336
   68CHL1  H22B 7496   4.816   5.623   9.261 -1.4342 -0.7198  3.2702
   68CHL1   C23 7497   4.914   5.519   9.098 -0.0018  0.0333 -0.5411
   68CHL1  H23A 7498   4.992   5.598   9.092 -0.4947  0.3935 -2.7772
   68CHL1  H23B 7499   4.947   5.418   9.064 -0.5012 -0.1387 -0.5268
   68CHL1   C24 7500   4.805   5.550   8.997  0.9973 -0.0111 -0.0204
   68CHL1  H24A 7501   4.728   5.471   9.005  1.3853 -0.2295  1.6449
   68CHL1  H24B 7502   4.762   5.649   9.022 -1.5869 -1.6772  2.3827
   68CHL1   C25 7503   4.848   5.544   8.845  0.8108 -0.7840  0.2220
   68CHL1   H25 7504   4.861   5.438   8.816  1.8938 -0.1592 -1.6613
   68CHL1   C26 7505   4.734   5.602   8.766  0.2516 -0.2231  0.0863
   68CHL1  H26A 7506   4.707   5.707   8.791  0.7082  0.6485 -2.8989
   68CHL1  H26B 7507   4.757   5.595   8.657  0.3662 -2.4312  0.2215
   68CHL1  H26C 7508   4.638   5.547   8.780  0.3500  0.0078  1.6932
   68CHL1   C27 7509   4.977   5.623   8.821 -0.3832 -0.2051  0.3823
   68CHL1  H27A 7510   4.993   5.652   8.715  0.3710 -0.6907  0.3588
   68CHL1  H27B 7511   4.984   5.717   8.880  0.2331  1.2423 -1.9357
   68CHL1  H27C 7512   5.062   5.562   8.858  0.5490  0.6049 -0.3798
   69CHL1    C3 7513   4.192   3.303   6.867  0.2275  0.3728  0.3872
   69CHL1    H3 7514   4.301   3.313   6.881  0.4408 -2.4773  1.0593
   69CHL1    O3 7515   4.175   3.243   6.740 -0.0563 -0.3837 -0.3241
   69CHL1   H3' 7516   4.239   3.171   6.738  0.4438  0.0181  0.9361
   69CHL1    C4 7517   4.141   3.210   6.974  0.3050  0.1026  0.5683
   69CHL1   H4A 7518   4.034   3.190   6.952  1.0967 -0.8710 -2.5552
   69CHL1   H4B 7519   4.192   3.112   6.962  1.3387  0.5420  1.2470
   69CHL1    C5 7520   4.150   3.260   7.118  0.2303  0.3264  0.1565
   69CHL1    C6 7521   4.202   3.187   7.215  0.3460  0.3706  0.0235
   69CHL1    H6 7522   4.248   3.089   7.193  0.8735  0.5718  0.2237
   69CHL1    C7 7523   4.200   3.224   7.357 -0.0877  0.1167 -0.2844
   69CHL1   H7A 7524   4.175   3.141   7.426  5.1844 -0.6140  1.0001
   69CHL1   H7B 7525   4.307   3.249   7.376 -0.1250  1.5569 -1.8588
   69CHL1    C8 7526   4.120   3.350   7.385 -0.3873 -0.2276 -0.9782
   69CHL1    H8 7527   4.013   3.319   7.391  0.0350 -1.2906  1.5751
   69CHL1   C14 7528   4.164   3.406   7.521 -0.0254  0.8653 -0.1315
   69CHL1   H14 7529   4.265   3.448   7.502 -0.2765 -0.1297 -4.0419
   69CHL1   C15 7530   4.175   3.301   7.637 -0.4826  0.3174  0.4378
   69CHL1  H15A 7531   4.094   3.225   7.631 -0.1508 -0.3091  3.2000
   69CHL1  H15B 7532   4.273   3.249   7.630 -0.1439  1.3145 -2.9151
   69CHL1   C16 7533   4.163   3.383   7.768 -0.3213 -0.0542  0.2158
   69CHL1  H16A 7534   4.075   3.342   7.823  1.3562  0.5780  3.4918
   69CHL1  H16B 7535   4.254   3.381   7.831 -1.3932  2.5594  1.9653
   69CHL1   C17 7536   4.136   3.531   7.713  0.2301 -0.1863  0.3400
   69CHL1   H17 7537   4.241   3.559   7.690  0.3147  0.4390  1.4746
   69CHL1   C13 7538   4.074   3.520   7.576  0.0153  0.5564  0.1096
   69CHL1   C18 7539   3.934   3.469   7.588 -0.2462  0.0497  0.0586
   69CHL1  H18A 7540   3.927   3.387   7.662 -0.4503  0.0662  0.0576
   69CHL1  H18B 7541   3.861   3.540   7.631  0.5674 -0.0777  1.6845
   69CHL1  H18C 7542   3.880   3.439   7.495 -0.7377 -1.5243  0.8357
   69CHL1   C12 7543   4.083   3.640   7.472  0.5340 -0.5045  0.0345
   69CHL1  H12A 7544   4.021   3.727   7.500 -0.4896 -0.9619 -0.7635
   69CHL1  H12B 7545   4.188   3.673   7.486  0.4814 -1.3932  2.9111
   69CHL1   C11 7546   4.062   3.597   7.325  1.0752 -0.2949 -0.5900
   69CHL1  H11A 7547   3.951   3.586   7.319  1.1181 -0.1637 -1.7848
   69CHL1  H11B 7548   4.105   3.672   7.256  0.8190  2.0653  1.7447
   69CHL1    C9 7549   4.134   3.461   7.280  0.4905  0.5030 -0.0401
   69CHL1    H9 7550   4.244   3.476   7.275  1.1079 -3.9097 -1.1820
   69CHL1   C10 7551   4.092   3.405   7.141 -0.4212 -0.9142 -0.5685
   69CHL1   C19 7552   3.936   3.403   7.131 -0.4652  0.6506 -0.5520
   69CHL1  H19A 7553   3.892   3.334   7.207  1.8680  0.2274  0.4626
   69CHL1  H19B 7554   3.895   3.504   7.149 -0.9009  0.8085 -2.4132
   69CHL1  H19C 7555   3.911   3.373   7.027 -2.4945  0.0178  0.0944
   69CHL1    C1 7556   4.144   3.500   7.028 -0.4015  0.3971  0.1930
   69CHL1   H1A 7557   4.081   3.592   7.028 -0.5819  0.3148 -2.8420
   69CHL1   H1B 7558   4.243   3.538   7.058  0.8452 -1.2658 -1.6885
   69CHL1    C2 7559   4.123   3.446   6.886 -0.0587 -0.1725  0.5831
   69CHL1   H2A 7560   4.153   3.513   6.803  0.7072  0.4180  1.3281
   69CHL1   H2B 7561   4.018   3.419   6.864  0.8943 -3.0546 -0.8137
   69CHL1   C20 7562   4.082   3.637   7.809 -0.2675  0.7341  0.6484
   69CHL1   H20 7563   4.027   3.716   7.754 -1.7496 -1.0902 -0.5521
   69CHL1   C21 7564   4.196   3.705   7.879 -0.3852 -0.1746  0.4899
   69CHL1  H21A 7565   4.259   3.745   7.797  0.0820  0.6985  1.2621
   69CHL1  H21B 7566   4.254   3.650   7.956 -1.8763 -0.7063  1.2483
   69CHL1  H21C 7567   4.157   3.785   7.945 -0.2961 -0.9597  1.5039
   69CHL1   C22 7568   3.982   3.571   7.906 -0.1858 -0.0886  0.3393
   69CHL1  H22A 7569   3.913   3.500   7.855 -0.6340  0.1960  0.5384
   69CHL1  H22B 7570   4.039   3.513   7.981 -0.8134 -0.9240  0.1793
   69CHL1   C23 7571   3.898   3.653   7.999  0.2781  0.6723  0.5536
   69CHL1  H23A 7572   3.962   3.730   8.048 -0.3363  0.0143  2.4422
   69CHL1  H23B 7573   3.825   3.719   7.947  0.1679  0.0655 -0.0621
   69CHL1   C24 7574   3.833   3.556   8.101 -0.2994 -0.0557 -0.0874
   69CHL1  H24A 7575   3.768   3.494   8.036  0.4002 -0.3656 -0.5040
   69CHL1  H24B 7576   3.907   3.486   8.146 -0.5873 -0.5229 -0.3271
   69CHL1   C25 7577   3.751   3.615   8.218  0.1610 -0.7594  0.5912
   69CHL1   H25 7578   3.675   3.678   8.167 -0.0684 -0.0801  1.7596
   69CHL1   C26 7579   3.670   3.504   8.292  0.4207 -0.5661  0.2052
   69CHL1  H26A 7580   3.607   3.538   8.376  1.1334  1.1410  0.0507
   69CHL1  H26B 7581   3.618   3.441   8.216  0.3151  1.3889 -1.3733
   69CHL1  H26C 7582   3.749   3.436   8.331 -1.6833 -4.1264 -1.4208
   69CHL1   C27 7583   3.839   3.702   8.308 -0.2939 -0.2628  0.0100
   69CHL1  H27A 7584   3.883   3.793   8.261  0.7013  0.7252  2.7906
   69CHL1  H27B 7585   3.774   3.726   8.394  0.7195 -0.9422  0.9678
   69CHL1  H27C 7586   3.921   3.634   8.339  0.8287  2.6730  3.7733
   70CHL1    C3 7587   3.274   0.391   7.092  0.0144  0.2264 -0.4230
   70CHL1    H3 7588   3.177   0.428   7.131 -0.5082 -1.0480 -0.4953
   70CHL1    O3 7589   3.281   0.451   6.961  0.2202  0.1444  0.1345
   70CHL1   H3' 7590   3.366   0.422   6.926  0.2882 -0.6886  0.9689
   70CHL1    C4 7591   3.382   0.443   7.181 -0.4241  0.1216  0.1312
   70CHL1   H4A 7592   3.473   0.428   7.118 -0.4400 -0.7724  0.3205
   70CHL1   H4B 7593   3.375   0.554   7.175 -0.2960  0.0544 -1.5213
   70CHL1    C5 7594   3.379   0.393   7.323  0.7730  0.1486  0.1372
   70CHL1    C6 7595   3.393   0.475   7.429 -0.8494 -0.6406 -0.2433
   70CHL1    H6 7596   3.421   0.578   7.405  1.4220 -1.1919 -0.0797
   70CHL1    C7 7597   3.388   0.430   7.578 -0.5270 -0.0727 -0.2942
   70CHL1   H7A 7598   3.448   0.486   7.654 -0.3025 -1.1055  0.2961
   70CHL1   H7B 7599   3.282   0.436   7.609 -0.5356  1.7076 -0.5930
   70CHL1    C8 7600   3.429   0.278   7.585  1.0601 -0.2236 -0.2159
   70CHL1    H8 7601   3.537   0.256   7.567  1.6622  1.3299  1.3879
   70CHL1   C14 7602   3.390   0.228   7.728  0.6514 -0.8968  0.0962
   70CHL1   H14 7603   3.280   0.238   7.722  0.7263 -0.7368 -1.2139
   70CHL1   C15 7604   3.436   0.300   7.858  0.8869  0.7439 -0.4699
   70CHL1  H15A 7605   3.539   0.334   7.836  0.3711  1.2906 -2.1659
   70CHL1  H15B 7606   3.376   0.393   7.855 -1.2535 -0.6263 -2.4038
   70CHL1   C16 7607   3.419   0.193   7.964 -0.1588  0.6882  0.0168
   70CHL1  H16A 7608   3.509   0.173   8.027  2.3276 -0.8471 -3.7752
   70CHL1  H16B 7609   3.329   0.214   8.025  0.6386  1.5604  0.9188
   70CHL1   C17 7610   3.385   0.062   7.892  0.9639  0.3036  1.0100
   70CHL1   H17 7611   3.274   0.055   7.894  0.8075  2.1374 -0.3467
   70CHL1   C13 7612   3.432   0.084   7.748 -0.2384 -0.6236 -0.2672
   70CHL1   C18 7613   3.581   0.063   7.732 -0.1015 -0.7626 -0.9466
   70CHL1  H18A 7614   3.598  -0.047   7.737  1.6780 -0.4930 -0.5852
   70CHL1  H18B 7615   3.615   0.085   7.629  0.2109 -0.0879 -0.7013
   70CHL1  H18C 7616   3.652   0.114   7.802 -0.7881 -0.9852 -0.0728
   70CHL1   C12 7617   3.356  -0.001   7.648 -0.9935  0.5314 -0.0607
   70CHL1  H12A 7618   3.375  -0.110   7.644  1.4107  0.9460 -0.8572
   70CHL1  H12B 7619   3.247   0.014   7.663 -1.1214  0.1777 -0.6317
   70CHL1   C11 7620   3.374   0.047   7.504  0.2537 -0.2744  0.9611
   70CHL1  H11A 7621   3.476   0.018   7.471  0.0345 -0.3538  0.3422
   70CHL1  H11B 7622   3.304  -0.011   7.440  0.5876 -1.3764  1.5829
   70CHL1    C9 7623   3.347   0.198   7.485  0.3630  0.5465  0.8886
   70CHL1    H9 7624   3.238   0.213   7.499  0.1792  1.1511 -1.1281
   70CHL1   C10 7625   3.369   0.241   7.337  0.7706  1.1471  0.0932
   70CHL1   C19 7626   3.503   0.185   7.280  0.7100  0.1398  0.0451
   70CHL1  H19A 7627   3.586   0.202   7.352 -0.4170  1.8460  0.9922
   70CHL1  H19B 7628   3.498   0.075   7.269 -0.5492  0.2437 -0.5059
   70CHL1  H19C 7629   3.523   0.218   7.176  4.3765  1.1983  0.9979
   70CHL1    C1 7630   3.260   0.184   7.240 -0.0482  0.3867  0.5476
   70CHL1   H1A 7631   3.272   0.074   7.243  0.5518  0.4290 -0.3019
   70CHL1   H1B 7632   3.163   0.207   7.288  0.5837 -0.5383  2.2918
   70CHL1    C2 7633   3.271   0.235   7.093 -0.5523  0.1359  0.2170
   70CHL1   H2A 7634   3.182   0.202   7.036  1.4125 -0.5788 -2.5601
   70CHL1   H2B 7635   3.359   0.184   7.048  0.4376  0.9255  1.2500
   70CHL1   C20 7636   3.445  -0.061   7.965 -0.1127 -1.0397 -1.0245
   70CHL1   H20 7637   3.555  -0.045   7.967 -0.3590  0.6036  2.9891
   70CHL1   C21 7638   3.413  -0.189   7.885  0.2070  0.6842 -0.2594
   70CHL1  H21A 7639   3.433  -0.277   7.950  0.6202  1.4662  0.6803
   70CHL1  H21B 7640   3.473  -0.202   7.793  2.9512 -0.9926  1.7171
   70CHL1  H21C 7641   3.307  -0.174   7.855  0.5363 -0.0656 -1.8531
   70CHL1   C22 7642   3.395  -0.078   8.107 -0.0274 -0.3953 -0.3368
   70CHL1  H22A 7643   3.384   0.023   8.152 -0.1770 -0.1793 -0.8541
   70CHL1  H22B 7644   3.302  -0.138   8.114  0.5330 -1.3471 -0.9644
   70CHL1   C23 7645   3.494  -0.140   8.211  0.2782  0.1067 -0.1003
   70CHL1  H23A 7646   3.511  -0.242   8.171  1.0964  0.5394 -0.8482
   70CHL1  H23B 7647   3.587  -0.079   8.210 -1.0166  2.1001 -1.1037
   70CHL1   C24 7648   3.442  -0.157   8.355  0.6062  0.4356 -0.0097
   70CHL1  H24A 7649   3.387  -0.254   8.354 -0.0394  0.7553  2.0237
   70CHL1  H24B 7650   3.531  -0.171   8.419 -0.5908 -2.7148  1.0857
   70CHL1   C25 7651   3.361  -0.045   8.414 -0.0457  0.1226 -0.2376
   70CHL1   H25 7652   3.278  -0.029   8.342  0.7519 -1.0150 -1.4473
   70CHL1   C26 7653   3.295  -0.089   8.543  0.4025 -0.0962 -1.2813
   70CHL1  H26A 7654   3.255  -0.192   8.527 -1.2972  0.3986 -0.2851
   70CHL1  H26B 7655   3.373  -0.098   8.622  0.1265 -2.7615 -1.2463
   70CHL1  H26C 7656   3.212  -0.019   8.565  0.0069 -1.0848  0.5116
   70CHL1   C27 7657   3.431   0.088   8.436  0.4927 -0.1519 -0.0208
   70CHL1  H27A 7658   3.509   0.079   8.514 -0.8006  1.0448  1.4445
   70CHL1  H27B 7659   3.481   0.115   8.340  0.2123 -1.0605 -0.4262
   70CHL1  H27C 7660   3.357   0.165   8.469  0.3070 -0.2709 -0.1530
   71CHL1    C3 7661   3.268   2.539   6.745 -0.2855  0.8965 -0.0088
   71CHL1    H3 7662   3.357   2.479   6.774 -0.1861 -0.3686 -2.7301
   71CHL1    O3 7663   3.233   2.504   6.612 -0.7261 -0.9222  0.3776
   71CHL1   H3' 7664   3.213   2.411   6.612  1.0663 -1.3414 -0.9961
   71CHL1    C4 7665   3.158   2.490   6.833  0.0355  0.2409  0.3615
   71CHL1   H4A 7666   3.062   2.538   6.803 -0.4897 -1.2315 -0.3226
   71CHL1   H4B 7667   3.159   2.381   6.811  1.4276  0.6317 -1.7043
   71CHL1    C5 7668   3.176   2.516   6.983  0.3544 -0.4839  0.8570
   71CHL1    C6 7669   3.168   2.417   7.073  0.7785 -0.2573 -0.7231
   71CHL1    H6 7670   3.150   2.311   7.051  0.5310 -0.0992 -1.2964
   71CHL1    C7 7671   3.188   2.453   7.219 -0.5996 -0.2980  0.4314
   71CHL1   H7A 7672   3.123   2.395   7.288 -1.1569  0.0246  0.1823
   71CHL1   H7B 7673   3.289   2.421   7.254  0.3599  0.6212 -1.4045
   71CHL1    C8 7674   3.161   2.597   7.269 -0.7635 -0.0289  0.3957
   71CHL1    H8 7675   3.053   2.622   7.264 -0.6263  0.9041  1.7168
   71CHL1   C14 7676   3.219   2.614   7.408  0.0437  0.8935 -0.6317
   71CHL1   H14 7677   3.326   2.585   7.398 -0.1023 -0.4692  1.4678
   71CHL1   C15 7678   3.159   2.529   7.521  0.4330  0.5134  0.1304
   71CHL1  H15A 7679   3.048   2.528   7.513  0.2662  0.7987  2.0940
   71CHL1  H15B 7680   3.198   2.425   7.519 -1.8879 -0.3925 -3.2493
   71CHL1   C16 7681   3.195   2.602   7.650  0.3423 -0.0146  0.8059
   71CHL1  H16A 7682   3.106   2.634   7.709 -1.3286 -0.5202 -1.3977
   71CHL1  H16B 7683   3.257   2.537   7.715 -0.3210 -0.9580  0.4879
   71CHL1   C17 7684   3.273   2.727   7.609  0.0511  0.6341  0.2046
   71CHL1   H17 7685   3.380   2.698   7.601 -0.4150 -1.1146  0.2517
   71CHL1   C13 7686   3.224   2.759   7.463 -0.0090  0.4013  0.8635
   71CHL1   C18 7687   3.076   2.815   7.486  0.5720  0.8767 -0.1754
   71CHL1  H18A 7688   3.022   2.755   7.562 -0.5757  1.2003 -0.7182
   71CHL1  H18B 7689   3.080   2.920   7.523  0.2372  0.3917  1.2773
   71CHL1  H18C 7690   3.020   2.820   7.390  1.3222  0.3903 -0.6359
   71CHL1   C12 7691   3.311   2.844   7.370  0.2896 -0.2159 -0.1513
   71CHL1  H12A 7692   3.302   2.946   7.415 -1.5511 -0.8274  0.9346
   71CHL1  H12B 7693   3.420   2.825   7.361 -0.1611 -2.9063 -0.3545
   71CHL1   C11 7694   3.257   2.833   7.226  0.1584 -0.1992 -0.7662
   71CHL1  H11A 7695   3.159   2.884   7.222  1.3705  2.3408  0.5831
   71CHL1  H11B 7696   3.321   2.887   7.153  1.4912 -0.4033  0.2178
   71CHL1    C9 7697   3.246   2.683   7.167 -0.2781 -0.5420  0.1248
   71CHL1    H9 7698   3.353   2.655   7.180  0.5380  1.8735 -1.1244
   71CHL1   C10 7699   3.208   2.663   7.019  0.2938 -0.7215  0.4767
   71CHL1   C19 7700   3.080   2.738   6.992 -0.5358 -0.0319 -0.3265
   71CHL1  H19A 7701   3.026   2.717   6.898 -0.2113 -2.7060  0.0415
   71CHL1  H19B 7702   3.009   2.708   7.072 -3.0542  0.2306 -2.4141
   71CHL1  H19C 7703   3.113   2.844   6.991 -3.3138  0.9448  2.2434
   71CHL1    C1 7704   3.313   2.714   6.916  0.0457 -0.6168 -0.0906
   71CHL1   H1A 7705   3.313   2.824   6.931  3.0476 -0.3874 -1.3838
   71CHL1   H1B 7706   3.418   2.685   6.940 -0.0667 -1.7462 -0.9246
   71CHL1    C2 7707   3.292   2.688   6.765  0.3880  0.3245 -0.7645
   71CHL1   H2A 7708   3.387   2.724   6.719 -0.1378  1.4958 -0.9655
   71CHL1   H2B 7709   3.206   2.750   6.731  0.3353  0.6171 -0.1091
   71CHL1   C20 7710   3.266   2.830   7.720 -0.5327 -0.0306 -0.2548
   71CHL1   H20 7711   3.169   2.883   7.715 -0.9877 -0.6627  1.4034
   71CHL1   C21 7712   3.356   2.946   7.698 -0.1042  0.6783 -0.1979
   71CHL1  H21A 7713   3.372   2.986   7.597 -0.6382  0.5199 -0.3520
   71CHL1  H21B 7714   3.458   2.913   7.727 -0.1061  2.2069  1.6354
   71CHL1  H21C 7715   3.321   3.028   7.765 -1.2111 -2.4848  3.3204
   71CHL1   C22 7716   3.293   2.773   7.869  0.1535  0.6742  0.6907
   71CHL1  H22A 7717   3.216   2.697   7.892 -1.3496  2.3772  1.3960
   71CHL1  H22B 7718   3.380   2.704   7.879  1.0039  1.6066 -0.2728
   71CHL1   C23 7719   3.313   2.879   7.982  0.6031 -0.3137 -0.3222
   71CHL1  H23A 7720   3.403   2.941   7.959 -1.3710  2.6154 -0.4011
   71CHL1  H23B 7721   3.228   2.950   7.991 -0.7697 -2.0620  0.7458
   71CHL1   C24 7722   3.326   2.802   8.120  0.0097  0.4214  0.6158
   71CHL1  H24A 7723   3.230   2.746   8.122 -0.6542  1.5430  0.7654
   71CHL1  H24B 7724   3.398   2.717   8.121 -2.4168 -1.7132  3.0653
   71CHL1   C25 7725   3.343   2.880   8.246  0.9614 -0.0010 -0.7808
   71CHL1   H25 7726   3.258   2.951   8.247  1.6676  0.8641 -1.8576
   71CHL1   C26 7727   3.316   2.784   8.366 -0.0993 -0.2693 -0.2895
   71CHL1  H26A 7728   3.213   2.741   8.367 -0.4864  0.6581  1.2027
   71CHL1  H26B 7729   3.384   2.697   8.366  1.4851  0.9451  1.1459
   71CHL1  H26C 7730   3.341   2.840   8.459 -0.0200 -2.0006  0.7419
   71CHL1   C27 7731   3.478   2.948   8.271 -0.3975 -0.8645 -0.0518
   71CHL1  H27A 7732   3.566   2.882   8.257 -0.7650 -1.1408 -1.1080
   71CHL1  H27B 7733   3.477   3.044   8.216  1.6052  1.3252  3.5733
   71CHL1  H27C 7734   3.479   2.977   8.378 -3.1066  0.7981 -0.4316
   72CHL1    C3 7735   2.942   0.780   7.018 -0.4379 -0.0873  0.2570
   72CHL1    H3 7736   2.863   0.857   7.008  1.5376  1.9476  0.0410
   72CHL1    O3 7737   2.960   0.718   6.891  0.0679  0.6216  0.6527
   72CHL1   H3' 7738   3.043   0.747   6.852  0.3839 -2.6735 -1.3272
   72CHL1    C4 7739   3.077   0.856   7.051 -0.4638  0.4987  0.2067
   72CHL1   H4A 7740   3.159   0.783   7.028  0.4897  1.2188  1.2663
   72CHL1   H4B 7741   3.082   0.940   6.978 -1.4734  0.6673  0.3257
   72CHL1    C5 7742   3.088   0.897   7.202 -0.4256  0.5853  0.1040
   72CHL1    C6 7743   3.122   1.016   7.240  0.4961  0.1617  0.0983
   72CHL1    H6 7744   3.131   1.092   7.161  0.4019 -1.5580 -1.6289
   72CHL1    C7 7745   3.167   1.059   7.379 -0.0253 -0.1967  0.1876
   72CHL1   H7A 7746   3.267   1.103   7.364 -0.5174  1.2640  1.1459
   72CHL1   H7B 7747   3.104   1.144   7.412  0.8135  0.3773  0.3017
   72CHL1    C8 7748   3.172   0.941   7.474  0.9083  0.8751  0.0407
   72CHL1    H8 7749   3.271   0.894   7.464  0.8703  0.8645 -0.2928
   72CHL1   C14 7750   3.166   0.988   7.617 -0.4433  0.0634 -0.1497
   72CHL1   H14 7751   3.071   1.041   7.639  0.3417  1.9169 -1.1381
   72CHL1   C15 7752   3.276   1.086   7.654 -0.3406 -0.3801 -0.6262
   72CHL1  H15A 7753   3.376   1.073   7.607 -0.1201  0.3543 -0.3677
   72CHL1  H15B 7754   3.242   1.189   7.631  0.5061  0.2325  0.8026
   72CHL1   C16 7755   3.285   1.074   7.811  0.2636  0.1504  0.7131
   72CHL1  H16A 7756   3.386   1.059   7.856 -0.2709  1.5866  2.4477
   72CHL1  H16B 7757   3.257   1.168   7.863  0.7367  0.8265 -0.2341
   72CHL1   C17 7758   3.194   0.959   7.852  0.2335 -0.1818  0.5887
   72CHL1   H17 7759   3.095   1.006   7.870 -0.5104 -1.1049 -0.9549
   72CHL1   C13 7760   3.177   0.879   7.727  0.7576  0.5347  0.6257
   72CHL1   C18 7761   3.309   0.802   7.704 -0.1185  0.1122  0.3519
   72CHL1  H18A 7762   3.321   0.741   7.612 -0.5421  0.0080  0.3672
   72CHL1  H18B 7763   3.391   0.876   7.714 -0.9658  1.2375 -0.8436
   72CHL1  H18C 7764   3.325   0.724   7.781 -2.2202 -0.8313 -0.1215
   72CHL1   C12 7765   3.050   0.787   7.712 -0.3769  0.7971  0.9273
   72CHL1  H12A 7766   3.064   0.699   7.779  0.6884 -0.3123 -0.7440
   72CHL1  H12B 7767   2.958   0.835   7.753 -0.3117 -0.4747  2.6124
   72CHL1   C11 7768   3.038   0.730   7.568  0.1283  0.1413  0.3821
   72CHL1  H11A 7769   3.123   0.658   7.563  1.3458  1.6132 -1.0253
   72CHL1  H11B 7770   2.946   0.669   7.562 -0.5494  1.2408 -0.9005
   72CHL1    C9 7771   3.055   0.835   7.449  0.5911  0.2310 -0.5371
   72CHL1    H9 7772   2.965   0.899   7.460 -0.2331 -0.9899 -0.0707
   72CHL1   C10 7773   3.056   0.781   7.303  0.0433  0.2924 -0.0691
   72CHL1   C19 7774   3.151   0.664   7.300 -0.3351 -0.9255  0.4735
   72CHL1  H19A 7775   3.091   0.589   7.354  0.1885  0.0473  2.4588
   72CHL1  H19B 7776   3.167   0.620   7.199  0.2489  1.6982 -0.6450
   72CHL1  H19C 7777   3.252   0.680   7.345 -0.6970  1.0000  0.6659
   72CHL1    C1 7778   2.909   0.724   7.263  0.1161  0.4997  0.4636
   72CHL1   H1A 7779   2.867   0.655   7.339  0.0374  0.4344  0.3606
   72CHL1   H1B 7780   2.840   0.810   7.274 -1.0083 -0.3316 -0.0388
   72CHL1    C2 7781   2.900   0.673   7.119 -0.1370  0.4371  0.1021
   72CHL1   H2A 7782   2.799   0.637   7.091  0.4184  0.2326 -1.7360
   72CHL1   H2B 7783   2.963   0.581   7.115  1.7052  1.5043  2.9142
   72CHL1   C20 7784   3.247   0.883   7.977  1.1694  0.8150 -0.0356
   72CHL1   H20 7785   3.350   0.842   7.970  0.5266 -1.0316  1.1586
   72CHL1   C21 7786   3.151   0.771   8.021 -1.2103  0.2789  0.3127
   72CHL1  H21A 7787   3.050   0.802   7.988 -1.0841 -0.2949 -0.6289
   72CHL1  H21B 7788   3.152   0.757   8.132 -0.4189 -1.8084  0.0685
   72CHL1  H21C 7789   3.185   0.681   7.965  0.0381  1.3060 -0.6198
   72CHL1   C22 7790   3.271   0.978   8.093  0.5495  0.0117  0.0233
   72CHL1  H22A 7791   3.305   1.081   8.066  2.2087 -0.7035 -0.6775
   72CHL1  H22B 7792   3.176   0.989   8.150  0.2679 -2.5613  0.1118
   72CHL1   C23 7793   3.374   0.927   8.197  0.5565  0.2847 -0.1517
   72CHL1  H23A 7794   3.344   0.822   8.221 -0.9689  0.6858 -0.2915
   72CHL1  H23B 7795   3.469   0.931   8.140  0.5332 -1.1123 -0.3133
   72CHL1   C24 7796   3.389   1.015   8.321 -0.5170 -0.9649  0.0173
   72CHL1  H24A 7797   3.393   1.122   8.292 -0.5185 -0.9551  0.0539
   72CHL1  H24B 7798   3.291   0.991   8.369 -0.9598  1.7838  0.6267
   72CHL1   C25 7799   3.500   0.975   8.417  0.4409  0.1706 -0.0369
   72CHL1   H25 7800   3.503   0.865   8.414 -1.9702  0.1149 -2.0167
   72CHL1   C26 7801   3.639   1.024   8.385 -0.1767  0.5536  0.3422
   72CHL1  H26A 7802   3.715   0.984   8.455  0.3757  0.2894 -0.4049
   72CHL1  H26B 7803   3.670   0.987   8.285  0.5968  2.4860 -0.1590
   72CHL1  H26C 7804   3.647   1.134   8.367 -1.2525  0.6709  0.5707
   72CHL1   C27 7805   3.448   1.005   8.557  0.1940 -0.1515 -0.5053
   72CHL1  H27A 7806   3.450   1.112   8.588 -1.5910 -0.1111 -0.4437
   72CHL1  H27B 7807   3.357   0.952   8.594 -0.1381  0.5855 -0.2314
   72CHL1  H27C 7808   3.525   0.959   8.622 -0.5785 -0.4668  0.2002
   73CHL1    C3 7809   3.076   3.900   6.890  0.4507  0.1590  0.7215
   73CHL1    H3 7810   3.067   4.006   6.921 -0.2714 -0.3819  2.4082
   73CHL1    O3 7811   3.103   3.902   6.751 -0.7365 -0.5168 -0.4409
   73CHL1   H3' 7812   3.123   3.809   6.740 -1.1745 -0.5977 -0.5377
   73CHL1    C4 7813   3.199   3.848   6.957 -0.4184  0.1543 -0.1604
   73CHL1   H4A 7814   3.213   3.746   6.916 -0.6870  0.9626 -2.3092
   73CHL1   H4B 7815   3.285   3.911   6.926 -0.3767  0.4994  0.6304
   73CHL1    C5 7816   3.190   3.839   7.108 -0.1338 -0.3474  0.1192
   73CHL1    C6 7817   3.293   3.879   7.187 -0.0469 -0.2514  0.3283
   73CHL1    H6 7818   3.384   3.918   7.140  0.3713  0.1251  1.4307
   73CHL1    C7 7819   3.281   3.874   7.334 -0.4443 -0.5727  0.4277
   73CHL1   H7A 7820   3.373   3.834   7.381  0.7593  0.4229 -1.0378
   73CHL1   H7B 7821   3.267   3.978   7.372 -2.2512 -1.5527  2.6081
   73CHL1    C8 7822   3.164   3.796   7.395  0.4113 -0.2475  0.7469
   73CHL1    H8 7823   3.193   3.690   7.410 -0.2633 -0.5151  0.1803
   73CHL1   C14 7824   3.137   3.849   7.538  0.2007 -0.0004 -0.2556
   73CHL1   H14 7825   3.105   3.955   7.528  2.4562  0.8636  1.3261
   73CHL1   C15 7826   3.246   3.857   7.643 -0.0148  0.6839  0.5914
   73CHL1  H15A 7827   3.316   3.771   7.647  1.1982  1.4752 -2.2242
   73CHL1  H15B 7828   3.309   3.939   7.601  0.2106 -1.2061 -2.9533
   73CHL1   C16 7829   3.178   3.871   7.770  0.1716 -0.1741  0.3555
   73CHL1  H16A 7830   3.206   3.787   7.838  0.6875  0.6211  1.1444
   73CHL1  H16B 7831   3.185   3.973   7.815  0.4658 -0.1776  0.3136
   73CHL1   C17 7832   3.023   3.849   7.741  0.3337 -0.2146  0.0375
   73CHL1   H17 7833   2.976   3.947   7.715  0.4127  0.2154  1.4327
   73CHL1   C13 7834   3.022   3.769   7.607 -0.3960  0.5218  0.2688
   73CHL1   C18 7835   3.064   3.618   7.636 -0.0050 -0.3958  0.4104
   73CHL1  H18A 7836   3.082   3.559   7.544  0.6865  0.4110  0.0228
   73CHL1  H18B 7837   3.150   3.594   7.701  0.9147  0.9933 -0.2726
   73CHL1  H18C 7838   2.979   3.573   7.693  0.1383  0.3655  1.2297
   73CHL1   C12 7839   2.898   3.782   7.514  0.8478  0.1251  0.6554
   73CHL1  H12A 7840   2.822   3.712   7.557 -0.4692  0.6648 -0.7616
   73CHL1  H12B 7841   2.866   3.887   7.527  1.8860  0.6081 -0.6584
   73CHL1   C11 7842   2.919   3.742   7.369  0.5235 -0.1134 -0.1773
   73CHL1  H11A 7843   2.933   3.632   7.361 -0.1360 -0.0968 -1.7283
   73CHL1  H11B 7844   2.822   3.743   7.315 -0.9692  0.6499  2.4556
   73CHL1    C9 7845   3.041   3.807   7.307  0.0644  0.3925  0.7798
   73CHL1    H9 7846   3.024   3.916   7.305  1.4804  0.6151 -0.5565
   73CHL1   C10 7847   3.063   3.773   7.159  0.7096 -0.2218 -0.0847
   73CHL1   C19 7848   3.077   3.620   7.144 -0.2497 -0.0838  0.1592
   73CHL1  H19A 7849   3.153   3.586   7.218 -1.0388  0.2702  1.1398
   73CHL1  H19B 7850   2.992   3.553   7.166  0.7269 -2.1077 -1.9765
   73CHL1  H19C 7851   3.127   3.592   7.048  0.4826  0.0309  0.5013
   73CHL1    C1 7852   2.942   3.816   7.068  0.8371 -0.4552 -0.6769
   73CHL1   H1A 7853   2.851   3.764   7.104  2.3322 -0.9153  2.5884
   73CHL1   H1B 7854   2.929   3.925   7.084  2.1940 -0.6189  1.7270
   73CHL1    C2 7855   2.953   3.821   6.918 -0.1499 -0.4137  0.0731
   73CHL1   H2A 7856   2.863   3.856   6.864  0.2896  1.5450  0.5554
   73CHL1   H2B 7857   2.971   3.716   6.887 -1.4358 -0.3874 -0.7512
   73CHL1   C20 7858   2.953   3.790   7.864  0.0450 -0.3973 -0.2515
   73CHL1   H20 7859   3.017   3.701   7.881 -0.4740 -0.7318 -0.0336
   73CHL1   C21 7860   2.802   3.756   7.830 -0.7692 -0.2351 -0.1619
   73CHL1  H21A 7861   2.805   3.673   7.757  0.6544 -0.8541  0.5704
   73CHL1  H21B 7862   2.750   3.843   7.786 -0.9655 -0.0052  0.5157
   73CHL1  H21C 7863   2.741   3.725   7.918  0.8799 -0.2771  0.9848
   73CHL1   C22 7864   2.967   3.876   7.996 -0.5959 -0.2382  0.9398
   73CHL1  H22A 7865   3.072   3.906   8.015 -0.1407  2.1223 -4.2633
   73CHL1  H22B 7866   2.914   3.972   7.978 -2.2631 -1.4823 -0.9615
   73CHL1   C23 7867   2.909   3.805   8.118 -0.0843 -0.5435  0.5448
   73CHL1  H23A 7868   2.799   3.816   8.119 -0.2650 -2.1223  0.1373
   73CHL1  H23B 7869   2.923   3.696   8.096 -1.7280 -0.4458 -1.0858
   73CHL1   C24 7870   2.973   3.831   8.254 -0.7055 -0.1310  0.1413
   73CHL1  H24A 7871   3.084   3.834   8.254 -0.6991  0.1100  1.3053
   73CHL1  H24B 7872   2.945   3.933   8.287  0.1964  0.2104 -0.1413
   73CHL1   C25 7873   2.925   3.741   8.370  0.4560  0.1032 -0.1913
   73CHL1   H25 7874   2.939   3.634   8.342 -3.5029 -0.0347 -2.0092
   73CHL1   C26 7875   3.008   3.767   8.497  0.0127  0.1074  0.5643
   73CHL1  H26A 7876   3.115   3.745   8.478 -0.3137 -2.0480  1.1495
   73CHL1  H26B 7877   3.003   3.877   8.516  0.7349  0.6018 -1.9971
   73CHL1  H26C 7878   2.988   3.702   8.585  0.3927 -1.2103 -0.3107
   73CHL1   C27 7879   2.775   3.761   8.402 -0.0559  0.0452  0.0045
   73CHL1  H27A 7880   2.745   3.703   8.492 -1.9446 -0.7784 -1.1443
   73CHL1  H27B 7881   2.753   3.863   8.439 -2.8979 -0.2697 -0.7411
   73CHL1  H27C 7882   2.716   3.729   8.314  0.9666  1.4427 -1.2227
   74CHL1    C3 7883   1.705   2.395   7.084 -0.5688 -0.1167 -0.3197
   74CHL1    H3 7884   1.680   2.287   7.094  1.2360 -0.5438 -0.2716
   74CHL1    O3 7885   1.676   2.445   6.955  0.4741  0.4860 -0.2729
   74CHL1   H3' 7886   1.742   2.515   6.954  2.1357 -1.0363 -0.0261
   74CHL1    C4 7887   1.613   2.479   7.169  0.0265 -0.3029  0.0459
   74CHL1   H4A 7888   1.637   2.585   7.148 -0.9712 -0.2593 -0.8878
   74CHL1   H4B 7889   1.514   2.447   7.132 -0.5140 -0.4677  1.5838
   74CHL1    C5 7890   1.632   2.445   7.314 -0.6322 -0.0244 -0.3770
   74CHL1    C6 7891   1.525   2.412   7.388  0.2586 -0.5975  0.0053
   74CHL1    H6 7892   1.423   2.407   7.347  0.0268 -0.8956  0.6243
   74CHL1    C7 7893   1.525   2.375   7.534  0.9227  0.6250 -0.9933
   74CHL1   H7A 7894   1.447   2.425   7.596  0.5090  0.0217 -1.0195
   74CHL1   H7B 7895   1.500   2.267   7.537 -1.2429  1.1336  0.6550
   74CHL1    C8 7896   1.656   2.414   7.602 -0.3709  0.3863  0.2037
   74CHL1    H8 7897   1.659   2.524   7.608  2.8525  0.3590 -0.3489
   74CHL1   C14 7898   1.680   2.342   7.739 -0.8665 -0.3529 -1.2077
   74CHL1   H14 7899   1.675   2.233   7.716  0.1840 -0.8628  0.8999
   74CHL1   C15 7900   1.568   2.343   7.841  0.1464  0.9635  0.2798
   74CHL1  H15A 7901   1.520   2.442   7.859 -0.2146  1.4617 -3.0676
   74CHL1  H15B 7902   1.482   2.277   7.815 -0.7338  2.3963 -0.5610
   74CHL1   C16 7903   1.643   2.298   7.967  0.3958  0.1876  0.2575
   74CHL1  H16A 7904   1.639   2.376   8.046 -0.8535  1.2144 -0.7807
   74CHL1  H16B 7905   1.585   2.208   7.998  0.0210  0.6509  0.9228
   74CHL1   C17 7906   1.794   2.274   7.935  0.4101  0.0451  0.1153
   74CHL1   H17 7907   1.810   2.171   7.898 -1.5536 -0.5819  0.9870
   74CHL1   C13 7908   1.810   2.359   7.809 -0.6724  0.4291 -0.0444
   74CHL1   C18 7909   1.820   2.507   7.846  0.2791 -0.2063  0.2460
   74CHL1  H18A 7910   1.908   2.518   7.913 -0.7761 -4.4484  2.5080
   74CHL1  H18B 7911   1.819   2.574   7.757  0.8698 -0.9200 -0.3067
   74CHL1  H18C 7912   1.738   2.545   7.910 -1.7446 -2.8380 -0.6993
   74CHL1   C12 7913   1.919   2.309   7.715  0.3163  0.5528 -0.4315
   74CHL1  H12A 7914   2.026   2.325   7.741  0.4810 -1.6195  0.3234
   74CHL1  H12B 7915   1.896   2.202   7.696 -0.9759  0.2661  2.4174
   74CHL1   C11 7916   1.917   2.378   7.573  0.1344  0.5518  0.0467
   74CHL1  H11A 7917   1.954   2.479   7.603  2.6065 -0.4610  0.4919
   74CHL1  H11B 7918   2.001   2.339   7.512  2.4746  1.5126  2.5225
   74CHL1    C9 7919   1.778   2.377   7.511  0.1309 -0.2806  0.0336
   74CHL1    H9 7920   1.759   2.270   7.489  0.0127  0.3947 -3.4790
   74CHL1   C10 7921   1.779   2.436   7.366 -0.4096  0.1192  0.2682
   74CHL1   C19 7922   1.838   2.575   7.392 -0.3916  0.2140 -0.1276
   74CHL1  H19A 7923   1.779   2.629   7.469 -2.2763  0.4103 -1.6940
   74CHL1  H19B 7924   1.943   2.558   7.424 -0.8699  1.1992  2.0431
   74CHL1  H19C 7925   1.834   2.636   7.300  2.3978 -0.5768 -0.8346
   74CHL1    C1 7926   1.875   2.366   7.264  0.3309  0.1029  0.5948
   74CHL1   H1A 7927   1.985   2.376   7.275  0.6441 -1.0636 -1.1454
   74CHL1   H1B 7928   1.852   2.258   7.271  0.0226  0.2377  1.6749
   74CHL1    C2 7929   1.849   2.414   7.121 -0.1566 -0.0571  0.4046
   74CHL1   H2A 7930   1.908   2.351   7.051 -0.8281 -0.9652  0.6445
   74CHL1   H2B 7931   1.879   2.520   7.105  3.0769 -1.0875 -0.9461
   74CHL1   C20 7932   1.876   2.302   8.064 -0.5289  0.0705 -0.1950
   74CHL1   H20 7933   1.875   2.411   8.087 -1.0550  0.4159 -1.8204
   74CHL1   C21 7934   2.018   2.269   8.023 -0.3493  0.4281  0.8181
   74CHL1  H21A 7935   2.086   2.275   8.111  1.9898  0.2868 -0.9458
   74CHL1  H21B 7936   2.050   2.334   7.939 -2.2380 -1.4792 -1.4685
   74CHL1  H21C 7937   2.021   2.162   7.991  1.1293  1.3336 -2.2326
   74CHL1   C22 7938   1.836   2.211   8.182 -0.3139 -0.5416  0.1862
   74CHL1  H22A 7939   1.915   2.220   8.258  0.4832  1.7423 -0.8824
   74CHL1  H22B 7940   1.735   2.237   8.220 -0.5392 -1.2985  0.1286
   74CHL1   C23 7941   1.815   2.058   8.154 -0.2008  1.1249 -0.4749
   74CHL1  H23A 7942   1.751   2.046   8.064 -0.8546 -1.9409  0.3434
   74CHL1  H23B 7943   1.913   2.012   8.130 -0.3032  0.0639  1.1108
   74CHL1   C24 7944   1.742   1.985   8.267  0.1798 -0.1895 -1.2171
   74CHL1  H24A 7945   1.809   1.994   8.355 -3.8875  0.6057  1.9118
   74CHL1  H24B 7946   1.649   2.033   8.303  0.8046 -0.2853  0.5896
   74CHL1   C25 7947   1.706   1.835   8.234 -0.0950 -0.2729  0.4328
   74CHL1   H25 7948   1.646   1.833   8.141 -0.1605 -2.4047  0.4939
   74CHL1   C26 7949   1.825   1.748   8.218 -0.3563  0.6376  0.0378
   74CHL1  H26A 7950   1.785   1.661   8.162 -2.0424  1.1670  0.4068
   74CHL1  H26B 7951   1.919   1.784   8.170 -0.4267  2.1962  1.0614
   74CHL1  H26C 7952   1.863   1.714   8.316 -1.7953 -2.9871 -0.5944
   74CHL1   C27 7953   1.608   1.783   8.350  0.3865  0.1232  0.3876
   74CHL1  H27A 7954   1.538   1.704   8.317 -0.1490  1.0451 -0.7310
   74CHL1  H27B 7955   1.676   1.759   8.435 -0.7863  0.7960  1.5335
   74CHL1  H27C 7956   1.543   1.861   8.395  0.6979  1.4417 -1.4016
   75CHL1    C3 7957   5.023   3.734   6.678 -0.0701  0.7024  0.3842
   75CHL1    H3 7958   5.126   3.692   6.679 -0.5199 -0.4351 -0.3848
   75CHL1    O3 7959   4.953   3.716   6.551 -0.7390  0.0447 -0.1913
   75CHL1   H3' 7960   4.930   3.623   6.550  1.7933 -0.6226  0.8680
   75CHL1    C4 7961   4.946   3.655   6.790  0.7060  0.4669 -0.1545
   75CHL1   H4A 7962   4.839   3.682   6.800  0.3332 -0.5997 -1.1116
   75CHL1   H4B 7963   4.944   3.549   6.758  0.4005  0.3351  0.3020
   75CHL1    C5 7964   5.008   3.693   6.925  0.2856 -0.5359  0.3300
   75CHL1    C6 7965   5.047   3.595   7.006 -0.0372  0.2320 -0.2657
   75CHL1    H6 7966   5.015   3.493   6.981  1.9823 -0.8290  1.2771
   75CHL1    C7 7967   5.102   3.613   7.150  0.6136 -0.2064 -0.0178
   75CHL1   H7A 7968   5.048   3.537   7.211  1.7595 -0.6506  0.4706
   75CHL1   H7B 7969   5.212   3.597   7.154  0.4938 -0.8230  1.2144
   75CHL1    C8 7970   5.057   3.759   7.192  0.2969  0.2568  0.5123
   75CHL1    H8 7971   4.946   3.759   7.192  0.2637 -1.0812 -1.4630
   75CHL1   C14 7972   5.122   3.782   7.327  0.0527  0.5158 -0.3120
   75CHL1   H14 7973   5.231   3.783   7.305  0.1601 -1.0723  0.0651
   75CHL1   C15 7974   5.098   3.675   7.433  0.5271  0.2953  0.5544
   75CHL1  H15A 7975   4.996   3.633   7.423 -0.0677  2.0450 -0.9940
   75CHL1  H15B 7976   5.183   3.604   7.433  1.2494  1.1458  1.4021
   75CHL1   C16 7977   5.114   3.742   7.574 -0.5308  0.3039 -0.2619
   75CHL1  H16A 7978   5.016   3.737   7.626 -2.0341  1.9586 -2.8530
   75CHL1  H16B 7979   5.195   3.695   7.635 -0.8876 -0.6319 -0.4887
   75CHL1   C17 7980   5.145   3.890   7.536 -0.1065 -0.4394 -0.8392
   75CHL1   H17 7981   5.256   3.893   7.530 -0.0860 -1.0463 -0.8600
   75CHL1   C13 7982   5.085   3.911   7.396 -0.3833  0.1381 -0.1855
   75CHL1   C18 7983   4.936   3.936   7.409  0.1214  0.4032 -0.4245
   75CHL1  H18A 7984   4.911   4.043   7.398  0.1778  0.6994  2.0291
   75CHL1  H18B 7985   4.868   3.889   7.335  0.0446 -1.9664  1.0837
   75CHL1  H18C 7986   4.899   3.904   7.509  1.2174 -0.7679 -0.3734
   75CHL1   C12 7987   5.148   4.019   7.303 -0.7835 -0.8610  0.2265
   75CHL1  H12A 7988   5.124   4.115   7.353  0.2356 -0.9418  0.8973
   75CHL1  H12B 7989   5.257   4.001   7.296 -0.9982 -1.6643 -1.2967
   75CHL1   C11 7990   5.095   4.008   7.154  0.9296  0.2087 -0.3484
   75CHL1  H11A 7991   4.990   4.040   7.166  0.7844 -0.2351 -0.4237
   75CHL1  H11B 7992   5.145   4.083   7.089  0.3332 -0.0301 -1.0840
   75CHL1    C9 7993   5.102   3.860   7.097 -0.2138 -0.5464  0.2923
   75CHL1    H9 7994   5.211   3.849   7.076 -0.4317 -0.5859 -0.8427
   75CHL1   C10 7995   5.021   3.841   6.964 -1.0492 -0.0416 -0.3157
   75CHL1   C19 7996   4.883   3.905   6.975 -0.4215 -0.7653  0.0601
   75CHL1  H19A 7997   4.817   3.876   6.891 -0.3826 -3.9890  1.0896
   75CHL1  H19B 7998   4.820   3.872   7.060 -0.1996  0.8985  0.8936
   75CHL1  H19C 7999   4.892   4.016   6.971 -1.0768 -0.7378 -0.8549
   75CHL1    C1 8000   5.100   3.913   6.849 -0.4403 -0.1328 -1.4704
   75CHL1   H1A 8001   5.112   4.019   6.879 -2.1390 -0.7343  1.5357
   75CHL1   H1B 8002   5.197   3.860   6.844 -0.4492 -0.4431  1.1494
   75CHL1    C2 8003   5.034   3.886   6.712 -1.0695  0.0166  0.2591
   75CHL1   H2A 8004   5.101   3.915   6.629  0.2113  1.4228  1.7595
   75CHL1   H2B 8005   4.935   3.932   6.695  0.6561  3.1684 -1.6316
   75CHL1   C20 8006   5.103   3.985   7.650  0.4163 -0.5567 -0.4118
   75CHL1   H20 8007   4.997   4.017   7.643  0.6078  0.6017  1.5413
   75CHL1   C21 8008   5.192   4.117   7.640  0.5232  0.4938  0.4305
   75CHL1  H21A 8009   5.131   4.203   7.672 -2.2873 -2.4489  3.3372
   75CHL1  H21B 8010   5.219   4.141   7.535 -1.6711  1.4722  0.0808
   75CHL1  H21C 8011   5.276   4.094   7.709  1.0409 -0.4041 -0.4712
   75CHL1   C22 8012   5.115   3.926   7.797 -0.5402 -0.1364 -0.7289
   75CHL1  H22A 8013   5.050   3.837   7.805 -2.5455  1.2735 -1.0665
   75CHL1  H22B 8014   5.225   3.909   7.809 -0.2008  3.5862  2.2666
   75CHL1   C23 8015   5.082   4.033   7.904  0.0465  0.1693  0.6021
   75CHL1  H23A 8016   5.147   4.124   7.902 -0.2374  0.3531 -0.5001
   75CHL1  H23B 8017   4.980   4.074   7.887  0.6044  0.6619 -1.7554
   75CHL1   C24 8018   5.083   3.978   8.046 -0.1752  0.5812  0.4835
   75CHL1  H24A 8019   4.987   3.930   8.077  1.1545 -0.9673  2.2746
   75CHL1  H24B 8020   5.158   3.896   8.045 -1.5172 -0.7020  1.6213
   75CHL1   C25 8021   5.133   4.083   8.149 -0.5645 -0.0254  0.0418
   75CHL1   H25 8022   5.123   4.029   8.246  1.3176  0.4695  0.5273
   75CHL1   C26 8023   5.275   4.117   8.138 -0.6524 -0.2565  0.1890
   75CHL1  H26A 8024   5.282   4.196   8.060 -2.1110  0.3980  0.6951
   75CHL1  H26B 8025   5.311   4.148   8.238 -0.5378  0.6999 -0.1475
   75CHL1  H26C 8026   5.341   4.041   8.092  0.1179  1.9006 -2.3303
   75CHL1   C27 8027   5.040   4.204   8.153  0.0514  0.1699 -0.1707
   75CHL1  H27A 8028   4.934   4.174   8.141  0.5801 -2.0879  0.7312
   75CHL1  H27B 8029   5.056   4.262   8.247  0.2354  2.4666 -1.5725
   75CHL1  H27C 8030   5.059   4.266   8.062  0.3912  1.4408  0.7441
   76CHL1    C3 8031   2.429   6.254   7.342 -0.3976 -0.5440  0.7351
   76CHL1    H3 8032   2.451   6.362   7.358 -0.0822 -0.5672  0.4681
   76CHL1    O3 8033   2.425   6.221   7.202 -0.4275 -0.2121  0.4666
   76CHL1   H3' 8034   2.400   6.128   7.200  0.4501 -0.5455  3.5941
   76CHL1    C4 8035   2.541   6.183   7.404 -0.5285 -0.5835  0.2955
   76CHL1   H4A 8036   2.527   6.077   7.375 -2.7495  0.1539 -1.5183
   76CHL1   H4B 8037   2.633   6.222   7.356  0.7686 -1.2898  2.1566
   76CHL1    C5 8038   2.553   6.193   7.557 -0.7067 -0.0945 -0.0528
   76CHL1    C6 8039   2.666   6.248   7.625 -0.0425  0.9309 -0.0834
   76CHL1    H6 8040   2.752   6.278   7.563  0.8950 -0.9825  0.2259
   76CHL1    C7 8041   2.677   6.268   7.770 -0.7911  0.4761  0.1168
   76CHL1   H7A 8042   2.778   6.241   7.806 -0.2235  1.8570 -0.4167
   76CHL1   H7B 8043   2.666   6.376   7.792 -1.5527  0.2488  0.9045
   76CHL1    C8 8044   2.577   6.183   7.844 -0.3710  0.3451 -0.6831
   76CHL1    H8 8045   2.604   6.075   7.844 -1.8782 -0.0351 -0.5036
   76CHL1   C14 8046   2.569   6.230   7.990 -0.5759 -0.0483  0.3426
   76CHL1   H14 8047   2.539   6.337   7.997 -0.0448 -0.0466  3.1560
   76CHL1   C15 8048   2.703   6.219   8.068 -0.4302  0.2717 -0.0343
   76CHL1  H15A 8049   2.754   6.122   8.054  0.2961  0.3642  1.8602
   76CHL1  H15B 8050   2.780   6.291   8.035 -0.1460 -1.5503 -3.6079
   76CHL1   C16 8051   2.660   6.231   8.216  0.2202  0.1573  0.8046
   76CHL1  H16A 8052   2.698   6.149   8.281 -1.6589  0.3377  2.1650
   76CHL1  H16B 8053   2.695   6.326   8.261 -0.5687  1.9609 -2.2610
   76CHL1   C17 8054   2.504   6.220   8.221  0.0697  0.0738  0.1218
   76CHL1   H17 8055   2.462   6.323   8.222  2.7005  1.2023 -1.3653
   76CHL1   C13 8056   2.466   6.167   8.080  0.3336 -0.1171 -0.4677
   76CHL1   C18 8057   2.491   6.020   8.089  0.0773 -0.1758  0.1434
   76CHL1  H18A 8058   2.588   5.990   8.133 -0.8363 -1.2051  1.5266
   76CHL1  H18B 8059   2.410   5.980   8.154  1.0387  0.3313  1.6798
   76CHL1  H18C 8060   2.497   5.973   7.989  2.6840 -2.7499  1.4379
   76CHL1   C12 8061   2.323   6.202   8.026 -0.0664 -1.1059 -0.1608
   76CHL1  H12A 8062   2.239   6.166   8.090  0.6927  0.9887  2.0907
   76CHL1  H12B 8063   2.312   6.312   8.026 -3.0826 -1.3384  1.8866
   76CHL1   C11 8064   2.320   6.157   7.877  0.1985  0.6583 -0.1473
   76CHL1  H11A 8065   2.317   6.046   7.883  3.2306  0.5280 -0.3749
   76CHL1  H11B 8066   2.224   6.194   7.836  0.0897 -1.7504 -2.2347
   76CHL1    C9 8067   2.441   6.200   7.783 -0.3974 -0.0037 -0.5224
   76CHL1    H9 8068   2.422   6.309   7.795 -3.1993 -0.4719 -0.2556
   76CHL1   C10 8069   2.422   6.162   7.636  0.5202 -0.3838 -0.4582
   76CHL1   C19 8070   2.412   6.004   7.619  0.1448 -0.7176 -0.1129
   76CHL1  H19A 8071   2.497   5.949   7.666  1.1433 -0.6609 -1.8005
   76CHL1  H19B 8072   2.320   5.975   7.674  1.9442 -2.5799  2.0194
   76CHL1  H19C 8073   2.410   5.983   7.510  1.2980  0.7356 -0.4337
   76CHL1    C1 8074   2.302   6.232   7.568 -0.2184  0.1060  1.0113
   76CHL1   H1A 8075   2.216   6.184   7.619  1.8506 -3.6083  1.1365
   76CHL1   H1B 8076   2.306   6.343   7.580  0.3180  0.2956 -0.7659
   76CHL1    C2 8077   2.295   6.212   7.412  0.6758 -0.2491 -0.1571
   76CHL1   H2A 8078   2.217   6.275   7.365 -1.1232 -1.2768  1.3901
   76CHL1   H2B 8079   2.281   6.107   7.377 -1.2441 -0.2584  0.6033
   76CHL1   C20 8080   2.457   6.145   8.349  0.1225 -0.2711 -0.3782
   76CHL1   H20 8081   2.497   6.041   8.350  0.8901  0.0315  0.3222
   76CHL1   C21 8082   2.301   6.126   8.360 -0.1210  0.0180 -0.3847
   76CHL1  H21A 8083   2.270   6.068   8.449 -1.2811 -0.2521 -0.9528
   76CHL1  H21B 8084   2.258   6.063   8.278 -0.0352 -0.6379  0.0696
   76CHL1  H21C 8085   2.250   6.224   8.359 -0.1613  0.0501  2.4332
   76CHL1   C22 8086   2.511   6.218   8.475  0.7122 -0.0697  0.1291
   76CHL1  H22A 8087   2.618   6.247   8.466  1.4024 -1.5401  3.1616
   76CHL1  H22B 8088   2.463   6.318   8.485  1.7805  0.6805 -1.8941
   76CHL1   C23 8089   2.496   6.137   8.606 -0.3743 -0.1394 -0.3515
   76CHL1  H23A 8090   2.395   6.091   8.608 -0.2489 -0.5921 -2.9079
   76CHL1  H23B 8091   2.556   6.048   8.577 -0.8399 -0.8035  0.6622
   76CHL1   C24 8092   2.532   6.188   8.745 -0.1710  0.0995  0.4543
   76CHL1  H24A 8093   2.635   6.230   8.739 -1.1492  2.3667 -0.9200
   76CHL1  H24B 8094   2.461   6.266   8.779 -1.6084 -2.2439  2.9372
   76CHL1   C25 8095   2.529   6.078   8.850 -0.6051 -0.4393  0.8093
   76CHL1   H25 8096   2.605   6.009   8.809  0.3132  2.0212 -1.7890
   76CHL1   C26 8097   2.576   6.136   8.979 -0.4968 -0.6498 -0.5085
   76CHL1  H26A 8098   2.677   6.181   8.970 -1.7591  2.1543 -1.3805
   76CHL1  H26B 8099   2.518   6.218   9.027  0.7268 -0.8042  1.2979
   76CHL1  H26C 8100   2.576   6.057   9.057 -1.2958  1.0555  1.2709
   76CHL1   C27 8101   2.403   5.988   8.861  0.1401  0.2393  0.1229
   76CHL1  H27A 8102   2.378   5.923   8.775  2.3548  1.1149 -1.2051
   76CHL1  H27B 8103   2.420   5.920   8.947  0.0312  0.3840  0.2596
   76CHL1  H27C 8104   2.306   6.034   8.891  0.3033 -1.3407  3.2505
   77CHL1    C3 8105   2.917   4.444   6.867 -0.0788  0.2340  0.2305
   77CHL1    H3 8106   2.972   4.533   6.904 -0.7077  0.2239  1.2200
   77CHL1    O3 8107   2.913   4.443   6.725  0.1717 -0.1393 -0.0648
   77CHL1   H3' 8108   2.864   4.367   6.693 -0.7843 -0.2988  1.6904
   77CHL1    C4 8109   2.973   4.318   6.937 -0.2407 -0.2172 -0.1909
   77CHL1   H4A 8110   2.935   4.225   6.890 -2.5821  0.9225 -0.5975
   77CHL1   H4B 8111   3.075   4.331   6.895  1.0305  2.6552  3.4482
   77CHL1    C5 8112   2.959   4.307   7.081  0.5320 -0.3606 -1.4193
   77CHL1    C6 8113   3.064   4.281   7.162 -0.2411 -0.0637  0.3349
   77CHL1    H6 8114   3.169   4.280   7.131 -0.4493 -0.0795 -0.3969
   77CHL1    C7 8115   3.049   4.272   7.309  0.2243  0.0623  0.4406
   77CHL1   H7A 8116   3.111   4.188   7.346  2.7502  2.7316  2.5634
   77CHL1   H7B 8117   3.102   4.360   7.353  0.9111  0.3058 -0.8524
   77CHL1    C8 8118   2.906   4.262   7.363 -0.3246 -0.0901 -0.1082
   77CHL1    H8 8119   2.876   4.157   7.343 -2.2283  0.5650 -0.7643
   77CHL1   C14 8120   2.906   4.305   7.511 -0.2323  0.3490  0.3793
   77CHL1   H14 8121   2.915   4.416   7.505  0.3644  0.4222  2.1853
   77CHL1   C15 8122   3.010   4.259   7.620 -0.2099 -0.6419 -0.4846
   77CHL1  H15A 8123   3.036   4.151   7.609 -1.8596 -1.3720  2.3662
   77CHL1  H15B 8124   3.101   4.318   7.594 -0.9192  0.9625  0.5885
   77CHL1   C16 8125   2.954   4.298   7.752  0.4510  0.9571  0.9261
   77CHL1  H16A 8126   2.956   4.207   7.815 -5.5901 -0.9484 -1.3105
   77CHL1  H16B 8127   3.002   4.386   7.800  0.9702  1.8425 -1.1459
   77CHL1   C17 8128   2.805   4.334   7.723 -0.3776 -0.2885 -0.4348
   77CHL1   H17 8129   2.811   4.445   7.716  0.8659 -0.3996 -1.1499
   77CHL1   C13 8130   2.771   4.291   7.575 -1.0549  0.0037 -0.4448
   77CHL1   C18 8131   2.735   4.139   7.584  0.8390  0.3285 -0.4859
   77CHL1  H18A 8132   2.806   4.094   7.656 -1.1403 -1.2806  0.4926
   77CHL1  H18B 8133   2.635   4.133   7.632  2.2828  2.1705  2.9423
   77CHL1  H18C 8134   2.734   4.092   7.483 -0.0345  0.9835 -0.7888
   77CHL1   C12 8135   2.671   4.372   7.494  0.1424 -0.1142  0.3531
   77CHL1  H12A 8136   2.572   4.336   7.527  0.2678 -2.1553 -1.3993
   77CHL1  H12B 8137   2.667   4.483   7.497  1.0985 -0.0684  0.2242
   77CHL1   C11 8138   2.663   4.335   7.345 -0.4365  0.0765  1.2157
   77CHL1  H11A 8139   2.633   4.229   7.333  4.4086 -1.3422  0.4701
   77CHL1  H11B 8140   2.594   4.402   7.289 -2.6489 -2.2281  1.1060
   77CHL1    C9 8141   2.806   4.352   7.284  0.0260 -0.4904 -0.7640
   77CHL1    H9 8142   2.841   4.456   7.300  0.5097 -0.3231 -2.7298
   77CHL1   C10 8143   2.814   4.331   7.133 -0.4898 -0.6066 -0.7062
   77CHL1   C19 8144   2.725   4.213   7.089  0.1646  0.6040 -0.0899
   77CHL1  H19A 8145   2.759   4.122   7.144  1.3412 -0.4081 -2.4266
   77CHL1  H19B 8146   2.619   4.240   7.106  0.1030 -0.4607  1.3463
   77CHL1  H19C 8147   2.747   4.183   6.984 -1.8694  0.4964 -0.5098
   77CHL1    C1 8148   2.762   4.457   7.064 -0.0904  0.2889  0.2533
   77CHL1   H1A 8149   2.653   4.462   7.085  0.2721  0.1662  2.3376
   77CHL1   H1B 8150   2.798   4.555   7.103  1.8011 -0.8974  1.5471
   77CHL1    C2 8151   2.771   4.467   6.916 -0.3085  0.7146  0.0223
   77CHL1   H2A 8152   2.719   4.557   6.876 -2.7755 -1.9065 -2.8950
   77CHL1   H2B 8153   2.719   4.382   6.868  0.5796  0.2680 -0.1702
   77CHL1   C20 8154   2.709   4.299   7.844 -0.1680  0.4722  0.1423
   77CHL1   H20 8155   2.702   4.188   7.843  0.4404  0.4202  1.5351
   77CHL1   C21 8156   2.576   4.375   7.821  0.3328  0.4317  0.0405
   77CHL1  H21A 8157   2.500   4.350   7.898 -1.0219  1.2552 -1.0104
   77CHL1  H21B 8158   2.542   4.338   7.722 -1.5936  0.6577  0.5977
   77CHL1  H21C 8159   2.592   4.484   7.808 -0.2293  0.2688 -2.2841
   77CHL1   C22 8160   2.776   4.340   7.981  0.5572 -0.6101  0.1327
   77CHL1  H22A 8161   2.865   4.275   7.997  1.4038  1.3775  4.0419
   77CHL1  H22B 8162   2.803   4.447   7.968  1.1241 -0.6515  0.8985
   77CHL1   C23 8163   2.686   4.323   8.105  0.1240  0.1071 -0.1138
   77CHL1  H23A 8164   2.740   4.363   8.193 -0.3804 -1.6496  1.0165
   77CHL1  H23B 8165   2.597   4.388   8.089 -2.1992 -1.0104  6.7414
   77CHL1   C24 8166   2.654   4.181   8.131  0.3372  0.2489  0.4148
   77CHL1  H24A 8167   2.597   4.139   8.045 -0.1811  0.8011  0.4877
   77CHL1  H24B 8168   2.740   4.116   8.158 -0.2903 -1.4305 -1.4808
   77CHL1   C25 8169   2.553   4.163   8.246 -0.3283 -0.0308  0.6564
   77CHL1   H25 8170   2.478   4.242   8.229  0.9137  1.0805  0.2380
   77CHL1   C26 8171   2.478   4.036   8.245 -0.5882 -0.5341 -0.8512
   77CHL1  H26A 8172   2.403   4.015   8.325 -1.6797  0.2566 -1.6379
   77CHL1  H26B 8173   2.431   4.015   8.146 -0.7519 -1.3413 -0.5998
   77CHL1  H26C 8174   2.559   3.963   8.263 -1.2346 -1.0843 -0.1068
   77CHL1   C27 8175   2.615   4.184   8.381 -0.2773 -0.1846  0.0389
   77CHL1  H27A 8176   2.670   4.281   8.386  1.0611 -0.9418  0.2606
   77CHL1  H27B 8177   2.538   4.182   8.461 -0.0058 -0.9776  0.2811
   77CHL1  H27C 8178   2.682   4.098   8.404 -1.9215 -2.8750 -4.6479
   78CHL1    C3 8179   5.301   6.203   6.728 -0.4769 -0.2627  0.2633
   78CHL1    H3 8180   5.410   6.214   6.711  0.0057 -3.2857  1.0346
   78CHL1    O3 8181   5.233   6.198   6.604  0.4811  0.2698 -0.1131
   78CHL1   H3' 8182   5.270   6.275   6.560  1.4368  0.2692  0.6722
   78CHL1    C4 8183   5.282   6.070   6.804  0.1635 -0.0101 -0.2926
   78CHL1   H4A 8184   5.173   6.056   6.820 -0.2226 -1.1269 -3.5486
   78CHL1   H4B 8185   5.314   5.994   6.730 -1.2799  1.0913 -2.1177
   78CHL1    C5 8186   5.367   6.069   6.930 -0.4052 -0.4320 -0.1625
   78CHL1    C6 8187   5.471   5.985   6.950 -0.0173 -0.1520 -0.4971
   78CHL1    H6 8188   5.494   5.917   6.866 -0.8030 -0.7780 -0.2053
   78CHL1    C7 8189   5.546   5.973   7.082 -0.1432 -0.0608 -0.2410
   78CHL1   H7A 8190   5.575   5.870   7.110  2.7243  1.5656  3.1339
   78CHL1   H7B 8191   5.648   6.016   7.070 -0.0474 -0.4001 -0.6459
   78CHL1    C8 8192   5.472   6.040   7.198  0.7865 -0.0701 -0.7196
   78CHL1    H8 8193   5.381   5.978   7.215  2.5583 -2.7361 -0.5690
   78CHL1   C14 8194   5.563   6.051   7.323  0.0737  0.4039 -0.1649
   78CHL1   H14 8195   5.653   6.104   7.285  0.1404 -0.2335 -0.9040
   78CHL1   C15 8196   5.621   5.922   7.378 -0.1406 -0.7020 -0.7093
   78CHL1  H15A 8197   5.543   5.847   7.404 -1.0967  0.8068  0.9250
   78CHL1  H15B 8198   5.695   5.869   7.315 -0.7000  2.1936 -3.9830
   78CHL1   C16 8199   5.687   5.968   7.514  0.4685  0.6410 -0.6136
   78CHL1  H16A 8200   5.661   5.895   7.594  1.7505 -0.3624 -1.1045
   78CHL1  H16B 8201   5.797   5.975   7.500  0.4898 -1.0303 -1.3820
   78CHL1   C17 8202   5.639   6.117   7.539 -0.6515  0.3911  0.0386
   78CHL1   H17 8203   5.714   6.187   7.498  1.8744 -2.1993  0.1057
   78CHL1   C13 8204   5.514   6.132   7.440  0.0097  0.3672  0.4736
   78CHL1   C18 8205   5.381   6.068   7.490  0.0090 -0.0351 -0.2130
   78CHL1  H18A 8206   5.403   5.981   7.555  1.5785 -0.4343 -1.2370
   78CHL1  H18B 8207   5.328   6.144   7.551 -3.8723 -2.2165 -0.7118
   78CHL1  H18C 8208   5.311   6.027   7.414  0.8085 -2.7535  0.4483
   78CHL1   C12 8209   5.487   6.273   7.387 -0.1213  0.3882  0.3573
   78CHL1  H12A 8210   5.442   6.334   7.467  1.2882  3.4981 -1.1505
   78CHL1  H12B 8211   5.584   6.325   7.369 -0.6879  0.9918 -0.9569
   78CHL1   C11 8212   5.393   6.282   7.261  0.6656 -0.4730 -0.0698
   78CHL1  H11A 8213   5.287   6.264   7.287  0.4249 -0.2227 -0.8630
   78CHL1  H11B 8214   5.405   6.385   7.221 -2.3440  0.2582  0.8013
   78CHL1    C9 8215   5.424   6.180   7.152  0.4946 -0.1338 -0.1653
   78CHL1    H9 8216   5.519   6.222   7.111  0.4139  0.0038 -0.2119
   78CHL1   C10 8217   5.323   6.177   7.035  0.1632 -0.3855  0.1875
   78CHL1   C19 8218   5.181   6.128   7.092  0.1410 -0.4820  0.0127
   78CHL1  H19A 8219   5.190   6.027   7.136  0.0860 -0.7243 -0.5333
   78CHL1  H19B 8220   5.136   6.207   7.155  0.9558  0.6896 -0.8460
   78CHL1  H19C 8221   5.110   6.120   7.008 -0.2996  0.5047  0.2868
   78CHL1    C1 8222   5.316   6.314   6.964 -1.2113  0.4565 -0.2219
   78CHL1   H1A 8223   5.267   6.386   7.033 -1.4516  0.1049 -0.0246
   78CHL1   H1B 8224   5.415   6.361   6.950 -1.6924  1.0257 -1.9239
   78CHL1    C2 8225   5.258   6.309   6.824  0.5051  0.4984 -0.7594
   78CHL1   H2A 8226   5.258   6.406   6.770 -0.9698  1.3232  0.6800
   78CHL1   H2B 8227   5.148   6.292   6.833  0.3688  0.9407 -1.5535
   78CHL1   C20 8228   5.616   6.143   7.687 -0.0118  0.2045  0.5170
   78CHL1   H20 8229   5.528   6.088   7.725  1.0427 -0.3355  2.2488
   78CHL1   C21 8230   5.589   6.297   7.708  0.0309 -0.3262  0.1210
   78CHL1  H21A 8231   5.493   6.321   7.658  0.6363 -0.4734 -1.1274
   78CHL1  H21B 8232   5.668   6.360   7.661 -1.7933  0.2167 -2.3169
   78CHL1  H21C 8233   5.576   6.312   7.817 -4.4288 -1.3412 -0.1751
   78CHL1   C22 8234   5.735   6.093   7.773  0.1232  0.8646  0.2968
   78CHL1  H22A 8235   5.786   6.006   7.727 -0.6263 -0.2264  1.4872
   78CHL1  H22B 8236   5.814   6.168   7.790  1.4466 -0.5366  0.4177
   78CHL1   C23 8237   5.694   6.037   7.912 -0.7297  0.2415 -0.0901
   78CHL1  H23A 8238   5.626   6.107   7.964  0.6180  0.7560  1.0228
   78CHL1  H23B 8239   5.647   5.938   7.895  0.8871 -0.2863 -1.6868
   78CHL1   C24 8240   5.820   6.006   7.996 -0.1880 -0.0425 -0.6802
   78CHL1  H24A 8241   5.787   5.959   8.092  0.2703  0.9271 -0.0424
   78CHL1  H24B 8242   5.869   5.922   7.942 -1.3436  0.1724 -2.0816
   78CHL1   C25 8243   5.925   6.112   8.024 -0.7000 -0.0773  0.5928
   78CHL1   H25 8244   5.968   6.156   7.932  1.0632  3.5103  2.9856
   78CHL1   C26 8245   5.858   6.236   8.091 -0.6206  0.2437 -0.8913
   78CHL1  H26A 8246   5.932   6.313   8.120 -0.6888 -0.2129  0.5309
   78CHL1  H26B 8247   5.784   6.276   8.018  0.8388  1.1284 -1.9026
   78CHL1  H26C 8248   5.800   6.198   8.177 -0.4258  0.0087 -0.8665
   78CHL1   C27 8249   6.045   6.060   8.113 -0.1131 -0.2028  0.0254
   78CHL1  H27A 8250   6.106   5.979   8.068  0.3650  0.8119 -1.1953
   78CHL1  H27B 8251   6.110   6.150   8.109 -0.2635 -0.1844 -2.8966
   78CHL1  H27C 8252   6.005   6.040   8.215  2.0893 -1.2305  0.7283
   79CHL1    C3 8253   3.281   5.662   7.289 -0.7892  0.3825 -0.2162
   79CHL1    H3 8254   3.251   5.763   7.324 -0.2834  0.6404 -0.5233
   79CHL1    O3 8255   3.339   5.683   7.162  0.0667  0.4014  0.2162
   79CHL1   H3' 8256   3.351   5.594   7.128 -0.4865  0.9142 -1.3416
   79CHL1    C4 8257   3.376   5.596   7.398 -0.0092  0.0705  0.0324
   79CHL1   H4A 8258   3.413   5.503   7.350 -1.3250  0.4162 -1.7104
   79CHL1   H4B 8259   3.470   5.653   7.410 -0.8060  1.0712  1.7193
   79CHL1    C5 8260   3.307   5.567   7.531  0.3455 -0.0109 -0.0360
   79CHL1    C6 8261   3.368   5.600   7.650 -0.4759  0.3677 -0.2053
   79CHL1    H6 8262   3.470   5.641   7.646  0.3222 -1.5331  0.1169
   79CHL1    C7 8263   3.307   5.568   7.780  0.7435 -0.1462  0.5154
   79CHL1   H7A 8264   3.389   5.533   7.846  1.4333 -1.8069 -1.1930
   79CHL1   H7B 8265   3.254   5.657   7.821  1.7750  1.2618 -1.1759
   79CHL1    C8 8266   3.193   5.453   7.763 -0.5603  0.1591  0.4051
   79CHL1    H8 8267   3.246   5.356   7.748  1.3161  0.8486  2.2627
   79CHL1   C14 8268   3.105   5.440   7.887 -0.4433 -0.2296  0.1314
   79CHL1   H14 8269   3.061   5.542   7.899  0.8081  0.2113  1.0683
   79CHL1   C15 8270   3.182   5.419   8.021 -0.1149  0.1992 -0.2653
   79CHL1  H15A 8271   3.284   5.382   7.998 -0.3722 -0.7810  0.1378
   79CHL1  H15B 8272   3.189   5.514   8.079  0.8911  0.3490 -0.6359
   79CHL1   C16 8273   3.095   5.334   8.110  0.1959 -0.2058 -1.5503
   79CHL1  H16A 8274   3.124   5.227   8.115 -2.2377 -0.8237  0.2354
   79CHL1  H16B 8275   3.082   5.378   8.211  0.2892  0.2332 -1.7276
   79CHL1   C17 8276   2.958   5.332   8.033 -0.1853  0.3846  0.4035
   79CHL1   H17 8277   2.910   5.425   8.069 -1.4340 -0.9384  2.3039
   79CHL1   C13 8278   2.996   5.337   7.881  0.1549 -1.0708  0.2248
   79CHL1   C18 8279   3.043   5.200   7.830  0.8908  0.0619 -0.1584
   79CHL1  H18A 8280   3.126   5.161   7.893 -0.6919  1.6157  3.0350
   79CHL1  H18B 8281   2.954   5.134   7.844  0.0306  1.0219 -1.0422
   79CHL1  H18C 8282   3.071   5.193   7.723  0.5888  0.0275 -0.2352
   79CHL1   C12 8283   2.892   5.386   7.778  0.0716 -0.2727 -0.0037
   79CHL1  H12A 8284   2.813   5.309   7.768  1.5659 -1.9425  0.8287
   79CHL1  H12B 8285   2.846   5.483   7.808  2.4362  0.7921  0.2160
   79CHL1   C11 8286   2.961   5.416   7.642  0.0784  0.0631  0.2743
   79CHL1  H11A 8287   2.955   5.327   7.576  1.1147  1.0446 -1.1567
   79CHL1  H11B 8288   2.894   5.487   7.591  0.3338  1.9086  2.4296
   79CHL1    C9 8289   3.099   5.488   7.651 -0.0008  0.4097  0.3487
   79CHL1    H9 8290   3.071   5.594   7.673  0.0164  1.0696 -2.5900
   79CHL1   C10 8291   3.171   5.504   7.516  0.0731 -0.7849 -0.4190
   79CHL1   C19 8292   3.184   5.364   7.471 -0.0590 -0.7399  0.3753
   79CHL1  H19A 8293   3.097   5.304   7.437 -0.9165 -0.0479  1.3205
   79CHL1  H19B 8294   3.250   5.356   7.382 -1.7410  1.0614 -1.0894
   79CHL1  H19C 8295   3.237   5.303   7.547  2.2445  0.2960 -0.3674
   79CHL1    C1 8296   3.073   5.586   7.414  0.4797  0.5028  0.1184
   79CHL1   H1A 8297   2.986   5.520   7.394  0.8961  0.3111 -1.1404
   79CHL1   H1B 8298   3.046   5.689   7.443  0.6679  0.4820  0.3716
   79CHL1    C2 8299   3.146   5.585   7.280  0.0062 -0.0125 -0.3602
   79CHL1   H2A 8300   3.083   5.635   7.203  0.6991  0.8707 -0.3615
   79CHL1   H2B 8301   3.166   5.481   7.248 -0.4034 -0.4636  0.8048
   79CHL1   C20 8302   2.869   5.231   8.087 -0.2048  0.0212  0.0657
   79CHL1   H20 8303   2.904   5.125   8.077 -0.6268 -0.3134  1.9856
   79CHL1   C21 8304   2.735   5.243   8.016 -0.3434 -0.3349  0.4383
   79CHL1  H21A 8305   2.660   5.171   8.057  0.3509 -1.0554  0.4539
   79CHL1  H21B 8306   2.752   5.207   7.912  0.5442 -0.3574  0.5848
   79CHL1  H21C 8307   2.695   5.347   8.019  1.5209  0.4335 -0.5332
   79CHL1   C22 8308   2.862   5.244   8.243  0.8252 -0.0077  0.8329
   79CHL1  H22A 8309   2.961   5.222   8.288  2.0936  0.3722 -1.6959
   79CHL1  H22B 8310   2.837   5.345   8.281  1.3176 -0.2177  1.7315
   79CHL1   C23 8311   2.757   5.154   8.308 -0.0065  0.8832  0.6987
   79CHL1  H23A 8312   2.655   5.198   8.314 -1.0622 -1.7741  2.8141
   79CHL1  H23B 8313   2.752   5.060   8.249 -2.8045  0.2181  1.9258
   79CHL1   C24 8314   2.792   5.117   8.453  0.6124  0.1693  0.4661
   79CHL1  H24A 8315   2.732   5.033   8.494  3.2861 -2.0471  0.0108
   79CHL1  H24B 8316   2.898   5.085   8.446  1.2809  2.5229 -0.3077
   79CHL1   C25 8317   2.782   5.234   8.555 -0.3148 -0.4743  0.5573
   79CHL1   H25 8318   2.840   5.322   8.520  0.3561 -0.8589  0.7029
   79CHL1   C26 8319   2.625   5.268   8.566 -0.0171  0.3513 -0.2897
   79CHL1  H26A 8320   2.571   5.179   8.607 -0.5012  1.1727  0.8759
   79CHL1  H26B 8321   2.604   5.345   8.643 -0.0610 -2.2863  2.4645
   79CHL1  H26C 8322   2.575   5.304   8.474  0.0306  2.4529  0.4755
   79CHL1   C27 8323   2.826   5.188   8.695 -0.4931 -0.3690  0.3289
   79CHL1  H27A 8324   2.808   5.275   8.761  0.2371 -0.9898  1.3623
   79CHL1  H27B 8325   2.765   5.105   8.736 -0.3994 -0.6240 -0.0432
   79CHL1  H27C 8326   2.928   5.145   8.692 -0.0656  0.7317 -1.5161
   80CHL1    C3 8327   1.896   3.052   7.114 -0.4260  0.0925  0.6418
   80CHL1    H3 8328   1.787   3.032   7.118 -0.6091  0.1494 -2.8499
   80CHL1    O3 8329   1.956   3.069   6.987 -0.5501 -0.1810 -0.1092
   80CHL1   H3' 8330   2.052   3.062   6.993 -0.5687  0.0405  0.5218
   80CHL1    C4 8331   1.923   3.183   7.199  0.0286 -0.0900  0.0473
   80CHL1   H4A 8332   2.033   3.198   7.207 -0.2373  0.6691  2.3200
   80CHL1   H4B 8333   1.887   3.265   7.133  2.3500  1.4841  0.6688
   80CHL1    C5 8334   1.850   3.171   7.332  0.0037 -0.2685 -0.1195
   80CHL1    C6 8335   1.754   3.257   7.365 -0.1164 -0.7651  1.2363
   80CHL1    H6 8336   1.722   3.333   7.291  2.1107  1.2859  2.2960
   80CHL1    C7 8337   1.686   3.248   7.494 -0.2442 -0.1406 -0.1707
   80CHL1   H7A 8338   1.675   3.354   7.527 -1.4669 -1.3849  3.6906
   80CHL1   H7B 8339   1.588   3.205   7.464 -0.3490  0.5509 -0.8245
   80CHL1    C8 8340   1.761   3.167   7.601 -0.9523  0.6873  0.1202
   80CHL1    H8 8341   1.853   3.222   7.629 -1.2720  1.8647 -1.1216
   80CHL1   C14 8342   1.666   3.138   7.717  0.1531  0.5221  0.1528
   80CHL1   H14 8343   1.578   3.085   7.675 -0.3402 -1.1940  3.1672
   80CHL1   C15 8344   1.601   3.258   7.795 -0.1169 -0.4239  0.3124
   80CHL1  H15A 8345   1.681   3.326   7.832 -0.6102 -0.4644  1.4874
   80CHL1  H15B 8346   1.536   3.322   7.733 -3.8545 -2.7491  1.6638
   80CHL1   C16 8347   1.539   3.196   7.917  0.1251  0.4624  0.1344
   80CHL1  H16A 8348   1.558   3.254   8.010  2.7080 -1.4467  0.8888
   80CHL1  H16B 8349   1.430   3.195   7.896  0.0968  0.3547  0.2825
   80CHL1   C17 8350   1.595   3.049   7.917 -1.2241  0.1515 -0.0073
   80CHL1   H17 8351   1.517   2.991   7.865  0.2471 -1.9250  0.0112
   80CHL1   C13 8352   1.718   3.046   7.822  0.7932 -0.2408 -0.2663
   80CHL1   C18 8353   1.837   3.113   7.880 -0.7731  0.3600  0.4749
   80CHL1  H18A 8354   1.819   3.216   7.917 -1.7998  1.0485 -1.8311
   80CHL1  H18B 8355   1.876   3.050   7.962 -0.1273  1.3033  0.9056
   80CHL1  H18C 8356   1.924   3.115   7.811 -1.3532 -0.3101 -0.2815
   80CHL1   C12 8357   1.745   2.909   7.756 -0.5459  0.5300  1.0268
   80CHL1  H12A 8358   1.791   2.834   7.824  1.7486  1.9446  1.0908
   80CHL1  H12B 8359   1.651   2.872   7.709  1.6099 -1.6223 -1.7234
   80CHL1   C11 8360   1.846   2.927   7.640 -0.3755  0.5789  0.3005
   80CHL1  H11A 8361   1.939   2.970   7.682  0.9103 -1.6972 -0.1453
   80CHL1  H11B 8362   1.867   2.832   7.587 -1.4286  0.1597  0.6235
   80CHL1    C9 8363   1.808   3.032   7.536 -0.1359 -0.1716 -0.1588
   80CHL1    H9 8364   1.710   2.999   7.497 -0.8390  0.9708  0.6132
   80CHL1   C10 8365   1.903   3.052   7.413  0.1240 -0.2806 -0.7283
   80CHL1   C19 8366   2.048   3.091   7.453  0.4105 -0.3102 -0.6734
   80CHL1  H19A 8367   2.097   3.002   7.497  2.4824  1.7431  1.3735
   80CHL1  H19B 8368   2.114   3.113   7.366  2.0685 -1.6012  0.2192
   80CHL1  H19C 8369   2.052   3.162   7.538 -0.8942 -2.9821  1.6770
   80CHL1    C1 8370   1.904   2.927   7.329 -0.0366 -0.2633 -0.8478
   80CHL1   H1A 8371   1.950   2.843   7.386 -2.1053 -0.6534  0.2964
   80CHL1   H1B 8372   1.798   2.897   7.313  0.1021 -1.2967  0.1050
   80CHL1    C2 8373   1.965   2.940   7.191  0.5528 -0.8751  0.4524
   80CHL1   H2A 8374   1.957   2.842   7.140 -1.0516 -2.0506  2.8661
   80CHL1   H2B 8375   2.073   2.968   7.198  0.1413  1.1363 -0.8321
   80CHL1   C20 8376   1.622   2.994   8.060 -0.4510 -0.5574 -0.0539
   80CHL1   H20 8377   1.707   3.049   8.107 -0.4211  0.8322 -1.7147
   80CHL1   C21 8378   1.662   2.850   8.055 -0.3364 -0.1105 -0.2768
   80CHL1  H21A 8379   1.762   2.850   8.007 -0.7101 -1.1153 -1.0704
   80CHL1  H21B 8380   1.595   2.791   7.989  1.8659 -1.5850 -1.2361
   80CHL1  H21C 8381   1.667   2.798   8.154 -0.9264 -2.1038 -1.2587
   80CHL1   C22 8382   1.500   2.999   8.148  0.2218 -0.1684 -0.3677
   80CHL1  H22A 8383   1.406   3.009   8.089  0.9284  0.9290 -1.3074
   80CHL1  H22B 8384   1.504   2.912   8.218  1.1498  0.7058  0.6797
   80CHL1   C23 8385   1.482   3.110   8.252 -0.7476  0.0420  0.2947
   80CHL1  H23A 8386   1.576   3.125   8.310 -0.1622  0.5683 -0.7716
   80CHL1  H23B 8387   1.463   3.207   8.200 -0.8298  0.0822  0.3987
   80CHL1   C24 8388   1.372   3.076   8.351  0.3345  0.4971  0.2418
   80CHL1  H24A 8389   1.281   3.052   8.292  0.0300  1.8807  0.1456
   80CHL1  H24B 8390   1.394   2.981   8.405 -0.7104 -0.1355 -0.4153
   80CHL1   C25 8391   1.332   3.178   8.461  0.3842  0.7872  0.4058
   80CHL1   H25 8392   1.251   3.127   8.517  0.0616 -0.7988 -1.4607
   80CHL1   C26 8393   1.449   3.203   8.552 -0.2385  0.1621  0.1417
   80CHL1  H26A 8394   1.425   3.264   8.642  0.2849  0.0328  0.3750
   80CHL1  H26B 8395   1.490   3.108   8.593  0.8176  1.1943  1.5431
   80CHL1  H26C 8396   1.526   3.252   8.488 -0.3686 -1.0829 -0.9692
   80CHL1   C27 8397   1.288   3.310   8.401  0.3579  0.7723 -0.4413
   80CHL1  H27A 8398   1.216   3.295   8.317  0.1975 -0.5313 -0.0776
   80CHL1  H27B 8399   1.234   3.363   8.481  0.8996  2.7247 -1.3324
   80CHL1  H27C 8400   1.383   3.362   8.374  0.3434  0.5896 -0.8529
   81CHL1    C3 8401   6.306   3.473   6.753  0.0831  0.3121 -0.0951
   81CHL1    H3 8402   6.376   3.558   6.743 -0.9943  1.7558  3.9170
   81CHL1    O3 8403   6.257   3.447   6.623 -0.3701  0.0741  0.1441
   81CHL1   H3' 8404   6.191   3.512   6.598 -2.6980 -1.5074  1.9340
   81CHL1    C4 8405   6.386   3.340   6.801  0.5189 -0.0240 -0.0622
   81CHL1   H4A 8406   6.323   3.250   6.780  0.1325  0.6759 -2.0051
   81CHL1   H4B 8407   6.465   3.335   6.724 -1.9080 -0.3284 -2.6356
   81CHL1    C5 8408   6.426   3.349   6.948  0.2814  0.8563 -0.0084
   81CHL1    C6 8409   6.554   3.340   6.986 -0.3985 -0.0607  0.0772
   81CHL1    H6 8410   6.630   3.325   6.908  1.4445 -0.2878  1.8509
   81CHL1    C7 8411   6.605   3.347   7.130 -0.4637 -0.2259 -0.0106
   81CHL1   H7A 8412   6.681   3.266   7.140  1.2479  1.5223  1.4539
   81CHL1   H7B 8413   6.644   3.449   7.149  0.4395 -0.6618  0.5478
   81CHL1    C8 8414   6.485   3.325   7.225  0.6980  0.4640  0.1839
   81CHL1    H8 8415   6.460   3.217   7.217 -0.7323  0.8225 -0.2492
   81CHL1   C14 8416   6.535   3.357   7.366 -0.1798  0.6714 -0.7369
   81CHL1   H14 8417   6.569   3.463   7.365 -1.3796  1.0728 -2.0599
   81CHL1   C15 8418   6.658   3.282   7.423 -0.0734 -0.1857 -0.6989
   81CHL1  H15A 8419   6.642   3.173   7.404 -0.8589  0.0378 -1.3411
   81CHL1  H15B 8420   6.750   3.311   7.367 -0.8041 -0.9085 -2.3228
   81CHL1   C16 8421   6.655   3.327   7.568 -0.1373 -0.1007 -0.4068
   81CHL1  H16A 8422   6.672   3.234   7.627 -0.5995 -0.5773 -1.0203
   81CHL1  H16B 8423   6.738   3.396   7.594 -0.6550  1.2303 -2.2221
   81CHL1   C17 8424   6.522   3.392   7.592  0.3649  0.0665  0.2068
   81CHL1   H17 8425   6.543   3.499   7.573  0.6056  0.2795  1.6489
   81CHL1   C13 8426   6.434   3.339   7.471  0.2949 -0.5619 -0.9915
   81CHL1   C18 8427   6.397   3.195   7.489  0.1388  0.4150  0.0905
   81CHL1  H18A 8428   6.312   3.183   7.559  1.7037  0.7257  2.1051
   81CHL1  H18B 8429   6.367   3.149   7.392  0.0346  0.5609  0.0538
   81CHL1  H18C 8430   6.484   3.133   7.521  0.9943  1.0219 -1.0277
   81CHL1   C12 8431   6.313   3.436   7.438 -0.0599 -0.1641  0.4130
   81CHL1  H12A 8432   6.224   3.416   7.501 -0.4305 -1.7690 -0.5972
   81CHL1  H12B 8433   6.342   3.542   7.454  0.0015 -0.3780  1.8701
   81CHL1   C11 8434   6.260   3.397   7.299  0.1496  0.0022  0.5812
   81CHL1  H11A 8435   6.233   3.289   7.301  1.4569 -0.3869 -1.2413
   81CHL1  H11B 8436   6.172   3.461   7.279 -1.3723 -1.5409  2.1103
   81CHL1    C9 8437   6.367   3.414   7.189  0.3675  0.0796 -0.0972
   81CHL1    H9 8438   6.416   3.514   7.199  0.6626  0.0003 -0.7830
   81CHL1   C10 8439   6.315   3.383   7.046 -0.5958 -0.1072  0.0113
   81CHL1   C19 8440   6.234   3.244   7.045  0.3497  0.6495 -0.7786
   81CHL1  H19A 8441   6.306   3.162   7.068 -1.3737 -0.1783  1.8043
   81CHL1  H19B 8442   6.152   3.245   7.120  0.4147  0.2652 -0.7001
   81CHL1  H19C 8443   6.188   3.221   6.947  1.0461 -1.1073 -0.7062
   81CHL1    C1 8444   6.238   3.504   7.001  0.1271 -0.0640  0.0204
   81CHL1   H1A 8445   6.147   3.508   7.064 -0.4946  0.8709 -0.9238
   81CHL1   H1B 8446   6.285   3.600   7.032  0.0891 -0.3898  1.1095
   81CHL1    C2 8447   6.195   3.506   6.853 -0.4304 -0.1636 -0.1918
   81CHL1   H2A 8448   6.147   3.602   6.824  0.7129 -0.0814 -1.9099
   81CHL1   H2B 8449   6.122   3.428   6.821  0.8336 -0.3813 -2.7018
   81CHL1   C20 8450   6.479   3.364   7.730  0.3478 -0.0391 -0.7301
   81CHL1   H20 8451   6.487   3.259   7.765  0.6430 -0.5245 -2.2204
   81CHL1   C21 8452   6.334   3.402   7.764 -0.2483  0.0652 -0.0221
   81CHL1  H21A 8453   6.267   3.345   7.697  1.0221 -1.0701 -0.3503
   81CHL1  H21B 8454   6.322   3.513   7.756 -0.7440  0.1438  1.4993
   81CHL1  H21C 8455   6.307   3.363   7.865 -0.4646  0.6304  0.1424
   81CHL1   C22 8456   6.574   3.431   7.834 -0.5459 -0.2830 -0.8731
   81CHL1  H22A 8457   6.681   3.433   7.803 -0.5774 -1.5677 -1.0898
   81CHL1  H22B 8458   6.540   3.536   7.847  0.3933 -0.0670 -0.0855
   81CHL1   C23 8459   6.572   3.358   7.971  0.3095 -0.0352 -0.1412
   81CHL1  H23A 8460   6.483   3.396   8.026  0.7776  1.0771 -0.1331
   81CHL1  H23B 8461   6.549   3.250   7.966  0.8236 -0.1661  0.2850
   81CHL1   C24 8462   6.687   3.397   8.065  0.2279 -0.9638  0.0074
   81CHL1  H24A 8463   6.780   3.377   8.008 -0.2763 -1.7913 -0.5461
   81CHL1  H24B 8464   6.685   3.507   8.075  1.3183 -0.7588 -1.8482
   81CHL1   C25 8465   6.684   3.322   8.197 -1.4759  0.4145 -0.2227
   81CHL1   H25 8466   6.696   3.214   8.178  1.1177  0.4300  1.0927
   81CHL1   C26 8467   6.805   3.361   8.281 -0.1656 -0.0223 -0.3825
   81CHL1  H26A 8468   6.799   3.310   8.380  1.4127  0.8595  0.1762
   81CHL1  H26B 8469   6.908   3.332   8.249  0.0561 -0.3314  0.5833
   81CHL1  H26C 8470   6.809   3.470   8.298 -1.9724  0.1216 -0.8161
   81CHL1   C27 8471   6.554   3.343   8.277  0.0897 -0.5928  0.3027
   81CHL1  H27A 8472   6.469   3.277   8.248 -0.7384 -0.7377  2.8719
   81CHL1  H27B 8473   6.569   3.327   8.386 -0.3550  0.1961  0.4815
   81CHL1  H27C 8474   6.523   3.449   8.272  1.6552 -0.0929  0.7841
   82CHL1    C3 8475   0.474   3.543   7.061  0.5835 -0.3435 -0.2142
   82CHL1    H3 8476   0.457   3.439   7.097 -1.0346  0.5946  1.8358
   82CHL1    O3 8477   0.525   3.533   6.929  0.2008 -0.3909  0.1323
   82CHL1   H3' 8478   0.450   3.529   6.870  0.1215  0.7734  0.1325
   82CHL1    C4 8479   0.345   3.630   7.065 -0.1932 -0.0999  0.0459
   82CHL1   H4A 8480   0.372   3.730   7.026 -0.5223 -0.2668 -0.6147
   82CHL1   H4B 8481   0.274   3.589   6.990  1.6995 -0.2161 -1.7015
   82CHL1    C5 8482   0.295   3.632   7.208  0.7537  0.4333  0.5198
   82CHL1    C6 8483   0.171   3.586   7.232  0.0842 -0.1482 -0.1978
   82CHL1    H6 8484   0.118   3.539   7.148  0.3685  0.1359 -0.5375
   82CHL1    C7 8485   0.108   3.593   7.369 -0.1490 -0.5417  1.0137
   82CHL1   H7A 8486   0.007   3.639   7.374 -0.4200 -1.1196  0.9381
   82CHL1   H7B 8487   0.099   3.493   7.418  0.0222 -0.6249  0.8745
   82CHL1    C8 8488   0.200   3.674   7.470 -0.6733 -0.3603  1.2242
   82CHL1    H8 8489   0.192   3.782   7.445  1.3941  0.8118  5.2369
   82CHL1   C14 8490   0.158   3.663   7.618 -0.2957  0.3823  1.2063
   82CHL1   H14 8491   0.181   3.556   7.638 -1.0941 -0.5506 -2.4235
   82CHL1   C15 8492   0.012   3.683   7.656 -0.5368  0.4478  0.2866
   82CHL1  H15A 8493  -0.019   3.766   7.589 -0.4738  0.6975  0.5638
   82CHL1  H15B 8494  -0.042   3.595   7.617 -0.5415  0.4440  0.3014
   82CHL1   C16 8495   0.013   3.706   7.803 -0.2722 -0.0167  0.0565
   82CHL1  H16A 8496  -0.041   3.796   7.839 -0.3625 -0.5020  1.1543
   82CHL1  H16B 8497  -0.037   3.629   7.866  0.3158 -0.5352 -0.1064
   82CHL1   C17 8498   0.168   3.708   7.848  0.3310  0.1676  0.3862
   82CHL1   H17 8499   0.185   3.602   7.875 -0.3361 -0.3637 -1.2216
   82CHL1   C13 8500   0.249   3.740   7.721  0.3950 -0.2559  0.2300
   82CHL1   C18 8501   0.252   3.891   7.696 -0.4766 -0.7802 -0.4838
   82CHL1  H18A 8502   0.158   3.945   7.723  0.6760  0.6057  0.8415
   82CHL1  H18B 8503   0.338   3.933   7.752 -1.0994 -0.2365  0.0720
   82CHL1  H18C 8504   0.256   3.907   7.586  1.1949  2.1820 -0.0476
   82CHL1   C12 8505   0.394   3.684   7.718 -0.4485 -0.0289  0.6816
   82CHL1  H12A 8506   0.466   3.743   7.779 -0.8804  2.0964 -0.8278
   82CHL1  H12B 8507   0.405   3.580   7.755 -1.0131  0.1224  1.2867
   82CHL1   C11 8508   0.437   3.704   7.575 -0.7954 -1.0972 -0.0997
   82CHL1  H11A 8509   0.448   3.813   7.557 -0.3824 -1.4810 -2.3362
   82CHL1  H11B 8510   0.540   3.662   7.570  0.4119  1.6202  1.1028
   82CHL1    C9 8511   0.352   3.647   7.458  0.4426  0.3186  0.5679
   82CHL1    H9 8512   0.360   3.538   7.478 -1.1006  0.1841  0.5378
   82CHL1   C10 8513   0.404   3.674   7.317 -0.0102 -0.5160 -0.0109
   82CHL1   C19 8514   0.425   3.832   7.292 -0.4697 -0.6340  0.2535
   82CHL1  H19A 8515   0.514   3.866   7.350  1.6504 -1.6417 -2.2822
   82CHL1  H19B 8516   0.456   3.852   7.187  2.9316  0.5283  1.3865
   82CHL1  H19C 8517   0.329   3.884   7.305 -0.2448  0.0353 -0.7356
   82CHL1    C1 8518   0.544   3.606   7.295 -0.7100 -0.3236  0.1985
   82CHL1   H1A 8519   0.614   3.670   7.353  0.8148 -3.0333  1.4581
   82CHL1   H1B 8520   0.540   3.503   7.337 -0.6268 -0.4645 -0.1380
   82CHL1    C2 8521   0.584   3.608   7.147 -0.4616 -0.2118 -0.1196
   82CHL1   H2A 8522   0.674   3.543   7.148 -0.6365 -0.4726 -1.0486
   82CHL1   H2B 8523   0.599   3.713   7.115 -0.3238 -0.4082 -0.7138
   82CHL1   C20 8524   0.181   3.784   7.974  0.0034 -0.2620 -0.5651
   82CHL1   H20 8525   0.291   3.794   7.986 -0.0184  0.9745 -1.2708
   82CHL1   C21 8526   0.137   3.690   8.087  0.3788 -0.3008  0.2425
   82CHL1  H21A 8527   0.202   3.717   8.173  0.8348 -0.8531  0.0756
   82CHL1  H21B 8528   0.146   3.583   8.059  4.1124 -0.5555  2.1446
   82CHL1  H21C 8529   0.030   3.707   8.109 -0.4801 -1.7072 -2.5662
   82CHL1   C22 8530   0.107   3.920   7.998 -0.2156 -0.0309 -0.0275
   82CHL1  H22A 8531   0.063   3.961   7.904 -0.1119  0.2768  0.0566
   82CHL1  H22B 8532   0.025   3.910   8.072 -0.4308 -0.0659 -0.2697
   82CHL1   C23 8533   0.197   4.036   8.041 -0.0572 -0.8965 -0.1994
   82CHL1  H23A 8534   0.237   4.010   8.141  0.6555  2.8131  0.5588
   82CHL1  H23B 8535   0.285   4.043   7.974 -0.0284 -0.1308 -0.0793
   82CHL1   C24 8536   0.116   4.170   8.049 -0.6961 -0.6006 -0.5278
   82CHL1  H24A 8537   0.072   4.187   7.948  1.0765  2.2880 -0.8867
   82CHL1  H24B 8538   0.027   4.147   8.111  0.7321  0.7373  2.0649
   82CHL1   C25 8539   0.195   4.288   8.095 -0.0264 -0.4006 -0.2308
   82CHL1   H25 8540   0.298   4.269   8.057  1.3258  3.6455  1.1414
   82CHL1   C26 8541   0.141   4.422   8.046  0.5145 -0.3850  0.6620
   82CHL1  H26A 8542   0.043   4.452   8.090  2.1687 -0.0539  4.2923
   82CHL1  H26B 8543   0.214   4.505   8.053 -0.1152  0.4197 -1.7208
   82CHL1  H26C 8544   0.115   4.416   7.938 -1.4101  2.4956  0.9133
   82CHL1   C27 8545   0.207   4.287   8.255  0.6368  0.3225  0.1238
   82CHL1  H27A 8546   0.278   4.211   8.292  1.2528  0.8223 -0.0129
   82CHL1  H27B 8547   0.255   4.384   8.281  1.5387 -0.6748  2.2721
   82CHL1  H27C 8548   0.116   4.276   8.318  0.3136  0.1157 -0.3749
   83CHL1    C3 8549   3.614   5.068   6.850 -0.8969 -0.5899 -0.0699
   83CHL1    H3 8550   3.721   5.041   6.861 -0.5989  0.5077 -0.2940
   83CHL1    O3 8551   3.593   5.091   6.716 -0.5986 -0.2634 -0.8666
   83CHL1   H3' 8552   3.663   5.150   6.687 -0.3230  1.0131  2.2313
   83CHL1    C4 8553   3.530   4.945   6.898 -0.0623  0.0196 -0.6253
   83CHL1   H4A 8554   3.426   4.959   6.860  0.1766 -0.3694 -1.4361
   83CHL1   H4B 8555   3.569   4.859   6.840  0.3563  0.2676 -0.7132
   83CHL1    C5 8556   3.530   4.926   7.049  0.3740 -0.9970 -0.9304
   83CHL1    C6 8557   3.580   4.808   7.094  0.6129 -0.6498  0.5516
   83CHL1    H6 8558   3.604   4.727   7.023  1.6774  1.7588 -1.9567
   83CHL1    C7 8559   3.595   4.777   7.237  0.0149 -0.6695 -0.5494
   83CHL1   H7A 8560   3.556   4.674   7.250  1.6335 -1.0769  1.1991
   83CHL1   H7B 8561   3.704   4.777   7.257  0.2816  0.8609 -1.8425
   83CHL1    C8 8562   3.520   4.881   7.331 -0.0907  0.1407  0.1272
   83CHL1    H8 8563   3.412   4.857   7.323 -0.7707  2.5121  1.5923
   83CHL1   C14 8564   3.577   4.874   7.473 -0.5251  0.5746 -0.0567
   83CHL1   H14 8565   3.687   4.886   7.474 -0.3499 -0.9559  0.7794
   83CHL1   C15 8566   3.568   4.731   7.531 -0.9724 -0.5420  0.0149
   83CHL1  H15A 8567   3.482   4.680   7.482 -2.3725  0.6063  1.2451
   83CHL1  H15B 8568   3.661   4.675   7.505 -0.7281  0.6358 -1.7636
   83CHL1   C16 8569   3.568   4.755   7.682 -0.4712  0.0839 -0.1851
   83CHL1  H16A 8570   3.480   4.710   7.734  0.1555  0.7119  1.4632
   83CHL1  H16B 8571   3.654   4.720   7.742 -2.1044 -1.3842  1.3724
   83CHL1   C17 8572   3.577   4.909   7.702  0.0696 -0.5736 -0.2618
   83CHL1   H17 8573   3.684   4.938   7.697  0.6344 -2.8023 -2.4610
   83CHL1   C13 8574   3.522   4.965   7.574  0.0768 -0.3836 -0.1311
   83CHL1   C18 8575   3.369   4.956   7.586  0.0236  1.9938 -0.0002
   83CHL1  H18A 8576   3.324   4.870   7.639  0.5665  1.7611  0.0950
   83CHL1  H18B 8577   3.331   5.045   7.640 -0.3440  1.6259  0.3478
   83CHL1  H18C 8578   3.312   4.960   7.491  1.1500  0.6367 -0.7384
   83CHL1   C12 8579   3.572   5.102   7.522  0.6384 -0.3205 -0.4976
   83CHL1  H12A 8580   3.546   5.194   7.579  1.9919 -0.8556  1.0029
   83CHL1  H12B 8581   3.683   5.110   7.528  0.4674  1.0946  1.3177
   83CHL1   C11 8582   3.519   5.127   7.379  0.5171 -0.1876 -0.2713
   83CHL1  H11A 8583   3.409   5.139   7.386  0.6839  0.6250  1.4214
   83CHL1  H11B 8584   3.556   5.225   7.343 -1.6690  1.0395  0.7277
   83CHL1    C9 8585   3.552   5.025   7.276  0.4575  0.7695 -0.8709
   83CHL1    H9 8586   3.663   5.015   7.276  0.4510  0.6933 -0.9783
   83CHL1   C10 8587   3.503   5.050   7.129 -0.4056 -0.0564 -0.3096
   83CHL1   C19 8588   3.350   5.072   7.137  0.1445 -1.0251 -0.2176
   83CHL1  H19A 8589   3.295   4.992   7.190  0.2737  0.2428  1.9186
   83CHL1  H19B 8590   3.333   5.169   7.190 -2.1771 -1.4922 -0.0670
   83CHL1  H19C 8591   3.301   5.096   7.040  1.2962 -1.6111 -0.9622
   83CHL1    C1 8592   3.581   5.181   7.075 -0.8845 -0.3816 -0.1915
   83CHL1   H1A 8593   3.538   5.268   7.128 -0.2358  0.1604 -0.5535
   83CHL1   H1B 8594   3.689   5.171   7.102 -1.3255 -1.0641  1.4318
   83CHL1    C2 8595   3.566   5.198   6.928 -0.4040 -0.0401  0.5844
   83CHL1   H2A 8596   3.624   5.286   6.894  0.2141 -1.0641 -1.1025
   83CHL1   H2B 8597   3.461   5.216   6.898 -0.4246  0.4775  0.9680
   83CHL1   C20 8598   3.516   4.958   7.837  0.4557  0.2885  0.2356
   83CHL1   H20 8599   3.407   4.937   7.827 -0.1180  2.4681  1.5195
   83CHL1   C21 8600   3.538   5.110   7.844 -0.2066 -0.0112  0.1356
   83CHL1  H21A 8601   3.510   5.153   7.942 -0.5073  1.0264 -0.4022
   83CHL1  H21B 8602   3.470   5.155   7.768  1.0569 -0.3548 -1.2273
   83CHL1  H21C 8603   3.643   5.135   7.817  0.0900 -1.5987 -0.2567
   83CHL1   C22 8604   3.569   4.872   7.959  0.3643  0.3998  0.3685
   83CHL1  H22A 8605   3.585   4.766   7.931  0.9652  0.5479  0.1329
   83CHL1  H22B 8606   3.668   4.913   7.988  1.3696 -1.0464 -0.9699
   83CHL1   C23 8607   3.465   4.876   8.069  0.7272  0.2982 -0.2705
   83CHL1  H23A 8608   3.414   4.974   8.080  1.3317  0.6321 -0.3904
   83CHL1  H23B 8609   3.376   4.817   8.037 -0.7009  1.5228  1.3473
   83CHL1   C24 8610   3.497   4.825   8.210  0.0795  0.2442 -0.2090
   83CHL1  H24A 8611   3.401   4.815   8.265  1.3265 -0.9919  1.8373
   83CHL1  H24B 8612   3.538   4.722   8.203 -1.2241 -0.2678 -0.3393
   83CHL1   C25 8613   3.595   4.904   8.290  0.7487 -0.0448  0.2703
   83CHL1   H25 8614   3.691   4.902   8.234  0.4227 -2.3922 -0.2738
   83CHL1   C26 8615   3.547   5.052   8.310 -0.5874  0.0958 -0.0522
   83CHL1  H26A 8616   3.457   5.060   8.376 -0.7626 -0.1444 -0.2601
   83CHL1  H26B 8617   3.624   5.114   8.360 -2.3723  0.6817  2.0345
   83CHL1  H26C 8618   3.524   5.097   8.211  0.0391  0.9967  0.2109
   83CHL1   C27 8619   3.612   4.845   8.432 -0.3187  1.0530 -0.9303
   83CHL1  H27A 8620   3.688   4.899   8.493  1.2346 -1.2486 -0.7465
   83CHL1  H27B 8621   3.519   4.843   8.492 -0.3349  1.3490 -0.9412
   83CHL1  H27C 8622   3.648   4.740   8.422  1.3339  1.4681  0.4742
   84CHL1    C3 8623   5.485   1.561   6.897  0.2690  0.5727 -0.6639
   84CHL1    H3 8624   5.395   1.620   6.922  0.8020  0.7271  0.9899
   84CHL1    O3 8625   5.536   1.589   6.775 -0.3696 -0.2510  0.6722
   84CHL1   H3' 8626   5.484   1.549   6.705  0.0435  3.2345 -1.8035
   84CHL1    C4 8627   5.594   1.595   7.006 -0.5790 -0.3169  0.1548
   84CHL1   H4A 8628   5.693   1.556   6.973  0.1268 -0.0878  1.9584
   84CHL1   H4B 8629   5.615   1.704   7.009 -3.9464  0.3399  1.7640
   84CHL1    C5 8630   5.559   1.558   7.152 -0.1113  0.6401  0.1024
   84CHL1    C6 8631   5.574   1.646   7.254  0.2474 -0.2770 -0.7326
   84CHL1    H6 8632   5.614   1.747   7.243  0.7875 -0.4378 -0.2836
   84CHL1    C7 8633   5.534   1.622   7.396 -0.7449 -0.2179 -0.0627
   84CHL1   H7A 8634   5.603   1.657   7.475 -0.7446  0.6960 -0.4560
   84CHL1   H7B 8635   5.436   1.671   7.418 -0.1846  0.7510  0.3091
   84CHL1    C8 8636   5.500   1.472   7.423 -0.9558  0.2292 -1.2544
   84CHL1    H8 8637   5.589   1.406   7.424  0.4949  2.1262 -0.7066
   84CHL1   C14 8638   5.424   1.449   7.555 -0.0749 -0.1700  0.0229
   84CHL1   H14 8639   5.340   1.522   7.553  0.3378  0.3250  0.5931
   84CHL1   C15 8640   5.500   1.487   7.684  0.3097 -0.7239  0.2104
   84CHL1  H15A 8641   5.602   1.443   7.685  0.5769 -0.1809 -1.1430
   84CHL1  H15B 8642   5.514   1.596   7.699  1.1943 -0.7909 -0.0899
   84CHL1   C16 8643   5.413   1.423   7.796 -0.2116 -0.0121  0.9262
   84CHL1  H16A 8644   5.484   1.365   7.859  2.3112  1.5074 -0.4237
   84CHL1  H16B 8645   5.352   1.494   7.855  0.7454  0.7909  0.9598
   84CHL1   C17 8646   5.304   1.332   7.724 -0.1929  0.0302 -0.0532
   84CHL1   H17 8647   5.216   1.399   7.718 -1.4515 -1.3684  2.2349
   84CHL1   C13 8648   5.358   1.310   7.580 -0.0682 -0.7281 -0.5639
   84CHL1   C18 8649   5.469   1.204   7.588 -0.0805  0.9476  0.4335
   84CHL1  H18A 8650   5.511   1.195   7.486 -2.1200  1.1810 -0.4631
   84CHL1  H18B 8651   5.551   1.227   7.658 -0.6365  1.8103  0.8112
   84CHL1  H18C 8652   5.434   1.103   7.619 -0.7188  1.3043  0.8753
   84CHL1   C12 8653   5.257   1.279   7.473 -0.5253  0.1697 -0.1468
   84CHL1  H12A 8654   5.209   1.178   7.479  4.2778 -2.3578 -1.3418
   84CHL1  H12B 8655   5.175   1.353   7.465  1.8068  2.7147 -1.0681
   84CHL1   C11 8656   5.327   1.287   7.334  0.5673  0.1937 -0.7600
   84CHL1  H11A 8657   5.406   1.209   7.328  0.5775  0.1764 -0.4214
   84CHL1  H11B 8658   5.248   1.269   7.258 -0.9520 -0.1323  0.8675
   84CHL1    C9 8659   5.405   1.419   7.312  0.1406  0.3586 -0.0977
   84CHL1    H9 8660   5.332   1.502   7.303  0.9288  1.3782  2.4240
   84CHL1   C10 8661   5.492   1.419   7.175  0.2775 -0.1398 -0.0274
   84CHL1   C19 8662   5.603   1.311   7.160 -0.1635 -0.5206 -0.2526
   84CHL1  H19A 8663   5.666   1.322   7.070  1.8935 -1.9403  0.9688
   84CHL1  H19B 8664   5.671   1.310   7.247  1.3056 -0.7121 -1.3879
   84CHL1  H19C 8665   5.552   1.213   7.147 -1.5622  0.1436  0.0504
   84CHL1    C1 8666   5.397   1.388   7.054  0.0301 -0.2389  1.1746
   84CHL1   H1A 8667   5.367   1.282   7.062  0.4547 -0.4803 -0.1981
   84CHL1   H1B 8668   5.316   1.463   7.070  0.7274  0.4482  1.5119
   84CHL1    C2 8669   5.444   1.411   6.913  0.4520 -0.1201 -0.3511
   84CHL1   H2A 8670   5.363   1.382   6.841 -0.5831 -1.6235  1.3669
   84CHL1   H2B 8671   5.535   1.349   6.895 -0.7378 -1.0972 -3.4541
   84CHL1   C20 8672   5.266   1.211   7.810 -0.8692  0.5844  0.4981
   84CHL1   H20 8673   5.340   1.128   7.804  0.4745  1.7636  0.4421
   84CHL1   C21 8674   5.135   1.144   7.753 -0.8633  0.4766  0.4527
   84CHL1  H21A 8675   5.051   1.216   7.762 -0.2303  1.0247  2.0979
   84CHL1  H21B 8676   5.102   1.065   7.824 -0.2470  1.1150  1.4509
   84CHL1  H21C 8677   5.142   1.096   7.653 -2.7054 -3.2683  2.0048
   84CHL1   C22 8678   5.255   1.244   7.965  0.3457  0.7448 -0.0673
   84CHL1  H22A 8679   5.228   1.144   8.005 -1.2964  1.0724 -0.3128
   84CHL1  H22B 8680   5.356   1.273   8.002  0.6654  0.8947 -1.0423
   84CHL1   C23 8681   5.149   1.346   8.007  0.5238 -0.0516  0.9243
   84CHL1  H23A 8682   5.168   1.432   7.939 -2.0811 -0.9223 -0.9451
   84CHL1  H23B 8683   5.043   1.314   8.003  0.4807  0.0815  0.9880
   84CHL1   C24 8684   5.168   1.383   8.151 -1.2527  0.0222  1.0453
   84CHL1  H24A 8685   5.146   1.296   8.217  0.6601  0.2846  2.0582
   84CHL1  H24B 8686   5.273   1.412   8.171 -1.0614 -0.0964  0.2301
   84CHL1   C25 8687   5.071   1.498   8.192 -0.6457 -0.5549 -0.4364
   84CHL1   H25 8688   4.973   1.472   8.146 -0.5410  1.3127 -1.7820
   84CHL1   C26 8689   5.055   1.502   8.345 -0.3922 -0.2585  0.1492
   84CHL1  H26A 8690   4.991   1.587   8.377  3.1067  1.9325  1.7284
   84CHL1  H26B 8691   4.994   1.414   8.373  0.4160 -0.5424  1.0394
   84CHL1  H26C 8692   5.151   1.505   8.401 -0.0904  1.5913 -0.4365
   84CHL1   C27 8693   5.117   1.640   8.136 -0.3640  0.3955 -0.1709
   84CHL1  H27A 8694   5.045   1.714   8.178  0.5703  1.0968  0.2057
   84CHL1  H27B 8695   5.223   1.657   8.164 -0.0821  0.1999 -1.1141
   84CHL1  H27C 8696   5.112   1.640   8.025  0.2118 -0.8999 -0.2019
   85CHL1    C3 8697   5.210   5.070   6.807  0.0455  0.5271  0.4444
   85CHL1    H3 8698   5.308   5.029   6.774  0.0637  0.7708  0.1947
   85CHL1    O3 8699   5.129   5.105   6.698 -0.3637  0.3171 -0.1295
   85CHL1   H3' 8700   5.097   5.193   6.720  1.0998  1.5161 -2.6139
   85CHL1    C4 8701   5.148   4.964   6.891  0.7242 -0.0323 -0.0095
   85CHL1   H4A 8702   5.045   4.998   6.913  0.5977 -1.1894  1.3479
   85CHL1   H4B 8703   5.146   4.865   6.841 -0.2693 -0.2172  0.3887
   85CHL1    C5 8704   5.222   4.943   7.019  0.5710  0.2502  0.8643
   85CHL1    C6 8705   5.263   4.827   7.061  0.0182  0.1592 -0.7055
   85CHL1    H6 8706   5.235   4.741   7.000 -2.1966 -0.4617  1.1566
   85CHL1    C7 8707   5.352   4.789   7.182  0.4313 -0.9910 -0.3648
   85CHL1   H7A 8708   5.312   4.702   7.238  1.8888 -1.1685  0.4306
   85CHL1   H7B 8709   5.459   4.768   7.158  0.2627 -1.0664 -1.0460
   85CHL1    C8 8710   5.348   4.916   7.271  0.5484  0.3683  0.2414
   85CHL1    H8 8711   5.249   4.919   7.319  1.1801  1.1061  1.5325
   85CHL1   C14 8712   5.468   4.901   7.377 -0.2692  0.2422  0.0744
   85CHL1   H14 8713   5.560   4.904   7.314  0.1380 -1.0291  0.5887
   85CHL1   C15 8714   5.467   4.777   7.469 -0.7156 -0.1233 -0.1689
   85CHL1  H15A 8715   5.369   4.745   7.509 -1.6731  1.0695 -1.5272
   85CHL1  H15B 8716   5.513   4.694   7.409  1.3168  0.4980  0.4783
   85CHL1   C16 8717   5.568   4.828   7.581  0.3497  0.4224  0.8295
   85CHL1  H16A 8718   5.519   4.814   7.679  0.6072  0.6576  0.9905
   85CHL1  H16B 8719   5.663   4.769   7.580  0.7618  0.8975  4.8127
   85CHL1   C17 8720   5.586   4.979   7.567 -0.0647  0.0111  0.4330
   85CHL1   H17 8721   5.683   4.993   7.515  0.6240 -0.5997  1.5442
   85CHL1   C13 8722   5.477   5.023   7.462  0.0360 -0.3463 -0.3489
   85CHL1   C18 8723   5.355   5.053   7.548  0.1273 -0.0160  0.6158
   85CHL1  H18A 8724   5.363   5.145   7.610  2.6520  1.1355 -1.3425
   85CHL1  H18B 8725   5.264   5.074   7.487  0.2163 -0.9431  0.1502
   85CHL1  H18C 8726   5.338   4.961   7.608 -1.5137 -0.5370 -0.6092
   85CHL1   C12 8727   5.515   5.148   7.385  0.1009  0.5918  0.4563
   85CHL1  H12A 8728   5.534   5.235   7.451 -2.1733  0.1205  1.7896
   85CHL1  H12B 8729   5.608   5.130   7.326  0.0126  1.8031 -0.0779
   85CHL1   C11 8730   5.412   5.178   7.276  0.3672  0.5492 -0.0529
   85CHL1  H11A 8731   5.314   5.199   7.324  0.4689  1.3543 -0.1794
   85CHL1  H11B 8732   5.442   5.262   7.210  0.2553 -0.2886 -1.1817
   85CHL1    C9 8733   5.373   5.050   7.192 -0.7487 -0.2572  0.2962
   85CHL1    H9 8734   5.466   5.022   7.138 -1.2785  1.2964 -1.5037
   85CHL1   C10 8735   5.264   5.074   7.084 -0.8901  0.2687 -0.3164
   85CHL1   C19 8736   5.133   5.124   7.148 -0.0976 -0.0031  0.8188
   85CHL1  H19A 8737   5.149   5.220   7.201 -0.6681  1.8065 -2.1418
   85CHL1  H19B 8738   5.051   5.144   7.075  1.3729  1.2987 -0.5271
   85CHL1  H19C 8739   5.089   5.053   7.221  0.1823  0.9949  1.9766
   85CHL1    C1 8740   5.321   5.180   6.985 -0.3882  0.0481 -0.8099
   85CHL1   H1A 8741   5.338   5.275   7.040 -0.5718 -0.2304 -0.2651
   85CHL1   H1B 8742   5.419   5.148   6.945 -0.9940  0.9130 -3.0351
   85CHL1    C2 8743   5.227   5.201   6.872 -0.0501 -0.4072  0.2324
   85CHL1   H2A 8744   5.282   5.273   6.809  0.9644 -1.8208 -0.5312
   85CHL1   H2B 8745   5.137   5.244   6.920 -0.5997 -0.9366 -0.3127
   85CHL1   C20 8746   5.602   5.061   7.700  0.4712  0.0151  0.1915
   85CHL1   H20 8747   5.511   5.054   7.764 -0.3785 -0.3555 -1.0388
   85CHL1   C21 8748   5.633   5.213   7.670  0.3045 -0.3522 -0.1078
   85CHL1  H21A 8749   5.683   5.258   7.759  1.8862 -1.5180 -0.3777
   85CHL1  H21B 8750   5.539   5.273   7.662  0.0114 -0.9720 -1.3420
   85CHL1  H21C 8751   5.703   5.231   7.586 -0.9861  2.0465 -0.7278
   85CHL1   C22 8752   5.708   5.001   7.783 -0.7168 -0.1228 -0.1430
   85CHL1  H22A 8753   5.690   4.891   7.789  0.3363 -0.4029 -1.8187
   85CHL1  H22B 8754   5.804   5.015   7.729  0.1640 -1.0725  1.1306
   85CHL1   C23 8755   5.730   5.054   7.924  0.1928 -0.7917 -0.7835
   85CHL1  H23A 8756   5.815   5.000   7.971 -1.0931 -1.0001  1.3672
   85CHL1  H23B 8757   5.767   5.159   7.921  0.8285 -0.9190  1.5081
   85CHL1   C24 8758   5.606   5.026   8.021 -0.2769  0.4882  0.5556
   85CHL1  H24A 8759   5.508   5.058   7.978 -1.5386  1.0072  3.6261
   85CHL1  H24B 8760   5.601   4.916   8.033 -0.5246  0.2837 -1.3028
   85CHL1   C25 8761   5.607   5.088   8.164  0.4690  0.3318 -0.7916
   85CHL1   H25 8762   5.582   5.196   8.151 -1.2242  0.0368 -0.1207
   85CHL1   C26 8763   5.501   5.020   8.253  1.0600  0.4707  0.0424
   85CHL1  H26A 8764   5.495   5.072   8.352 -0.0447  0.2977  0.0721
   85CHL1  H26B 8765   5.398   5.031   8.215  0.8607 -0.4413  0.3020
   85CHL1  H26C 8766   5.526   4.913   8.273  1.4380  0.1215 -2.2124
   85CHL1   C27 8767   5.750   5.097   8.224  1.0099 -0.4225 -0.0026
   85CHL1  H27A 8768   5.735   5.132   8.328 -0.1459  0.8680 -0.5980
   85CHL1  H27B 8769   5.806   5.001   8.229  1.1802 -0.2512  1.6394
   85CHL1  H27C 8770   5.807   5.170   8.163 -0.5670  0.7992 -0.0231
   86CHL1    C3 8771   0.732   2.894   6.912  0.8338 -0.2231 -0.3230
   86CHL1    H3 8772   0.768   2.993   6.949 -0.5310  0.4802 -0.8506
   86CHL1    O3 8773   0.741   2.898   6.768 -0.6241  0.1467  0.3397
   86CHL1   H3' 8774   0.694   2.816   6.748  0.4068  0.1551 -2.3636
   86CHL1    C4 8775   0.820   2.770   6.963  0.4202 -0.1980 -0.5785
   86CHL1   H4A 8776   0.781   2.685   6.904  0.6535  0.1422 -1.2325
   86CHL1   H4B 8777   0.920   2.796   6.923 -0.0293 -0.2756 -1.7749
   86CHL1    C5 8778   0.804   2.777   7.113  0.4632 -0.2533 -0.7082
   86CHL1    C6 8779   0.909   2.773   7.196  0.8029  1.2087  0.3545
   86CHL1    H6 8780   1.003   2.782   7.139  0.7600  0.3294  0.1310
   86CHL1    C7 8781   0.914   2.773   7.349 -0.1589  0.3990  0.8731
   86CHL1   H7A 8782   0.989   2.708   7.399  1.4535  1.5223 -0.0606
   86CHL1   H7B 8783   0.937   2.875   7.387  1.7673  0.3667 -0.1892
   86CHL1    C8 8784   0.769   2.744   7.407 -0.0571 -0.6729 -0.3111
   86CHL1    H8 8785   0.758   2.634   7.399  1.1423 -0.7051 -1.7359
   86CHL1   C14 8786   0.765   2.793   7.549  0.2088  0.3059 -0.0811
   86CHL1   H14 8787   0.780   2.903   7.559 -0.3095  0.6645 -2.8048
   86CHL1   C15 8788   0.864   2.726   7.644 -0.1979 -0.0178  0.8539
   86CHL1  H15A 8789   0.873   2.616   7.631 -1.3982  0.0359 -0.6251
   86CHL1  H15B 8790   0.958   2.784   7.632  0.0665 -0.5746  0.2142
   86CHL1   C16 8791   0.801   2.753   7.782 -0.0004  0.6276  0.0337
   86CHL1  H16A 8792   0.797   2.651   7.827  1.1395  0.0918 -1.0487
   86CHL1  H16B 8793   0.879   2.808   7.839 -0.8088 -1.1688  2.9865
   86CHL1   C17 8794   0.663   2.823   7.762  0.2685  0.2731 -0.3160
   86CHL1   H17 8795   0.674   2.933   7.755 -2.1214  0.6478  1.2061
   86CHL1   C13 8796   0.630   2.781   7.618 -0.3081 -0.1401 -0.0545
   86CHL1   C18 8797   0.587   2.633   7.624  0.1569 -0.7085 -0.1769
   86CHL1  H18A 8798   0.478   2.626   7.647  0.0997  0.7734  0.0033
   86CHL1  H18B 8799   0.597   2.576   7.528 -3.1959 -3.1868  0.8446
   86CHL1  H18C 8800   0.640   2.581   7.706 -1.3865  2.7926  3.1388
   86CHL1   C12 8801   0.533   2.863   7.533  0.2009 -0.0695 -0.0701
   86CHL1  H12A 8802   0.427   2.849   7.565  0.5894 -0.5977  1.0015
   86CHL1  H12B 8803   0.560   2.970   7.533 -3.3182  0.8894  1.5786
   86CHL1   C11 8804   0.528   2.807   7.387 -0.7175  0.2202  0.1709
   86CHL1  H11A 8805   0.482   2.708   7.404 -2.3160  1.0209  0.6168
   86CHL1  H11B 8806   0.459   2.868   7.324  0.0378 -0.4837 -1.3644
   86CHL1    C9 8807   0.665   2.809   7.324  0.1550  0.2586  0.1155
   86CHL1    H9 8808   0.697   2.916   7.322 -0.8504  0.5490 -1.2450
   86CHL1   C10 8809   0.664   2.773   7.171  0.2046 -0.1425 -0.2552
   86CHL1   C19 8810   0.619   2.622   7.168  0.0445  0.1275 -0.3547
   86CHL1  H19A 8811   0.519   2.609   7.214  0.5943  0.9247  1.0799
   86CHL1  H19B 8812   0.617   2.589   7.062  3.5717  0.2423 -0.4914
   86CHL1  H19C 8813   0.687   2.554   7.222 -0.8812  0.1306  0.8398
   86CHL1    C1 8814   0.563   2.867   7.100  0.3360 -0.6030  0.6636
   86CHL1   H1A 8815   0.461   2.828   7.120 -0.8130  0.4570 -2.8431
   86CHL1   H1B 8816   0.574   2.970   7.140 -0.5098 -0.1218 -0.3365
   86CHL1    C2 8817   0.588   2.885   6.951 -0.3803  0.2087 -0.6067
   86CHL1   H2A 8818   0.539   2.970   6.898 -0.8211  0.7983  0.7152
   86CHL1   H2B 8819   0.555   2.791   6.902  0.8799 -0.1851 -0.6978
   86CHL1   C20 8820   0.567   2.791   7.877  0.0222  0.0320 -0.4320
   86CHL1   H20 8821   0.565   2.682   7.900  0.5547  0.5977  2.4523
   86CHL1   C21 8822   0.430   2.848   7.830  0.2609 -0.4634 -0.3846
   86CHL1  H21A 8823   0.379   2.780   7.759 -4.1458  1.3451  0.8743
   86CHL1  H21B 8824   0.442   2.951   7.791  0.2861 -0.2045  0.3082
   86CHL1  H21C 8825   0.363   2.861   7.917 -1.9802  2.1774 -2.4186
   86CHL1   C22 8826   0.615   2.866   8.007  0.1303 -0.8424  1.0255
   86CHL1  H22A 8827   0.718   2.837   8.035  1.0495 -0.1692 -1.5684
   86CHL1  H22B 8828   0.616   2.977   7.999 -1.5187 -0.7942  1.2323
   86CHL1   C23 8829   0.532   2.838   8.133 -0.2155 -0.2525 -0.0480
   86CHL1  H23A 8830   0.423   2.824   8.120 -0.1370 -1.8169  0.8451
   86CHL1  H23B 8831   0.564   2.739   8.174  0.7420  0.8956  2.1184
   86CHL1   C24 8832   0.545   2.945   8.246 -0.4088  0.5884  0.4327
   86CHL1  H24A 8833   0.649   2.953   8.285  0.6752 -0.7467 -2.0551
   86CHL1  H24B 8834   0.509   3.041   8.202 -0.0671 -0.7154 -2.8562
   86CHL1   C25 8835   0.446   2.917   8.354 -0.2617 -1.0406 -0.1627
   86CHL1   H25 8836   0.426   2.808   8.364  1.5347 -1.3193  0.4856
   86CHL1   C26 8837   0.494   2.961   8.499  0.5095 -0.4447 -0.6807
   86CHL1  H26A 8838   0.424   2.935   8.581 -1.8660  0.3139 -2.4385
   86CHL1  H26B 8839   0.592   2.912   8.522  0.2653  0.5042  2.7627
   86CHL1  H26C 8840   0.508   3.071   8.512  2.1019 -0.5201 -1.6244
   86CHL1   C27 8841   0.315   2.993   8.334  0.2468 -0.6982  0.8338
   86CHL1  H27A 8842   0.335   3.101   8.352 -2.7769 -0.2818  2.0097
   86CHL1  H27B 8843   0.270   2.961   8.238 -0.0395  0.4964  0.5554
   86CHL1  H27C 8844   0.257   2.975   8.427  0.7466 -1.8492  0.9334
   87CHL1    C3 8845   0.412   1.240   7.092  0.5450 -0.2122 -0.2710
   87CHL1    H3 8846   0.462   1.142   7.084  0.9649  0.0690 -1.1850
   87CHL1    O3 8847   0.319   1.264   6.982 -0.6721 -0.0691  0.1282
   87CHL1   H3' 8848   0.274   1.341   7.016  1.0565  0.8224  0.4358
   87CHL1    C4 8849   0.330   1.242   7.223  0.4024  0.4996 -0.4364
   87CHL1   H4A 8850   0.296   1.347   7.232 -1.6721 -0.1031 -1.0477
   87CHL1   H4B 8851   0.240   1.177   7.216  0.1772  0.6556  0.7668
   87CHL1    C5 8852   0.404   1.227   7.353  0.1194  1.1506  0.0788
   87CHL1    C6 8853   0.385   1.125   7.438 -1.0185  0.2542 -0.0107
   87CHL1    H6 8854   0.300   1.059   7.416 -1.1706 -0.9271  3.7412
   87CHL1    C7 8855   0.459   1.109   7.567  0.2108  0.5694 -0.8447
   87CHL1   H7A 8856   0.395   1.093   7.656  1.9787 -0.9016  0.1962
   87CHL1   H7B 8857   0.518   1.015   7.558  1.7589  1.2786  1.4193
   87CHL1    C8 8858   0.560   1.215   7.600  0.6508 -0.8995  0.3603
   87CHL1    H8 8859   0.507   1.302   7.644  0.7725  0.7949 -2.6612
   87CHL1   C14 8860   0.662   1.176   7.698  0.3447  0.6062 -0.0916
   87CHL1   H14 8861   0.717   1.094   7.647 -0.1047 -0.0897  0.5257
   87CHL1   C15 8862   0.613   1.135   7.837  0.6509  0.5026  0.1644
   87CHL1  H15A 8863   0.530   1.199   7.874 -0.8149 -0.4221 -1.4382
   87CHL1  H15B 8864   0.558   1.039   7.837 -0.3788  1.0808  0.9477
   87CHL1   C16 8865   0.741   1.136   7.926  0.3601  0.1534 -0.8724
   87CHL1  H16A 8866   0.710   1.177   8.025 -1.5786 -2.4603 -0.3148
   87CHL1  H16B 8867   0.776   1.030   7.930 -2.9898 -1.0313 -0.7011
   87CHL1   C17 8868   0.845   1.215   7.852 -0.1946  0.3530 -0.0306
   87CHL1   H17 8869   0.912   1.144   7.800  0.2561  1.3519 -0.8233
   87CHL1   C13 8870   0.770   1.285   7.732 -0.2630 -0.0537 -0.0842
   87CHL1   C18 8871   0.705   1.414   7.787 -0.2117 -0.0961  0.0053
   87CHL1  H18A 8872   0.616   1.434   7.723 -0.2362  1.3665  0.4711
   87CHL1  H18B 8873   0.664   1.397   7.889  1.9263 -0.8476  0.7638
   87CHL1  H18C 8874   0.770   1.505   7.789 -1.2596  0.6745 -0.4286
   87CHL1   C12 8875   0.843   1.320   7.602  0.4224  0.2534  0.1064
   87CHL1  H12A 8876   0.918   1.401   7.617  0.2772  0.2071  1.1577
   87CHL1  H12B 8877   0.895   1.229   7.564  1.1115  0.2612  1.0122
   87CHL1   C11 8878   0.752   1.369   7.491 -0.9650 -0.0080  0.4381
   87CHL1  H11A 8879   0.702   1.460   7.528 -1.8707 -1.3521  2.6097
   87CHL1  H11B 8880   0.802   1.392   7.394  0.7992  0.4658  1.4345
   87CHL1    C9 8881   0.628   1.267   7.470 -0.3140  0.3048 -0.0960
   87CHL1    H9 8882   0.666   1.177   7.418  1.7621  0.6183  0.8267
   87CHL1   C10 8883   0.525   1.322   7.361 -0.0325 -0.6096 -0.4999
   87CHL1   C19 8884   0.478   1.462   7.402  0.5124 -0.8257 -0.3502
   87CHL1  H19A 8885   0.444   1.453   7.508 -3.0079 -1.3040 -1.4611
   87CHL1  H19B 8886   0.554   1.543   7.402 -0.1137 -0.2261  0.1570
   87CHL1  H19C 8887   0.391   1.495   7.341 -0.4722 -1.4733  0.6729
   87CHL1    C1 8888   0.607   1.338   7.227  0.4441  0.0641  0.0122
   87CHL1   H1A 8889   0.669   1.430   7.227 -1.0247  1.0743 -0.7446
   87CHL1   H1B 8890   0.678   1.253   7.224 -0.4376 -0.7791  1.9530
   87CHL1    C2 8891   0.515   1.352   7.096 -0.1001 -0.0539 -0.0385
   87CHL1   H2A 8892   0.578   1.341   7.006  0.9197  2.2906  0.3435
   87CHL1   H2B 8893   0.459   1.448   7.093 -0.3073 -0.1632  0.3125
   87CHL1   C20 8894   0.937   1.301   7.944 -0.3527  0.3236  0.9880
   87CHL1   H20 8895   0.876   1.382   7.990 -1.2168  0.1946  0.0923
   87CHL1   C21 8896   1.052   1.370   7.858  0.0695 -0.3182  0.2576
   87CHL1  H21A 8897   1.026   1.463   7.803  2.7617 -0.8442 -2.0125
   87CHL1  H21B 8898   1.106   1.304   7.786 -1.1376 -1.6440  0.5467
   87CHL1  H21C 8899   1.139   1.397   7.920  2.1644  1.3842 -3.2434
   87CHL1   C22 8900   1.003   1.215   8.057  0.1224 -0.2941 -0.1078
   87CHL1  H22A 8901   1.059   1.282   8.125  1.0585  0.6027 -1.7100
   87CHL1  H22B 8902   0.920   1.161   8.107  1.1847 -0.4575  1.5008
   87CHL1   C23 8903   1.112   1.114   7.997  0.6849  0.1771 -0.0001
   87CHL1  H23A 8904   1.064   1.056   7.915  0.3659  1.3137 -0.6266
   87CHL1  H23B 8905   1.193   1.176   7.953  1.1368  0.5632  1.3657
   87CHL1   C24 8906   1.165   1.034   8.116  0.4554 -0.0701  0.0481
   87CHL1  H24A 8907   1.197   1.107   8.193 -0.0752 -1.4509  1.6052
   87CHL1  H24B 8908   1.075   0.979   8.151  0.0720  1.3172  1.2868
   87CHL1   C25 8909   1.287   0.941   8.088 -0.6974 -0.4557 -0.7332
   87CHL1   H25 8910   1.366   1.008   8.048  0.3400 -2.3703 -1.9507
   87CHL1   C26 8911   1.327   0.882   8.226 -0.1591  1.1006 -0.4201
   87CHL1  H26A 8912   1.246   0.829   8.280  1.7266 -1.7828 -0.2933
   87CHL1  H26B 8913   1.414   0.813   8.216  1.2027  2.1205  3.3356
   87CHL1  H26C 8914   1.351   0.961   8.301 -1.6452  1.6613 -0.5324
   87CHL1   C27 8915   1.265   0.828   7.986  0.6062  0.2334 -0.5802
   87CHL1  H27A 8916   1.176   0.769   8.016  0.5280  1.7264  2.2797
   87CHL1  H27B 8917   1.240   0.869   7.886  0.2452 -1.3033 -1.1412
   87CHL1  H27C 8918   1.355   0.764   7.978  0.4857  0.1398 -1.2440
   88CHL1    C3 8919   4.910   6.716   6.820  0.1826 -0.4601 -0.4377
   88CHL1    H3 8920   4.883   6.814   6.865  1.3686 -0.2808 -0.0990
   88CHL1    O3 8921   4.901   6.724   6.678  0.6402  0.0618  0.2967
   88CHL1   H3' 8922   4.915   6.634   6.647  0.3741 -0.4672  1.6886
   88CHL1    C4 8923   5.040   6.651   6.856 -0.4418 -0.2760 -0.1112
   88CHL1   H4A 8924   5.054   6.556   6.800  1.8269  0.1046 -0.2224
   88CHL1   H4B 8925   5.125   6.716   6.827  0.3304 -0.8847  0.7365
   88CHL1    C5 8926   5.039   6.624   7.006  0.3920 -0.4014  0.3116
   88CHL1    C6 8927   5.143   6.665   7.086  0.5460 -0.4610 -0.1248
   88CHL1    H6 8928   5.235   6.708   7.045  1.2448 -0.4258  1.4326
   88CHL1    C7 8929   5.156   6.636   7.233 -0.4204 -0.8000 -0.7672
   88CHL1   H7A 8930   5.259   6.610   7.265 -0.1595  1.1632  0.0946
   88CHL1   H7B 8931   5.142   6.734   7.284 -2.3524 -1.7074  0.5281
   88CHL1    C8 8932   5.061   6.524   7.280 -0.1703 -0.2090  0.0733
   88CHL1    H8 8933   5.103   6.431   7.236  2.5099 -0.2616  2.5954
   88CHL1   C14 8934   5.065   6.512   7.429 -0.3083  0.8076  0.8285
   88CHL1   H14 8935   5.020   6.610   7.456  1.5343  1.4255  1.6930
   88CHL1   C15 8936   5.202   6.503   7.496 -0.0072 -0.0531 -0.9331
   88CHL1  H15A 8937   5.276   6.456   7.426  0.0055  2.1100 -2.4240
   88CHL1  H15B 8938   5.248   6.600   7.522 -0.4025 -0.6331  2.0518
   88CHL1   C16 8939   5.169   6.449   7.632 -0.3522  0.0834 -0.5429
   88CHL1  H16A 8940   5.226   6.355   7.649  0.5234  0.6501 -0.3506
   88CHL1  H16B 8941   5.214   6.525   7.700  2.2024 -0.2807 -1.7561
   88CHL1   C17 8942   5.012   6.442   7.639  0.3140  0.8639 -0.6208
   88CHL1   H17 8943   4.996   6.544   7.680  2.0792  0.9372 -0.0742
   88CHL1   C13 8944   4.973   6.414   7.496  1.1711 -0.6091 -0.2209
   88CHL1   C18 8945   5.008   6.265   7.458  0.4072  0.7598  0.0221
   88CHL1  H18A 8946   4.982   6.237   7.354 -1.2798 -0.5111  0.7787
   88CHL1  H18B 8947   5.118   6.250   7.459  0.1841 -1.1141 -1.5684
   88CHL1  H18C 8948   4.964   6.194   7.530 -0.7104 -0.0504 -1.4367
   88CHL1   C12 8949   4.829   6.462   7.456  0.2742  0.2057  0.0399
   88CHL1  H12A 8950   4.757   6.394   7.507  0.0090 -0.1094 -0.7426
   88CHL1  H12B 8951   4.801   6.563   7.491 -2.1941  0.4039 -2.3503
   88CHL1   C11 8952   4.815   6.462   7.299 -0.0915  0.0362 -0.6505
   88CHL1  H11A 8953   4.834   6.355   7.275 -0.9718 -0.4158  0.6127
   88CHL1  H11B 8954   4.713   6.496   7.269  0.2692  0.3007 -1.5971
   88CHL1    C9 8955   4.924   6.552   7.223 -0.0476  0.6247  0.5098
   88CHL1    H9 8956   4.889   6.653   7.253 -1.1771  0.3347  0.2025
   88CHL1   C10 8957   4.917   6.552   7.065 -0.5968  0.5004  0.2361
   88CHL1   C19 8958   4.914   6.402   7.015  0.2870  0.9739 -0.3129
   88CHL1  H19A 8959   4.822   6.347   7.044  0.7370 -0.2378 -1.1200
   88CHL1  H19B 8960   4.913   6.397   6.904 -0.2671 -0.3711 -0.2606
   88CHL1  H19C 8961   5.001   6.347   7.057  0.9989  2.2062 -0.1605
   88CHL1    C1 8962   4.781   6.622   7.022  0.1127 -0.8792  0.3072
   88CHL1   H1A 8963   4.709   6.548   7.063 -1.1955  0.1415 -0.1248
   88CHL1   H1B 8964   4.760   6.723   7.064  1.1700 -1.0284  1.2093
   88CHL1    C2 8965   4.788   6.636   6.870 -0.3410  0.2045  0.1768
   88CHL1   H2A 8966   4.694   6.680   6.831  0.4085  1.5842 -0.1135
   88CHL1   H2B 8967   4.790   6.535   6.824  1.5429  1.1248 -1.9001
   88CHL1   C20 8968   4.949   6.349   7.747 -0.0024 -0.0412 -1.1526
   88CHL1   H20 8969   4.977   6.244   7.726 -1.5568 -1.0133  1.3777
   88CHL1   C21 8970   4.792   6.359   7.762 -0.1757  0.0971 -0.4512
   88CHL1  H21A 8971   4.761   6.461   7.733  0.7648  0.7782  0.8932
   88CHL1  H21B 8972   4.757   6.338   7.866  1.2808 -1.1108 -0.1960
   88CHL1  H21C 8973   4.744   6.282   7.698 -2.0581  0.9469 -0.1090
   88CHL1   C22 8974   5.020   6.368   7.890  0.9085 -0.8247 -0.1179
   88CHL1  H22A 8975   5.128   6.387   7.876  0.5315 -0.5614 -2.9846
   88CHL1  H22B 8976   4.973   6.461   7.929 -2.4491 -1.4116 -2.5033
   88CHL1   C23 8977   5.005   6.256   8.001 -0.6125 -1.1396 -0.6122
   88CHL1  H23A 8978   4.895   6.242   8.008 -0.9601  0.8183 -2.0394
   88CHL1  H23B 8979   5.038   6.160   7.955 -1.7573 -1.4070 -0.8818
   88CHL1   C24 8980   5.070   6.283   8.133 -0.0810  0.3937  0.3790
   88CHL1  H24A 8981   5.006   6.353   8.189 -1.7439 -0.1927 -0.7438
   88CHL1  H24B 8982   5.065   6.188   8.192  3.0378 -1.1512 -1.6923
   88CHL1   C25 8983   5.213   6.347   8.126 -0.6355 -0.0440  0.0536
   88CHL1   H25 8984   5.202   6.441   8.067 -0.7534 -0.4435 -0.5690
   88CHL1   C26 8985   5.267   6.376   8.269 -0.0379 -0.0860  0.3177
   88CHL1  H26A 8986   5.260   6.276   8.317 -0.2328 -0.7297 -1.0150
   88CHL1  H26B 8987   5.371   6.415   8.268 -0.8829  2.2298 -1.6108
   88CHL1  H26C 8988   5.202   6.446   8.325 -0.7535  0.1404 -0.7701
   88CHL1   C27 8989   5.321   6.262   8.056  0.2975  0.4214  0.1531
   88CHL1  H27A 8990   5.350   6.175   8.119  0.1312 -0.6665 -1.2430
   88CHL1  H27B 8991   5.283   6.215   7.963 -1.3917  0.1219  0.9789
   88CHL1  H27C 8992   5.414   6.321   8.040 -0.2995  0.7519 -2.4318
   89CHL1    C3 8993   1.090   2.403   7.041  0.8364 -0.4366 -0.0937
   89CHL1    H3 8994   0.989   2.447   7.050  0.0644 -1.6565 -2.4512
   89CHL1    O3 8995   1.157   2.448   6.916 -0.3906 -0.7429  0.1653
   89CHL1   H3' 8996   1.248   2.417   6.919  0.6975  2.3697  1.5266
   89CHL1    C4 8997   1.161   2.456   7.165  0.5354 -0.2072  0.1102
   89CHL1   H4A 8998   1.269   2.455   7.137  0.0448 -0.1083 -1.8501
   89CHL1   H4B 8999   1.125   2.560   7.177  1.6123 -0.0763  2.5284
   89CHL1    C5 9000   1.137   2.376   7.295  0.7042  0.3574 -1.2586
   89CHL1    C6 9001   1.113   2.441   7.410 -0.9126  0.0848 -0.2321
   89CHL1    H6 9002   1.111   2.551   7.404  0.4354  0.1035 -0.5514
   89CHL1    C7 9003   1.106   2.375   7.544  0.5617  0.1716  0.4992
   89CHL1   H7A 9004   1.161   2.438   7.617  0.4372  3.0475 -1.8013
   89CHL1   H7B 9005   1.000   2.372   7.575 -0.2590  0.4692 -2.1136
   89CHL1    C8 9006   1.167   2.233   7.537 -0.2033  1.3616 -0.5866
   89CHL1    H8 9007   1.276   2.243   7.521 -0.2005 -0.9382 -2.1312
   89CHL1   C14 9008   1.142   2.162   7.674  0.5813  0.1440  0.1534
   89CHL1   H14 9009   1.031   2.161   7.682  0.5580 -2.0584 -0.1724
   89CHL1   C15 9010   1.167   2.238   7.806 -0.0420 -0.0363  0.2017
   89CHL1  H15A 9011   1.277   2.257   7.810  0.4061 -2.6938  1.5191
   89CHL1  H15B 9012   1.100   2.325   7.821  0.8291  0.7471 -0.3582
   89CHL1   C16 9013   1.142   2.127   7.906 -0.0722  0.3795  0.9143
   89CHL1  H16A 9014   1.221   2.129   7.985  0.5073  2.2949  0.3082
   89CHL1  H16B 9015   1.043   2.152   7.950 -0.6223  0.3632 -0.3040
   89CHL1   C17 9016   1.137   1.987   7.831 -0.4183 -0.2120  0.2882
   89CHL1   H17 9017   1.034   1.947   7.829 -0.1697 -0.7771 -2.9679
   89CHL1   C13 9018   1.179   2.014   7.688  0.5582  0.1750 -0.0160
   89CHL1   C18 9019   1.335   2.012   7.680 -0.0040 -0.7607 -0.2930
   89CHL1  H18A 9020   1.363   1.905   7.678 -1.1753 -1.0560 -1.3692
   89CHL1  H18B 9021   1.370   2.068   7.590 -0.1538 -0.7401 -0.3383
   89CHL1  H18C 9022   1.384   2.058   7.769 -2.9304 -0.6362  1.3190
   89CHL1   C12 9023   1.110   1.939   7.569 -0.9690  0.6871 -0.2311
   89CHL1  H12A 9024   1.113   1.829   7.581  3.0181  0.6772 -0.7970
   89CHL1  H12B 9025   1.003   1.962   7.587 -1.5470 -2.3816  0.5118
   89CHL1   C11 9026   1.150   1.999   7.434  0.2202 -0.1322  0.3038
   89CHL1  H11A 9027   1.258   1.992   7.409 -0.0181 -2.0398 -0.2211
   89CHL1  H11B 9028   1.087   1.947   7.360 -0.7277 -0.8183  1.5739
   89CHL1    C9 9029   1.105   2.152   7.422 -0.1862 -0.9995  0.1429
   89CHL1    H9 9030   0.994   2.144   7.426 -0.1890 -0.1796  3.1129
   89CHL1   C10 9031   1.147   2.223   7.288 -0.1582  0.2008 -0.7089
   89CHL1   C19 9032   1.293   2.178   7.244 -0.3050 -0.0722  0.4618
   89CHL1  H19A 9033   1.341   2.256   7.180 -0.2223  0.0643  0.6910
   89CHL1  H19B 9034   1.362   2.156   7.327 -0.5473 -0.3902  0.5780
   89CHL1  H19C 9035   1.273   2.082   7.191 -3.4278  0.8349 -0.1605
   89CHL1    C1 9036   1.051   2.180   7.167  0.2732  0.0738 -0.4290
   89CHL1   H1A 9037   1.044   2.071   7.146  1.2706  0.3149 -2.1236
   89CHL1   H1B 9038   0.949   2.215   7.194 -0.0613 -2.2059  1.3725
   89CHL1    C2 9039   1.082   2.246   7.035  0.0642  0.5396  0.1082
   89CHL1   H2A 9040   1.012   2.219   6.954  0.2174  1.3292 -0.2919
   89CHL1   H2B 9041   1.181   2.209   7.000  1.1706  1.1462  2.4543
   89CHL1   C20 9042   1.203   1.880   7.906  0.6043  1.1767  0.1431
   89CHL1   H20 9043   1.313   1.897   7.901  0.8463 -0.5859 -0.8845
   89CHL1   C21 9044   1.174   1.741   7.837  0.3722 -0.9346 -0.4355
   89CHL1  H21A 9045   1.234   1.735   7.743  1.3130  2.0396 -0.0873
   89CHL1  H21B 9046   1.066   1.721   7.821  0.3559 -2.6535  1.6532
   89CHL1  H21C 9047   1.211   1.656   7.897 -1.6247 -0.0093  2.2063
   89CHL1   C22 9048   1.168   1.875   8.061  0.1713 -0.3061 -0.0263
   89CHL1  H22A 9049   1.184   1.976   8.104  3.5048 -1.0675  0.6452
   89CHL1  H22B 9050   1.057   1.865   8.071  0.0602  1.4753  0.6299
   89CHL1   C23 9051   1.238   1.771   8.145 -0.6000 -0.4924  0.2161
   89CHL1  H23A 9052   1.202   1.671   8.111 -0.0207 -1.1136  1.3755
   89CHL1  H23B 9053   1.347   1.766   8.127 -0.6940 -1.4172 -0.1371
   89CHL1   C24 9054   1.228   1.778   8.293 -0.1727 -0.2301 -0.2396
   89CHL1  H24A 9055   1.286   1.694   8.336 -0.5794 -1.3627 -1.8591
   89CHL1  H24B 9056   1.262   1.874   8.338  0.9955  0.0483 -1.6892
   89CHL1   C25 9057   1.085   1.744   8.348 -0.3142  0.1296  0.2410
   89CHL1   H25 9058   1.002   1.806   8.307  0.1468 -0.3297 -1.3984
   89CHL1   C26 9059   1.039   1.598   8.302 -0.3680 -0.2283  0.3380
   89CHL1  H26A 9060   1.019   1.605   8.193  0.3849 -0.3713  0.1871
   89CHL1  H26B 9061   1.117   1.521   8.321  1.6195  1.8692  0.8173
   89CHL1  H26C 9062   0.936   1.570   8.335 -0.6120 -1.2851 -1.2202
   89CHL1   C27 9063   1.080   1.747   8.501  0.3171 -0.8420 -0.2539
   89CHL1  H27A 9064   0.988   1.691   8.531  0.2389 -1.8663 -2.3536
   89CHL1  H27B 9065   1.172   1.701   8.542  1.0628 -0.1046 -1.0757
   89CHL1  H27C 9066   1.065   1.850   8.542  0.6809 -1.1981  0.7890
   90CHL1    C3 9067   1.245   4.194   7.001  0.4783 -0.4733 -0.2766
   90CHL1    H3 9068   1.155   4.132   6.982 -2.0256  2.6822  0.7946
   90CHL1    O3 9069   1.286   4.230   6.868 -0.5430  0.1995  0.4836
   90CHL1   H3' 9070   1.358   4.291   6.883  1.1989 -1.4269 -1.0199
   90CHL1    C4 9071   1.219   4.321   7.080 -0.2673  0.8165  0.0937
   90CHL1   H4A 9072   1.314   4.379   7.075  0.5663 -0.4056  1.2335
   90CHL1   H4B 9073   1.145   4.379   7.021 -1.8455  0.0546  1.2800
   90CHL1    C5 9074   1.191   4.308   7.229 -0.4669  0.6478 -0.8465
   90CHL1    C6 9075   1.085   4.372   7.277 -0.5025  0.2894  0.2270
   90CHL1    H6 9076   1.033   4.432   7.201 -0.1756  2.1652  1.4496
   90CHL1    C7 9077   1.036   4.368   7.419  0.3079 -0.5092 -1.2665
   90CHL1   H7A 9078   1.027   4.467   7.468 -0.7711 -1.4143  0.4113
   90CHL1   H7B 9079   0.932   4.328   7.420  0.1342 -0.0551  1.5968
   90CHL1    C8 9080   1.134   4.285   7.509 -0.4082 -0.3278 -0.1938
   90CHL1    H8 9081   1.214   4.355   7.543  0.9014 -2.1319  0.4961
   90CHL1   C14 9082   1.067   4.234   7.627  0.1653 -1.1998 -0.0958
   90CHL1   H14 9083   0.991   4.160   7.593  1.1731 -0.8335 -3.2455
   90CHL1   C15 9084   0.989   4.337   7.709  0.1708 -0.4676  0.2249
   90CHL1  H15A 9085   1.062   4.420   7.717  0.3559 -0.6327  0.2685
   90CHL1  H15B 9086   0.898   4.386   7.671 -0.7700  0.1908  3.1759
   90CHL1   C16 9087   0.975   4.287   7.854  1.0612  0.2092 -0.3318
   90CHL1  H16A 9088   1.027   4.353   7.926  1.9133  0.9845 -1.6423
   90CHL1  H16B 9089   0.871   4.274   7.890  0.8560  0.6621 -0.7537
   90CHL1   C17 9090   1.042   4.145   7.850 -0.4574  0.2307 -0.5052
   90CHL1   H17 9091   0.979   4.073   7.792 -2.3198  1.7523 -0.4373
   90CHL1   C13 9092   1.150   4.165   7.740  1.1627  0.1426 -0.1909
   90CHL1   C18 9093   1.268   4.253   7.800  0.4239  0.1896 -0.1970
   90CHL1  H18A 9094   1.316   4.195   7.881  2.3214  0.1476 -1.3196
   90CHL1  H18B 9095   1.344   4.273   7.722  0.4574  2.4838  0.3740
   90CHL1  H18C 9096   1.227   4.350   7.835 -3.7313 -0.8426 -1.8677
   90CHL1   C12 9097   1.201   4.040   7.661 -0.1697  0.1685  0.3739
   90CHL1  H12A 9098   1.267   3.978   7.725 -1.3229 -0.2580  1.1700
   90CHL1  H12B 9099   1.114   3.977   7.636 -1.2240  1.6275  0.2744
   90CHL1   C11 9100   1.282   4.075   7.532 -0.1762 -0.2867  0.4337
   90CHL1  H11A 9101   1.379   4.121   7.563  1.4180 -1.8785 -1.9961
   90CHL1  H11B 9102   1.308   3.978   7.485 -2.7852 -0.9013  0.1885
   90CHL1    C9 9103   1.195   4.166   7.438 -0.0919 -0.7351  0.4765
   90CHL1    H9 9104   1.112   4.100   7.405 -0.0758 -0.0144 -1.0111
   90CHL1   C10 9105   1.269   4.202   7.308  0.1646 -0.8730  0.0649
   90CHL1   C19 9106   1.407   4.250   7.347 -0.4628 -0.1050 -0.8089
   90CHL1  H19A 9107   1.457   4.283   7.254  0.3666 -0.7718 -0.6029
   90CHL1  H19B 9108   1.411   4.341   7.411  0.2302 -1.2085  0.7430
   90CHL1  H19C 9109   1.476   4.166   7.371 -0.9687 -1.0829 -2.6633
   90CHL1    C1 9110   1.285   4.077   7.223 -0.2984 -0.2389  0.1700
   90CHL1   H1A 9111   1.358   4.012   7.275  2.0508  3.0787  1.1655
   90CHL1   H1B 9112   1.184   4.031   7.211 -0.2601 -0.5979  1.1902
   90CHL1    C2 9113   1.333   4.101   7.080 -0.0606  0.6857  0.1663
   90CHL1   H2A 9114   1.334   4.001   7.032  0.2513  0.3918  0.7837
   90CHL1   H2B 9115   1.437   4.137   7.091 -0.1263  1.8718 -2.6107
   90CHL1   C20 9116   1.080   4.083   7.982  0.3801  0.4293  0.5165
   90CHL1   H20 9117   1.174   4.120   8.028 -0.6868  3.2821  0.4842
   90CHL1   C21 9118   1.115   3.932   7.950  0.3367 -0.0870  0.0924
   90CHL1  H21A 9119   1.104   3.875   8.045 -0.9844 -1.1954 -0.7031
   90CHL1  H21B 9120   1.220   3.925   7.913  0.2159  2.9871 -0.9137
   90CHL1  H21C 9121   1.048   3.892   7.871  0.4109  0.2925 -0.1647
   90CHL1   C22 9122   0.968   4.096   8.084  0.7151  0.0361 -0.2554
   90CHL1  H22A 9123   1.009   4.062   8.181 -1.3273 -0.7947  0.3378
   90CHL1  H22B 9124   0.936   4.203   8.092  2.0969  0.6901 -2.9134
   90CHL1   C23 9125   0.844   4.009   8.068 -0.3814  0.3838 -0.0256
   90CHL1  H23A 9126   0.789   4.048   7.980 -3.1473 -1.2950  0.8868
   90CHL1  H23B 9127   0.879   3.906   8.045  0.8770  0.6837  0.5344
   90CHL1   C24 9128   0.751   4.008   8.193 -0.3463  0.2315  0.5605
   90CHL1  H24A 9129   0.810   3.976   8.281  0.8638  1.3866  0.1913
   90CHL1  H24B 9130   0.731   4.117   8.202  2.3955  0.8108  0.0720
   90CHL1   C25 9131   0.629   3.912   8.180 -0.5234  0.0809  0.3556
   90CHL1   H25 9132   0.646   3.807   8.213  0.6837 -0.0308 -0.5898
   90CHL1   C26 9133   0.519   3.953   8.276 -0.4895  0.2770  0.1779
   90CHL1  H26A 9134   0.426   3.902   8.245 -0.7288  0.1232  1.1367
   90CHL1  H26B 9135   0.543   3.949   8.384  0.1684  1.9622  0.1182
   90CHL1  H26C 9136   0.493   4.061   8.266 -1.2663  0.0207 -0.6305
   90CHL1   C27 9137   0.571   3.904   8.041  0.7360  0.2788 -0.1067
   90CHL1  H27A 9138   0.480   3.841   8.041  2.0774 -1.7192 -0.5247
   90CHL1  H27B 9139   0.529   4.004   8.020 -2.9127 -1.0042  0.7354
   90CHL1  H27C 9140   0.644   3.874   7.962 -0.6393 -0.5553 -1.0824
   91CHL1    C3 9141   2.700   5.566   7.233  0.4028 -0.2983 -0.2285
   91CHL1    H3 9142   2.774   5.495   7.276  1.1866  0.2403 -0.6733
   91CHL1    O3 9143   2.748   5.578   7.096  0.2119 -0.0818  0.5904
   91CHL1   H3' 9144   2.669   5.596   7.044 -0.5646  1.1137  2.1258
   91CHL1    C4 9145   2.562   5.481   7.242  0.4825 -0.0729  0.8204
   91CHL1   H4A 9146   2.485   5.544   7.193 -1.1262 -1.9629  0.8493
   91CHL1   H4B 9147   2.573   5.392   7.176 -2.9668  1.8288 -2.5688
   91CHL1    C5 9148   2.517   5.448   7.381  0.3433  0.2887 -0.4720
   91CHL1    C6 9149   2.495   5.320   7.423 -0.8454  0.5190  0.2186
   91CHL1    H6 9150   2.497   5.232   7.357  0.9573  1.4619 -1.0285
   91CHL1    C7 9151   2.454   5.294   7.564 -0.1632  0.3225  0.5955
   91CHL1   H7A 9152   2.378   5.213   7.564  0.0981  0.0698  0.1617
   91CHL1   H7B 9153   2.544   5.249   7.613  0.2769 -0.3202 -0.7784
   91CHL1    C8 9154   2.409   5.417   7.645 -0.3843  0.2553 -0.8660
   91CHL1    H8 9155   2.304   5.441   7.618 -0.0846  1.4258 -1.0371
   91CHL1   C14 9156   2.423   5.381   7.795 -0.0165 -0.2920  0.4268
   91CHL1   H14 9157   2.532   5.359   7.802  0.0652  0.1101  0.4620
   91CHL1   C15 9158   2.355   5.254   7.854 -0.2885 -0.2485 -0.4591
   91CHL1  H15A 9159   2.258   5.254   7.800  0.6141  1.9764 -2.1567
   91CHL1  H15B 9160   2.416   5.167   7.821 -1.0989 -0.3546 -1.7232
   91CHL1   C16 9161   2.365   5.275   8.006  0.0972 -0.0421  0.1779
   91CHL1  H16A 9162   2.269   5.248   8.054  0.9677 -0.1444  1.8920
   91CHL1  H16B 9163   2.444   5.223   8.064 -0.3115  2.0470  2.7165
   91CHL1   C17 9164   2.403   5.428   8.032  0.0208  0.2900 -0.1503
   91CHL1   H17 9165   2.511   5.423   8.060 -0.3659  2.6257  1.9258
   91CHL1   C13 9166   2.390   5.497   7.893  0.4602 -1.1736 -0.2973
   91CHL1   C18 9167   2.243   5.544   7.872  0.9378  0.6259  0.4094
   91CHL1  H18A 9168   2.174   5.461   7.899 -0.2484  1.4816  0.0439
   91CHL1  H18B 9169   2.224   5.637   7.929 -0.3932  0.0155  0.9992
   91CHL1  H18C 9170   2.233   5.567   7.764 -1.2106  0.7944  0.6122
   91CHL1   C12 9171   2.482   5.613   7.866 -0.4711 -0.7878 -0.0593
   91CHL1  H12A 9172   2.465   5.699   7.934  0.9720 -0.6023  0.0952
   91CHL1  H12B 9173   2.582   5.568   7.888 -0.3590 -0.4930  0.0255
   91CHL1   C11 9174   2.489   5.654   7.713 -0.1153  0.1354 -0.1853
   91CHL1  H11A 9175   2.395   5.709   7.689 -0.5106 -0.5418 -0.2211
   91CHL1  H11B 9176   2.577   5.720   7.702 -0.5749  0.8303  0.2974
   91CHL1    C9 9177   2.507   5.532   7.618  1.1524  0.5691  1.2033
   91CHL1    H9 9178   2.606   5.485   7.638  0.3671 -1.8099 -0.2483
   91CHL1   C10 9179   2.505   5.574   7.472  0.0620  0.2188  0.1818
   91CHL1   C19 9180   2.370   5.652   7.436 -0.5468  0.1926 -0.0442
   91CHL1  H19A 9181   2.370   5.752   7.484  0.4008 -0.6998  1.8529
   91CHL1  H19B 9182   2.363   5.671   7.327 -1.3523  0.4827  0.0583
   91CHL1  H19C 9183   2.288   5.595   7.484 -2.2165  0.7473 -2.1295
   91CHL1    C1 9184   2.628   5.663   7.454  1.0296 -0.0095 -0.5623
   91CHL1   H1A 9185   2.598   5.758   7.504 -1.2710 -0.6143 -0.7465
   91CHL1   H1B 9186   2.723   5.625   7.498  0.8034 -1.6573 -1.4724
   91CHL1    C2 9187   2.670   5.696   7.309 -0.0725  0.4453 -0.0459
   91CHL1   H2A 9188   2.768   5.749   7.312  0.2454 -0.1401 -0.0451
   91CHL1   H2B 9189   2.598   5.761   7.255  1.1713  0.1215 -2.1694
   91CHL1   C20 9190   2.319   5.478   8.145 -0.3176 -0.5433  0.7177
   91CHL1   H20 9191   2.211   5.468   8.125 -0.5876  0.6879  1.5298
   91CHL1   C21 9192   2.344   5.625   8.171 -0.1627  0.0327  0.4238
   91CHL1  H21A 9193   2.271   5.649   8.252 -0.1930  3.4988 -0.5200
   91CHL1  H21B 9194   2.322   5.695   8.087  0.0259  1.6855  1.7245
   91CHL1  H21C 9195   2.446   5.636   8.212  0.6984 -1.4271 -1.2839
   91CHL1   C22 9196   2.349   5.398   8.280  0.6330 -0.0798  1.3306
   91CHL1  H22A 9197   2.410   5.306   8.266 -0.7494 -1.0408  1.5209
   91CHL1  H22B 9198   2.421   5.453   8.345  1.2705 -0.2352  0.7638
   91CHL1   C23 9199   2.217   5.379   8.363  0.4790  0.4818 -0.1749
   91CHL1  H23A 9200   2.180   5.474   8.405  2.0867  0.7160  0.7587
   91CHL1  H23B 9201   2.139   5.330   8.300  0.7237 -0.3281  0.1440
   91CHL1   C24 9202   2.234   5.287   8.481 -0.6628 -0.5375  0.1366
   91CHL1  H24A 9203   2.278   5.189   8.452  0.0549 -0.3526  0.6083
   91CHL1  H24B 9204   2.308   5.343   8.542 -0.6131  0.5325 -0.9048
   91CHL1   C25 9205   2.108   5.260   8.568  0.2193 -0.6755  0.6762
   91CHL1   H25 9206   2.025   5.227   8.503 -0.0338 -0.8658  1.0993
   91CHL1   C26 9207   2.130   5.151   8.675 -0.0185  0.4986 -0.1514
   91CHL1  H26A 9208   2.157   5.052   8.632  1.8322  0.0478  2.0071
   91CHL1  H26B 9209   2.206   5.183   8.749 -1.2325  0.7428  1.0169
   91CHL1  H26C 9210   2.034   5.135   8.728 -1.0008  1.7692 -1.4893
   91CHL1   C27 9211   2.066   5.389   8.647 -0.4152  0.0707  0.2805
   91CHL1  H27A 9212   1.972   5.371   8.704  0.8396 -2.7707  1.5740
   91CHL1  H27B 9213   2.152   5.421   8.710 -1.2185  1.5335  0.6628
   91CHL1  H27C 9214   2.052   5.470   8.573 -0.6870  1.6841  2.0763
   92CHL1    C3 9215   5.454   0.964   6.591 -0.2295  0.0516 -0.3787
   92CHL1    H3 9216   5.534   0.887   6.592 -2.1554 -2.0123  0.6375
   92CHL1    O3 9217   5.437   1.037   6.470  0.2230  0.2401  0.1193
   92CHL1   H3' 9218   5.404   1.123   6.498 -1.9597 -0.8269  0.9983
   92CHL1    C4 9219   5.326   0.883   6.618 -0.9931  0.8386  0.2929
   92CHL1   H4A 9220   5.234   0.945   6.616 -1.4147  0.3021  1.7268
   92CHL1   H4B 9221   5.316   0.803   6.543 -0.9884  0.4351  0.7177
   92CHL1    C5 9222   5.334   0.823   6.755  0.3368  0.4937  0.2566
   92CHL1    C6 9223   5.299   0.697   6.785  0.2149  0.4168  0.7685
   92CHL1    H6 9224   5.287   0.639   6.693  0.4539  1.9380 -0.2314
   92CHL1    C7 9225   5.283   0.640   6.923 -0.0824  0.7897 -0.5839
   92CHL1   H7A 9226   5.201   0.565   6.930 -0.7265  1.5672  0.3300
   92CHL1   H7B 9227   5.379   0.588   6.947 -1.1158 -1.1319 -0.4874
   92CHL1    C8 9228   5.267   0.761   7.022  0.1878 -0.1176  0.2640
   92CHL1    H8 9229   5.168   0.806   7.001  1.2124  2.0366 -0.1225
   92CHL1   C14 9230   5.266   0.698   7.167 -0.1916  0.3608  0.5626
   92CHL1   H14 9231   5.364   0.646   7.171 -0.4971 -0.2494  0.0954
   92CHL1   C15 9232   5.150   0.603   7.201  0.1168 -0.2398 -0.3700
   92CHL1  H15A 9233   5.051   0.637   7.164 -0.1081 -1.2661 -0.7439
   92CHL1  H15B 9234   5.172   0.501   7.163  0.0740  0.1906 -1.5616
   92CHL1   C16 9235   5.148   0.607   7.355 -0.3506 -0.1470 -0.6390
   92CHL1  H16A 9236   5.047   0.641   7.386  0.7614  2.5196  0.1916
   92CHL1  H16B 9237   5.179   0.512   7.404 -0.8845  0.6390  1.2505
   92CHL1   C17 9238   5.251   0.711   7.398  0.0707 -0.1396 -0.2212
   92CHL1   H17 9239   5.342   0.648   7.409  1.1774  1.3624 -0.6043
   92CHL1   C13 9240   5.264   0.808   7.279  0.3573 -0.2343 -0.0822
   92CHL1   C18 9241   5.144   0.898   7.263  0.2233 -0.3909 -0.6249
   92CHL1  H18A 9242   5.139   0.943   7.162 -2.0998  1.4411  0.2618
   92CHL1  H18B 9243   5.048   0.841   7.269 -1.3685  2.3681  1.4371
   92CHL1  H18C 9244   5.138   0.973   7.345 -0.3074 -2.0136  0.8724
   92CHL1   C12 9245   5.395   0.880   7.255 -0.2095 -0.2378 -0.1531
   92CHL1  H12A 9246   5.409   0.963   7.327  1.8372  1.4053 -2.3629
   92CHL1  H12B 9247   5.475   0.804   7.266 -0.8107 -0.6695  1.4333
   92CHL1   C11 9248   5.406   0.950   7.114  0.1367 -0.4954  0.4761
   92CHL1  H11A 9249   5.345   1.043   7.125  0.6340 -0.2133  0.9144
   92CHL1  H11B 9250   5.511   0.986   7.106 -0.0873  0.0374 -0.0655
   92CHL1    C9 9251   5.379   0.853   6.993 -0.3501  0.0693 -1.2118
   92CHL1    H9 9252   5.471   0.792   6.991  0.0243  0.6557 -2.5291
   92CHL1   C10 9253   5.365   0.923   6.861  0.4847  0.2937 -0.0860
   92CHL1   C19 9254   5.254   1.033   6.879 -0.7506 -0.0051  0.3107
   92CHL1  H19A 9255   5.166   0.988   6.930  0.6112 -1.1597  1.6945
   92CHL1  H19B 9256   5.291   1.119   6.939  0.8779  0.0226 -0.6918
   92CHL1  H19C 9257   5.222   1.078   6.783 -0.7901 -0.2087  0.2273
   92CHL1    C1 9258   5.495   0.999   6.832 -0.2984  0.3022 -0.2791
   92CHL1   H1A 9259   5.495   1.082   6.906 -3.6561 -2.3160  2.7886
   92CHL1   H1B 9260   5.586   0.937   6.850 -0.2807  0.9433  1.9985
   92CHL1    C2 9261   5.500   1.065   6.690  0.2524  0.2738 -0.2795
   92CHL1   H2A 9262   5.598   1.103   6.656  0.0852  1.6461  0.7280
   92CHL1   H2B 9263   5.428   1.148   6.707 -0.2735 -0.1131 -0.6045
   92CHL1   C20 9264   5.216   0.770   7.541 -0.6505 -0.9275 -0.7946
   92CHL1   H20 9265   5.120   0.826   7.542 -0.2224 -0.1712  1.6433
   92CHL1   C21 9266   5.324   0.880   7.579  0.7259 -0.3505 -0.0872
   92CHL1  H21A 9267   5.318   0.916   7.684 -2.6548  0.4604 -0.5001
   92CHL1  H21B 9268   5.310   0.975   7.522  0.1943 -0.9817 -1.0113
   92CHL1  H21C 9269   5.424   0.843   7.549  1.9312  0.8211  2.2689
   92CHL1   C22 9270   5.205   0.662   7.653  0.4985  0.7242  0.3461
   92CHL1  H22A 9271   5.112   0.604   7.636  0.7635  0.3565  0.1434
   92CHL1  H22B 9272   5.294   0.597   7.637 -0.6515 -0.8037 -0.0479
   92CHL1   C23 9273   5.209   0.716   7.794  0.8092  0.6992 -0.1392
   92CHL1  H23A 9274   5.310   0.761   7.804  1.5222 -0.2405 -2.8681
   92CHL1  H23B 9275   5.129   0.790   7.815  0.7710  1.1588 -1.8858
   92CHL1   C24 9276   5.204   0.614   7.905  0.2622  0.2690 -0.0633
   92CHL1  H24A 9277   5.116   0.549   7.919 -1.6266  2.6179 -0.6598
   92CHL1  H24B 9278   5.300   0.559   7.917  0.5171  0.7441  0.1109
   92CHL1   C25 9279   5.210   0.695   8.035 -0.3396  0.1493  1.1633
   92CHL1   H25 9280   5.292   0.770   8.024 -0.0738 -0.4054 -0.9322
   92CHL1   C26 9281   5.083   0.776   8.067  0.3987 -0.3022 -0.1615
   92CHL1  H26A 9282   5.001   0.711   8.103  0.5598  1.1608  3.1267
   92CHL1  H26B 9283   5.112   0.844   8.151  0.3753 -1.1004  0.5019
   92CHL1  H26C 9284   5.042   0.848   7.993 -0.5727 -0.3066  0.3606
   92CHL1   C27 9285   5.257   0.598   8.147  0.2258 -0.5120  0.4023
   92CHL1  H27A 9286   5.241   0.656   8.240  0.6231 -1.6147  1.1561
   92CHL1  H27B 9287   5.192   0.508   8.149 -3.4460  1.9498 -1.0027
   92CHL1  H27C 9288   5.362   0.564   8.132  0.4547  0.0371  0.7345
   93CHL1    C3 9289   4.259   5.147   6.725 -0.2088 -0.1792  0.5528
   93CHL1    H3 9290   4.250   5.036   6.721  0.0717 -0.1511 -1.7702
   93CHL1    O3 9291   4.267   5.202   6.592  0.3947 -0.0854 -0.1812
   93CHL1   H3' 9292   4.175   5.209   6.566  0.7035  2.1619 -0.6989
   93CHL1    C4 9293   4.130   5.194   6.789 -0.1172 -0.1120  0.2424
   93CHL1   H4A 9294   4.127   5.304   6.772  1.2388 -0.0622  0.2511
   93CHL1   H4B 9295   4.058   5.149   6.718  0.7700  2.3317 -2.3166
   93CHL1    C5 9296   4.118   5.150   6.935 -0.3036  0.2280 -0.4325
   93CHL1    C6 9297   4.023   5.066   6.978  0.4580 -0.0087 -0.5479
   93CHL1    H6 9298   3.946   5.033   6.905  0.0659  0.0703 -0.1718
   93CHL1    C7 9299   4.004   5.016   7.117  0.1537  0.3601  0.3536
   93CHL1   H7A 9300   3.896   5.019   7.144 -0.2030  1.0924 -1.1260
   93CHL1   H7B 9301   4.030   4.908   7.124 -0.2952 -0.0710 -3.4003
   93CHL1    C8 9302   4.087   5.095   7.213  0.2715 -0.0934 -0.7264
   93CHL1    H8 9303   4.049   5.199   7.211 -2.1128 -0.9195 -1.2333
   93CHL1   C14 9304   4.080   5.028   7.356 -0.5666  0.4833 -0.5357
   93CHL1   H14 9305   4.127   4.929   7.336 -0.0512  0.7614 -0.6995
   93CHL1   C15 9306   3.942   4.991   7.415 -0.7348 -0.1888  0.0768
   93CHL1  H15A 9307   3.862   5.065   7.393  0.3941  0.9361 -0.3295
   93CHL1  H15B 9308   3.906   4.890   7.389 -0.6497  0.6851 -3.7866
   93CHL1   C16 9309   3.971   4.991   7.562 -0.4333  0.5223  0.5281
   93CHL1  H16A 9310   3.897   5.058   7.612  0.0086  1.3024  0.1352
   93CHL1  H16B 9311   3.929   4.899   7.609 -0.0747  1.7106  3.2943
   93CHL1   C17 9312   4.120   5.019   7.588  0.2270 -1.4311  0.1001
   93CHL1   H17 9313   4.168   4.919   7.576  2.1353 -1.2881  5.2281
   93CHL1   C13 9314   4.163   5.096   7.457 -0.2357  0.2300  0.1802
   93CHL1   C18 9315   4.109   5.239   7.461 -0.4890 -0.2757  0.3716
   93CHL1  H18A 9316   4.170   5.308   7.523 -2.3080  2.4133 -0.7224
   93CHL1  H18B 9317   4.107   5.291   7.362 -0.0546 -2.4763 -0.8137
   93CHL1  H18C 9318   4.015   5.242   7.518 -2.1508 -0.3371 -2.2636
   93CHL1   C12 9319   4.310   5.081   7.417 -0.1063  0.1323 -0.0068
   93CHL1  H12A 9320   4.384   5.136   7.479 -0.4082  0.1753  0.3186
   93CHL1  H12B 9321   4.324   4.971   7.423  1.2924  0.3062 -0.0636
   93CHL1   C11 9322   4.329   5.139   7.269  0.3180  0.3902  0.2458
   93CHL1  H11A 9323   4.316   5.247   7.291  0.3778  0.4812 -0.1445
   93CHL1  H11B 9324   4.435   5.114   7.247  0.6166  0.9353  1.0524
   93CHL1    C9 9325   4.231   5.092   7.164 -1.3002 -0.2302  0.6979
   93CHL1    H9 9326   4.260   4.989   7.136 -3.4821 -0.0249 -2.6209
   93CHL1   C10 9327   4.242   5.179   7.031 -0.0699  0.3741 -0.2853
   93CHL1   C19 9328   4.237   5.332   7.051 -0.8866  0.6569 -0.3436
   93CHL1  H19A 9329   4.145   5.348   7.112 -1.1208  0.7032 -0.7052
   93CHL1  H19B 9330   4.324   5.378   7.101 -1.6677  0.0317  1.6361
   93CHL1  H19C 9331   4.219   5.390   6.958 -0.6200  2.7082  0.8628
   93CHL1    C1 9332   4.375   5.141   6.952 -0.1335  0.2830 -0.5486
   93CHL1   H1A 9333   4.466   5.177   7.005 -0.7574  0.1035  0.6612
   93CHL1   H1B 9334   4.375   5.030   6.959 -0.9311  0.3372  0.4781
   93CHL1    C2 9335   4.381   5.193   6.807 -0.0887  0.0216 -0.2492
   93CHL1   H2A 9336   4.478   5.168   6.760  0.2423 -0.6408  0.7837
   93CHL1   H2B 9337   4.370   5.304   6.800  3.9421  0.4101 -1.8012
   93CHL1   C20 9338   4.152   5.074   7.730 -0.0563 -0.1312 -0.6785
   93CHL1   H20 9339   4.110   5.175   7.749  1.3640  0.4547 -0.6139
   93CHL1   C21 9340   4.307   5.085   7.743 -0.4673 -0.1682  0.1380
   93CHL1  H21A 9341   4.327   5.091   7.852 -1.1185  0.8918  0.2140
   93CHL1  H21B 9342   4.335   5.180   7.691  1.4464 -1.1253 -0.6518
   93CHL1  H21C 9343   4.368   5.006   7.695  0.4442  0.0462  0.9070
   93CHL1   C22 9344   4.089   4.976   7.841  0.3308  0.4693  0.2295
   93CHL1  H22A 9345   3.978   4.982   7.829  0.3361 -0.7985 -0.4953
   93CHL1  H22B 9346   4.128   4.873   7.829  2.6806  1.5689 -2.1881
   93CHL1   C23 9347   4.135   5.015   7.985 -0.1940  0.6532 -0.5078
   93CHL1  H23A 9348   4.240   4.995   8.014 -0.2572  0.3926 -0.4560
   93CHL1  H23B 9349   4.141   5.126   7.996 -0.1895  0.5850  0.2212
   93CHL1   C24 9350   4.037   4.945   8.082 -0.3203  0.6949  0.1282
   93CHL1  H24A 9351   3.941   5.000   8.075 -1.4182 -1.0265  1.2590
   93CHL1  H24B 9352   4.030   4.836   8.062 -2.3523  1.1711 -2.0463
   93CHL1   C25 9353   4.090   4.968   8.235 -0.0486 -0.4958 -0.1354
   93CHL1   H25 9354   4.190   4.919   8.238  0.0433 -0.2571  0.8959
   93CHL1   C26 9355   4.093   5.116   8.269 -0.0765  0.3484 -0.3206
   93CHL1  H26A 9356   4.111   5.117   8.379  1.4785  1.2639 -0.5538
   93CHL1  H26B 9357   4.178   5.158   8.211 -0.1667  0.8847 -0.0659
   93CHL1  H26C 9358   4.000   5.169   8.239 -1.3355 -0.3851  2.1745
   93CHL1   C27 9359   3.992   4.895   8.334 -0.0469 -0.4905  0.6739
   93CHL1  H27A 9360   3.902   4.958   8.348  0.2028  0.0847 -0.2722
   93CHL1  H27B 9361   3.972   4.791   8.299  1.2092 -0.3443 -0.5634
   93CHL1  H27C 9362   4.025   4.890   8.440 -3.5256  1.5730  1.9055
   94CHL1    C3 9363   6.224   1.411   6.786 -0.2719  0.1344 -0.1747
   94CHL1    H3 9364   6.135   1.344   6.782  0.7880 -1.2168 -2.3080
   94CHL1    O3 9365   6.269   1.442   6.659  0.8991  0.2631  0.7523
   94CHL1   H3' 9366   6.356   1.482   6.667  0.2122  1.5599  1.8655
   94CHL1    C4 9367   6.182   1.543   6.859 -0.0338 -0.8326 -0.3659
   94CHL1   H4A 9368   6.272   1.607   6.861 -1.1070  0.6832 -0.0452
   94CHL1   H4B 9369   6.105   1.583   6.789 -1.8449 -1.2379  1.3579
   94CHL1    C5 9370   6.144   1.513   7.002  0.0972 -0.4217 -0.2493
   94CHL1    C6 9371   6.024   1.546   7.036  1.0694  0.1354 -0.2310
   94CHL1    H6 9372   5.958   1.596   6.965 -0.6963  1.8848  2.5304
   94CHL1    C7 9373   5.974   1.529   7.181  0.3044  0.0992  0.1901
   94CHL1   H7A 9374   5.934   1.622   7.226 -2.1850 -0.6851 -0.3186
   94CHL1   H7B 9375   5.895   1.452   7.172 -0.8632  1.3148 -0.1205
   94CHL1    C8 9376   6.083   1.479   7.291  0.2662  0.7384  1.6040
   94CHL1    H8 9377   6.151   1.563   7.320  0.3807  1.0238  0.5329
   94CHL1   C14 9378   6.016   1.411   7.411 -0.1586 -0.0539  0.0709
   94CHL1   H14 9379   5.951   1.327   7.378  1.7548 -0.3951 -2.9630
   94CHL1   C15 9380   5.921   1.502   7.492 -0.2261 -0.0757  0.2677
   94CHL1  H15A 9381   5.972   1.601   7.493 -1.5467  0.6200 -1.1607
   94CHL1  H15B 9382   5.822   1.513   7.444 -0.6854 -0.0060  1.2090
   94CHL1   C16 9383   5.913   1.426   7.626 -0.5885  0.3561 -0.3741
   94CHL1  H16A 9384   5.922   1.500   7.709  0.4540 -1.5452  1.2564
   94CHL1  H16B 9385   5.808   1.393   7.641 -0.3792  0.7930  2.3266
   94CHL1   C17 9386   6.017   1.311   7.624 -0.2137  0.0287  1.1164
   94CHL1   H17 9387   5.956   1.223   7.593 -0.8152  0.7319  0.2680
   94CHL1   C13 9388   6.117   1.349   7.511  0.8091  0.1295 -0.0513
   94CHL1   C18 9389   6.215   1.453   7.580  0.2243  0.4189 -0.7612
   94CHL1  H18A 9390   6.273   1.489   7.492  0.0964 -0.7835 -1.3556
   94CHL1  H18B 9391   6.157   1.530   7.635 -1.6260 -0.4359 -1.4575
   94CHL1  H18C 9392   6.294   1.407   7.642  0.5918 -0.5702 -1.9337
   94CHL1   C12 9393   6.202   1.251   7.437  0.2425  0.4869  0.3027
   94CHL1  H12A 9394   6.275   1.217   7.515  0.2222  2.4265  1.1848
   94CHL1  H12B 9395   6.157   1.154   7.408 -1.3058  1.2265  0.2117
   94CHL1   C11 9396   6.272   1.303   7.311  0.0910 -0.3943 -0.3332
   94CHL1  H11A 9397   6.360   1.361   7.345 -1.0220  1.8429 -1.1624
   94CHL1  H11B 9398   6.314   1.215   7.258  0.2276  0.2331 -1.2647
   94CHL1    C9 9399   6.171   1.374   7.216  0.0552  0.2649  0.4011
   94CHL1    H9 9400   6.102   1.292   7.185 -0.8718  1.2182 -0.0515
   94CHL1   C10 9401   6.245   1.437   7.093  0.6583 -0.3321  0.1187
   94CHL1   C19 9402   6.370   1.528   7.129  0.6580 -0.5009  0.4173
   94CHL1  H19A 9403   6.422   1.572   7.041  0.6382  1.1376  1.2068
   94CHL1  H19B 9404   6.329   1.617   7.182 -0.4427 -1.4567  1.1958
   94CHL1  H19C 9405   6.451   1.484   7.191  2.7705  2.5916 -0.0160
   94CHL1    C1 9406   6.308   1.320   7.006  0.9820 -0.1473  0.0084
   94CHL1   H1A 9407   6.406   1.289   7.049  0.0679 -2.7074  0.3538
   94CHL1   H1B 9408   6.246   1.229   7.018  1.1643 -0.1943  0.5977
   94CHL1    C2 9409   6.345   1.348   6.859  0.2509 -0.1151 -0.3076
   94CHL1   H2A 9410   6.392   1.255   6.819 -2.2817 -1.0624 -1.1438
   94CHL1   H2B 9411   6.426   1.425   6.860 -0.9090  1.1212  1.1577
   94CHL1   C20 9412   6.071   1.280   7.771  0.1691 -0.2044  0.5306
   94CHL1   H20 9413   6.122   1.371   7.808 -0.1570  0.6238 -1.0100
   94CHL1   C21 9414   6.167   1.160   7.758 -0.6637  0.7100 -0.1398
   94CHL1  H21A 9415   6.183   1.111   7.856  2.1780 -2.2454 -1.9816
   94CHL1  H21B 9416   6.265   1.197   7.720 -0.6861  0.6420 -0.2648
   94CHL1  H21C 9417   6.137   1.076   7.692  2.1467 -0.8838  0.5669
   94CHL1   C22 9418   5.967   1.254   7.880  1.2594  0.1114  0.1095
   94CHL1  H22A 9419   5.882   1.324   7.867 -0.0065 -1.5146 -0.5129
   94CHL1  H22B 9420   5.917   1.157   7.860  0.2365  0.2312  1.9667
   94CHL1   C23 9421   6.030   1.252   8.024  0.4877 -0.2286  0.6837
   94CHL1  H23A 9422   6.111   1.177   8.034 -0.4465 -1.2297  0.8119
   94CHL1  H23B 9423   6.077   1.351   8.040 -0.5123  0.3881 -0.1193
   94CHL1   C24 9424   5.923   1.217   8.134  0.4558  0.5500  0.0611
   94CHL1  H24A 9425   5.840   1.291   8.122 -0.7679 -0.8809 -0.4297
   94CHL1  H24B 9426   5.883   1.117   8.107 -0.4049  0.7951  0.4321
   94CHL1   C25 9427   5.985   1.222   8.274 -0.0881 -0.2574  0.1558
   94CHL1   H25 9428   6.076   1.158   8.278  1.2860  1.6937  0.9361
   94CHL1   C26 9429   6.029   1.359   8.323 -0.1004 -1.1921 -0.3395
   94CHL1  H26A 9430   5.939   1.423   8.325  1.1557  0.6063  1.6756
   94CHL1  H26B 9431   6.080   1.348   8.421 -0.0336 -2.8351 -0.5446
   94CHL1  H26C 9432   6.105   1.406   8.256  2.1281 -0.6493  2.4406
   94CHL1   C27 9433   5.889   1.175   8.384  0.3666 -0.0856 -0.0147
   94CHL1  H27A 9434   5.941   1.174   8.483 -1.4760  1.8304  0.9832
   94CHL1  H27B 9435   5.804   1.244   8.400 -0.1146 -1.0935  1.9649
   94CHL1  H27C 9436   5.845   1.076   8.360  1.3910 -0.4094 -0.6178
   95CHL1    C3 9437   5.848   0.658   6.767 -0.1273  0.1172  0.2520
   95CHL1    H3 9438   5.876   0.764   6.788 -0.2056  0.2147 -0.1269
   95CHL1    O3 9439   5.858   0.639   6.627 -0.1506 -0.4861 -0.7494
   95CHL1   H3' 9440   5.855   0.545   6.611 -0.9377 -0.7924  1.1476
   95CHL1    C4 9441   5.960   0.580   6.838  0.2115 -0.6018 -1.2069
   95CHL1   H4A 9442   5.941   0.475   6.806 -2.9336 -0.9751  1.5500
   95CHL1   H4B 9443   6.064   0.606   6.808 -0.0167  0.8764 -0.7334
   95CHL1    C5 9444   5.937   0.566   6.986 -0.1476 -0.1524 -0.6040
   95CHL1    C6 9445   6.027   0.614   7.075  0.2212  0.2733 -0.5444
   95CHL1    H6 9446   6.127   0.640   7.037  0.9724 -0.5626  0.7843
   95CHL1    C7 9447   6.011   0.603   7.222 -0.7443 -0.2912 -0.7654
   95CHL1   H7A 9448   6.104   0.557   7.262 -0.7139 -0.7988 -1.4070
   95CHL1   H7B 9449   6.009   0.704   7.269  1.2478  0.0011 -1.2648
   95CHL1    C8 9450   5.894   0.508   7.271 -0.0115 -0.0223  0.1716
   95CHL1    H8 9451   5.934   0.405   7.262  1.4349  0.6639 -1.7002
   95CHL1   C14 9452   5.855   0.525   7.413  0.1075  0.1985  0.1171
   95CHL1   H14 9453   5.822   0.629   7.435 -1.2708  0.0881 -1.3633
   95CHL1   C15 9454   5.982   0.504   7.507  0.0717 -0.0224 -0.3636
   95CHL1  H15A 9455   6.049   0.424   7.467  0.6739  0.4592 -0.3172
   95CHL1  H15B 9456   6.046   0.592   7.528 -1.4214  0.6125  1.7043
   95CHL1   C16 9457   5.920   0.457   7.637  0.2621  0.1134  0.6112
   95CHL1  H16A 9458   5.955   0.354   7.660 -0.4945 -0.1597  0.5544
   95CHL1  H16B 9459   5.951   0.515   7.726 -2.0252  0.9928  0.8716
   95CHL1   C17 9460   5.769   0.469   7.617 -0.3871 -0.1098  0.4207
   95CHL1   H17 9461   5.752   0.578   7.632  0.5264  0.1388 -0.3089
   95CHL1   C13 9462   5.753   0.428   7.468  0.6652  0.1224  0.0213
   95CHL1   C18 9463   5.782   0.283   7.455 -0.4506  0.3656  0.2410
   95CHL1  H18A 9464   5.688   0.231   7.482  1.3077 -1.8025  2.4147
   95CHL1  H18B 9465   5.815   0.262   7.351 -0.9879  0.4760  0.0506
   95CHL1  H18C 9466   5.860   0.234   7.517  1.6147  0.2786 -2.3359
   95CHL1   C12 9467   5.627   0.463   7.391 -0.3240 -0.4801 -1.0143
   95CHL1  H12A 9468   5.551   0.389   7.421 -2.2833  1.5755 -0.7255
   95CHL1  H12B 9469   5.596   0.566   7.420  0.7808 -0.8306  1.5465
   95CHL1   C11 9470   5.640   0.469   7.236 -1.0524 -0.7384 -0.6031
   95CHL1  H11A 9471   5.643   0.362   7.208  0.2694 -1.0920  0.8261
   95CHL1  H11B 9472   5.547   0.520   7.203 -0.1552  1.7136  0.5056
   95CHL1    C9 9473   5.768   0.541   7.185  0.2686  0.0276 -0.2670
   95CHL1    H9 9474   5.745   0.648   7.199  1.0268  0.0451  0.9588
   95CHL1   C10 9475   5.797   0.521   7.033  0.5742 -0.3628 -0.1486
   95CHL1   C19 9476   5.787   0.368   7.001 -0.0129 -0.0851 -0.1179
   95CHL1  H19A 9477   5.817   0.338   6.899 -0.7575  1.0335 -0.6877
   95CHL1  H19B 9478   5.850   0.309   7.071  0.1022  1.2012  0.8867
   95CHL1  H19C 9479   5.688   0.321   7.015  0.8464 -2.8127 -2.7043
   95CHL1    C1 9480   5.685   0.604   6.958  0.2476 -0.5370 -0.3597
   95CHL1   H1A 9481   5.588   0.567   6.997  0.1134 -0.4984 -0.6556
   95CHL1   H1B 9482   5.679   0.706   7.000  0.9846 -1.6037  2.4282
   95CHL1    C2 9483   5.701   0.617   6.809  0.0348  0.5407  0.6526
   95CHL1   H2A 9484   5.638   0.697   6.763  0.0557  1.5763  2.3740
   95CHL1   H2B 9485   5.677   0.519   6.764  0.5606  0.8244 -0.2739
   95CHL1   C20 9486   5.666   0.393   7.709 -0.2928  0.4574 -0.6581
   95CHL1   H20 9487   5.625   0.299   7.665 -1.0129  0.6327 -0.3785
   95CHL1   C21 9488   5.554   0.494   7.743 -0.0437 -0.1627  0.1993
   95CHL1  H21A 9489   5.471   0.433   7.784 -0.3574  0.0613 -0.0974
   95CHL1  H21B 9490   5.527   0.546   7.648 -1.0609 -0.6189  0.2348
   95CHL1  H21C 9491   5.587   0.578   7.808  1.5877 -0.0700 -0.7297
   95CHL1   C22 9492   5.734   0.343   7.847 -0.2273  0.0665 -0.1373
   95CHL1  H22A 9493   5.815   0.277   7.809  1.4528  3.1330 -2.0567
   95CHL1  H22B 9494   5.794   0.424   7.893 -1.0112  1.3810 -1.3933
   95CHL1   C23 9495   5.637   0.270   7.949  0.2536  0.0874  0.2387
   95CHL1  H23A 9496   5.552   0.337   7.974 -0.1513 -0.0504 -0.7310
   95CHL1  H23B 9497   5.591   0.182   7.899  2.2654 -1.5098  1.0935
   95CHL1   C24 9498   5.704   0.254   8.085 -0.9081  0.7938  0.4455
   95CHL1  H24A 9499   5.789   0.182   8.076 -0.3957  1.5772 -1.1493
   95CHL1  H24B 9500   5.749   0.349   8.119  0.2188  0.5193 -0.2391
   95CHL1   C25 9501   5.603   0.209   8.195  0.4486 -0.0432 -0.6781
   95CHL1   H25 9502   5.524   0.287   8.197  0.4675 -0.0429 -0.1092
   95CHL1   C26 9503   5.536   0.079   8.163  0.1182 -0.2719 -0.0148
   95CHL1  H26A 9504   5.602  -0.007   8.141  1.3784  1.2477 -2.3238
   95CHL1  H26B 9505   5.487   0.053   8.260 -0.5766  0.3664 -0.1892
   95CHL1  H26C 9506   5.476   0.101   8.072  3.0610 -2.1723 -2.4932
   95CHL1   C27 9507   5.676   0.190   8.329 -0.0963  0.9367 -0.3498
   95CHL1  H27A 9508   5.744   0.102   8.326 -0.1176  0.8197  1.7935
   95CHL1  H27B 9509   5.740   0.280   8.338 -0.9819  1.6645 -1.2110
   95CHL1  H27C 9510   5.607   0.177   8.415  1.3320  2.5184  1.0692
   96CHL1    C3 9511   6.285   0.203   6.714 -0.0635  0.2115  0.2698
   96CHL1    H3 9512   6.243   0.101   6.704 -0.3486  0.4667 -1.2934
   96CHL1    O3 9513   6.261   0.250   6.583 -0.1456 -0.0335 -0.9741
   96CHL1   H3' 9514   6.319   0.189   6.536 -0.6160 -0.9115 -0.4441
   96CHL1    C4 9515   6.189   0.279   6.803  0.1394 -0.8357  0.4790
   96CHL1   H4A 9516   6.223   0.384   6.788  3.1161 -2.0235 -1.6638
   96CHL1   H4B 9517   6.083   0.271   6.773  0.0736 -1.2031  0.8133
   96CHL1    C5 9518   6.207   0.249   6.947  0.3288 -0.2356 -0.8784
   96CHL1    C6 9519   6.105   0.205   7.021 -0.7188 -0.8625 -0.2954
   96CHL1    H6 9520   6.005   0.188   6.979 -1.9795 -1.0984  2.6824
   96CHL1    C7 9521   6.106   0.168   7.164  0.5942  0.3329 -0.5452
   96CHL1   H7A 9522   6.024   0.222   7.217  0.9971  0.4481 -0.0394
   96CHL1   H7B 9523   6.093   0.059   7.178  1.2500  0.3641  0.3373
   96CHL1    C8 9524   6.242   0.210   7.236  0.8721 -0.3505 -0.4558
   96CHL1    H8 9525   6.214   0.314   7.266 -1.7558 -0.6070 -1.8907
   96CHL1   C14 9526   6.257   0.136   7.366 -0.1158  0.1133 -0.2999
   96CHL1   H14 9527   6.281   0.035   7.326  2.1622  0.2496  0.6428
   96CHL1   C15 9528   6.134   0.113   7.463  0.3424 -0.0021 -0.1120
   96CHL1  H15A 9529   6.078   0.209   7.465 -2.2768 -1.4813  0.5567
   96CHL1  H15B 9530   6.065   0.036   7.422  0.5062  0.3639 -1.1033
   96CHL1   C16 9531   6.203   0.075   7.598  0.2867 -0.8459  0.3330
   96CHL1  H16A 9532   6.175   0.151   7.675 -0.3113  0.9818 -1.6512
   96CHL1  H16B 9533   6.171  -0.027   7.626 -0.4635 -1.1219 -1.5006
   96CHL1   C17 9534   6.357   0.086   7.571 -0.0255 -0.3903  0.0111
   96CHL1   H17 9535   6.393  -0.013   7.536  1.2758  0.3346 -0.7225
   96CHL1   C13 9536   6.379   0.176   7.448  0.2127 -0.3879 -0.1214
   96CHL1   C18 9537   6.361   0.325   7.494  0.5771  0.3247  0.0738
   96CHL1  H18A 9538   6.344   0.385   7.402 -1.7030 -1.0784 -0.4593
   96CHL1  H18B 9539   6.276   0.333   7.565 -0.6684  1.0024 -1.4622
   96CHL1  H18C 9540   6.455   0.359   7.543  1.7203 -0.6108 -1.4116
   96CHL1   C12 9541   6.509   0.162   7.357 -0.2864  0.3828 -0.1183
   96CHL1  H12A 9542   6.600   0.190   7.413 -0.5980 -0.9900  1.0835
   96CHL1  H12B 9543   6.529   0.055   7.337 -0.2850  0.6931 -1.8638
   96CHL1   C11 9544   6.496   0.229   7.219  0.0557  0.3127 -0.3341
   96CHL1  H11A 9545   6.491   0.338   7.238 -1.0497  0.0278  1.1717
   96CHL1  H11B 9546   6.588   0.224   7.158 -0.5497 -1.6668 -1.1106
   96CHL1    C9 9547   6.365   0.189   7.145 -0.1864 -0.1622 -0.1457
   96CHL1    H9 9548   6.380   0.080   7.130  1.2180 -0.2229  1.5985
   96CHL1   C10 9549   6.355   0.249   6.999 -0.3229 -0.0707 -0.1105
   96CHL1   C19 9550   6.399   0.404   6.996 -0.4613 -0.2431 -0.2588
   96CHL1  H19A 9551   6.377   0.451   6.899 -0.0501  0.2286 -0.1240
   96CHL1  H19B 9552   6.353   0.447   7.088 -0.3518  0.3750 -0.4961
   96CHL1  H19C 9553   6.507   0.404   7.021 -0.8586 -1.2996  1.6252
   96CHL1    C1 9554   6.446   0.172   6.909  0.2198  0.8436  0.5585
   96CHL1   H1A 9555   6.549   0.176   6.949  0.3673 -3.7519  0.8305
   96CHL1   H1B 9556   6.414   0.066   6.919  1.3495  0.3120 -1.1822
   96CHL1    C2 9557   6.437   0.210   6.761  0.3314 -0.1907 -0.3375
   96CHL1   H2A 9558   6.505   0.146   6.701 -0.4738 -0.0102 -1.4579
   96CHL1   H2B 9559   6.454   0.317   6.737 -0.3689 -0.0869 -0.3877
   96CHL1   C20 9560   6.432   0.113   7.702 -0.5026  0.5249 -0.5808
   96CHL1   H20 9561   6.401   0.214   7.738  1.3998  1.5831 -1.8481
   96CHL1   C21 9562   6.583   0.101   7.679  0.0304  0.0023  0.0965
   96CHL1  H21A 9563   6.620   0.006   7.635 -1.5831 -0.8380  0.5399
   96CHL1  H21B 9564   6.642   0.106   7.773  0.1881 -1.2298  0.0661
   96CHL1  H21C 9565   6.612   0.189   7.617 -0.0348  0.8295  1.2381
   96CHL1   C22 9566   6.380   0.014   7.821  0.2612 -0.6407  0.8810
   96CHL1  H22A 9567   6.275   0.046   7.839 -0.6847 -1.6475 -2.4726
   96CHL1  H22B 9568   6.384  -0.091   7.784 -0.5019  0.6208 -3.0727
   96CHL1   C23 9569   6.440   0.027   7.963  0.2948 -0.3777  0.2620
   96CHL1  H23A 9570   6.548   0.054   7.959  0.8035 -1.6829  3.2475
   96CHL1  H23B 9571   6.385   0.113   8.007  1.1396  1.3594 -1.9975
   96CHL1   C24 9572   6.417  -0.095   8.061 -0.2832  0.3539 -0.1858
   96CHL1  H24A 9573   6.309  -0.110   8.079 -1.5343  3.7258 -4.0372
   96CHL1  H24B 9574   6.459  -0.184   8.008 -0.9019 -1.0701  1.6808
   96CHL1   C25 9575   6.504  -0.091   8.193  0.4398  0.5175  0.4101
   96CHL1   H25 9576   6.609  -0.066   8.164  0.6729 -0.3171  0.5381
   96CHL1   C26 9577   6.448   0.029   8.279 -0.3114  0.2297 -0.1881
   96CHL1  H26A 9578   6.514   0.052   8.365 -1.9622  0.9333  0.9198
   96CHL1  H26B 9579   6.448   0.122   8.217  0.6676  1.1522  1.1673
   96CHL1  H26C 9580   6.342   0.006   8.304 -0.7142  1.8095 -0.3766
   96CHL1   C27 9581   6.509  -0.224   8.268 -0.0830 -0.6051 -0.3353
   96CHL1  H27A 9582   6.517  -0.312   8.202  0.6570 -0.4907 -0.4024
   96CHL1  H27B 9583   6.580  -0.225   8.354  0.1608 -6.1915 -0.4741
   96CHL1  H27C 9584   6.408  -0.240   8.311 -0.9412 -1.2071 -2.5074
   97OSM      N 9585   4.546   0.645  11.229 -0.0555  0.0089  0.0078
   97OSM    C15 9586   4.666   0.581  11.276  1.0260 -0.4850  0.1540
   97OSM   H15A 9587   4.750   0.603  11.212  0.7650  0.1106  0.0120
   97OSM   H15B 9588   4.656   0.474  11.290 -0.6054 -0.3149  0.4225
   97OSM   H15C 9589   4.703   0.618  11.370  2.0594  2.0193 -1.2097
   97OSM    C14 9590   4.590   0.792  11.200  0.5069  0.2333 -0.1990
   97OSM   H14A 9591   4.660   0.792  11.118 -0.2750 -0.9712 -0.8899
   97OSM   H14B 9592   4.627   0.841  11.289 -1.0320 -0.5900  0.9125
   97OSM   H14C 9593   4.512   0.853  11.157  0.2771  1.2027  1.5307
   97OSM    C13 9594   4.517   0.583  11.094  0.2792  0.5717 -0.1375
   97OSM   H13A 9595   4.421   0.605  11.050  0.8293  1.0855 -1.1081
   97OSM   H13B 9596   4.504   0.477  11.105 -0.6038  0.9085  2.2948
   97OSM   H13C 9597   4.597   0.611  11.027  1.5115  1.5103  1.6932
   97OSM    C12 9598   4.424   0.640  11.313 -0.3959 -0.3264 -0.1682
   97OSM   H12A 9599   4.349   0.702  11.266  0.4949  1.4310  0.7042
   97OSM   H12B 9600   4.436   0.693  11.406 -1.2389  2.0508 -1.3857
   97OSM    C11 9601   4.374   0.495  11.341 -0.9393 -0.5573  1.0217
   97OSM   H11A 9602   4.308   0.498  11.430 -0.8441 -1.6278  1.1282
   97OSM   H11B 9603   4.463   0.437  11.373  2.3135  1.9962 -2.8953
   97OSM      P 9604   4.156   0.459  11.187  0.0544  0.1284  0.0718
   97OSM    O13 9605   4.077   0.338  11.197  0.0289 -0.1395 -0.2967
   97OSM    O14 9606   4.100   0.583  11.240 -0.8222 -0.1232 -0.0574
   97OSM    O11 9607   4.196   0.476  11.034 -0.1712  0.4188 -0.0718
   97OSM    O12 9608   4.310   0.433  11.224 -0.5512 -0.5020 -0.2926
   97OSM    C1S 9609   4.099   0.492  10.926  0.1043  1.1923 -0.4759
   97OSM    H1S 9610   4.009   0.541  10.969 -2.3982 -2.2242 -1.5978
   97OSM    H1T 9611   4.070   0.391  10.890 -0.5909  0.0145  3.1023
   97OSM     NF 9612   4.038   0.617  10.713 -0.5713 -1.1068 -0.6856
   97OSM    HNF 9613   4.048   0.567  10.627 -1.3216  3.0637 -3.3183
   97OSM    C2S 9614   4.145   0.581  10.803  0.5041  0.2982  0.1663
   97OSM    H2S 9615   4.181   0.679  10.841  2.2211 -0.6425  1.0619
   97OSM    C3S 9616   4.268   0.508  10.735  0.1003  0.6512 -0.6115
   97OSM    H3S 9617   4.234   0.408  10.701 -1.9071 -0.0130  3.0947
   97OSM     O3 9618   4.370   0.471  10.826  0.2307 -0.0983 -0.6971
   97OSM    HO3 9619   4.311   0.476  10.902  0.9753  0.1928 -0.1371
   97OSM    C4S 9620   4.318   0.588  10.607 -0.1810 -0.0312  0.8853
   97OSM    H4S 9621   4.287   0.536  10.516  1.6642  3.0828 -1.6431
   97OSM    C5S 9622   4.374   0.712  10.598  0.2214 -0.5344 -0.0858
   97OSM    H5S 9623   4.390   0.760  10.696 -0.0817 -1.2146  0.3028
   97OSM    C6S 9624   4.417   0.790  10.480 -0.2491 -0.3246 -0.2256
   97OSM    H6S 9625   4.525   0.817  10.482 -0.2807 -0.2662  3.2708
   97OSM    H6T 9626   4.378   0.894  10.487 -2.1771 -0.9925 -0.9139
   97OSM    C7S 9627   4.386   0.739  10.343 -0.5469 -1.0716  0.3452
   97OSM    H7S 9628   4.275   0.736  10.332 -0.7142  0.2337  1.5129
   97OSM    H7T 9629   4.419   0.634  10.324  0.1957 -0.8903  0.6244
   97OSM    C8S 9630   4.448   0.806  10.221  0.4324  0.2043  0.2062
   97OSM    H8S 9631   4.558   0.787  10.215  0.4962  0.0309  1.6610
   97OSM    H8T 9632   4.444   0.917  10.229  3.0380  0.6121 -3.1834
   97OSM    C9S 9633   4.397   0.760  10.084 -0.3690  0.0412 -0.1482
   97OSM    H9S 9634   4.288   0.779  10.093  0.0136  1.8179  0.9745
   97OSM    H9T 9635   4.415   0.651  10.076  0.3523  0.0462  1.2027
   97OSM   C10S 9636   4.463   0.836   9.969  0.5518  0.9260 -0.9018
   97OSM   H10S 9637   4.573   0.833   9.985  0.4113  0.0350 -0.0979
   97OSM   H10T 9638   4.424   0.940   9.964  0.4600  0.8407 -2.0669
   97OSM   C11S 9639   4.419   0.765   9.840  0.8573  0.4112 -0.2315
   97OSM   H11S 9640   4.312   0.736   9.844  0.8677  0.0772 -1.9439
   97OSM   H11T 9641   4.478   0.672   9.854 -0.1917 -0.5276 -1.8206
   97OSM   C12S 9642   4.455   0.848   9.723 -0.8082  0.5040  0.4403
   97OSM   H12S 9643   4.561   0.831   9.696 -1.2149 -0.4936 -0.5884
   97OSM   H12T 9644   4.437   0.954   9.752 -2.3581 -0.6597  4.0141
   97OSM   C13S 9645   4.379   0.810   9.595 -0.2766  0.6302 -0.2523
   97OSM   H13S 9646   4.269   0.822   9.602 -0.2069  0.5306  1.0426
   97OSM   H13T 9647   4.404   0.706   9.565 -0.0611 -0.1999  2.7028
   97OSM   C14S 9648   4.430   0.891   9.483  0.4776  0.8033 -0.2211
   97OSM   H14S 9649   4.540   0.879   9.489  0.2766 -0.6532  0.8593
   97OSM   H14T 9650   4.410   0.999   9.502  0.6162  0.4913  1.8312
   97OSM   C15S 9651   4.398   0.837   9.347  0.3048  0.8629  0.3343
   97OSM   H15S 9652   4.292   0.806   9.355  0.6863 -0.0692  1.9202
   97OSM   H15T 9653   4.459   0.752   9.311  1.1939  0.6848  2.2144
   97OSM   C16S 9654   4.393   0.937   9.235 -0.0499 -0.1804  0.3910
   97OSM   H16S 9655   4.498   0.948   9.200 -0.4442 -1.6719 -1.3887
   97OSM   H16T 9656   4.343   1.032   9.261 -2.9815 -1.0129 -1.8795
   97OSM   C17S 9657   4.321   0.887   9.112  0.3169 -0.4576 -0.0064
   97OSM   H17S 9658   4.297   0.970   9.042 -1.4977 -2.1009 -1.3638
   97OSM   H17T 9659   4.223   0.855   9.154  0.5956  1.2248  2.0422
   97OSM   C18S 9660   4.389   0.769   9.043  0.7549  0.2332 -0.1015
   97OSM   H18S 9661   4.498   0.790   9.039  0.3866  2.4765  0.9927
   97OSM   H18T 9662   4.352   0.756   8.939  0.2062  1.4758 -0.0727
   97OSM   H18U 9663   4.362   0.672   9.090 -0.4174 -0.6690 -2.5661
   97OSM    C1F 9664   3.916   0.677  10.741  0.0833 -0.0984  1.0885
   97OSM     OF 9665   3.879   0.687  10.856 -0.1590  0.1373  0.8607
   97OSM    C2F 9666   3.841   0.751  10.623  0.2621  0.6448 -0.3130
   97OSM    H2F 9667   3.896   0.846  10.607  2.1777 -0.0639  1.8890
   97OSM    H2G 9668   3.739   0.764  10.664  1.2219  0.9579  2.0207
   97OSM    C3F 9669   3.849   0.675  10.483 -0.2650 -0.1615 -0.0005
   97OSM    H3F 9670   3.794   0.579  10.493 -0.0983 -0.0971  1.6772
   97OSM    H3G 9671   3.950   0.650  10.444 -0.0505 -2.5686  1.9526
   97OSM    C4F 9672   3.782   0.758  10.372  0.0121 -0.5309  0.2650
   97OSM    H4F 9673   3.839   0.847  10.341  0.9434 -1.5996 -1.1398
   97OSM    H4G 9674   3.690   0.802  10.416 -0.6478 -1.1119 -0.5060
   97OSM    C5F 9675   3.756   0.683  10.239  0.3432 -0.0032  0.5806
   97OSM    H5F 9676   3.712   0.763  10.175 -2.1380 -1.0812  0.8712
   97OSM    H5G 9677   3.669   0.615  10.250  0.8955 -0.8871 -0.4792
   97OSM    C6F 9678   3.872   0.611  10.173 -0.2087 -0.2071  0.8539
   97OSM    H6F 9679   3.822   0.538  10.105  1.3069 -0.5267  0.0586
   97OSM    H6G 9680   3.932   0.556  10.248  0.9223  0.4718  0.4704
   97OSM    C7F 9681   3.967   0.691  10.077  0.4894 -0.7428  0.4437
   97OSM    H7F 9682   4.027   0.762  10.138 -2.7448  2.8107 -0.2878
   97OSM    H7G 9683   3.917   0.758  10.004  1.6745 -0.5809 -0.2249
   97OSM    C8F 9684   4.055   0.589  10.001  0.1160  1.2003 -0.2240
   97OSM    H8F 9685   4.103   0.518  10.072  1.2419  2.6768  0.5026
   97OSM    H8G 9686   4.140   0.650   9.964  2.3829 -2.0529 -0.5916
   97OSM    C9F 9687   3.984   0.507   9.898 -0.1717  0.0378  0.1261
   97OSM    H9F 9688   3.896   0.455   9.939 -0.1073  0.2192  0.5003
   97OSM   C10F 9689   4.001   0.510   9.760  0.0170 -0.0931 -0.1540
   97OSM   H10F 9690   3.946   0.437   9.699  1.5005 -2.2464  0.9974
   97OSM   C11F 9691   4.100   0.588   9.688 -0.1929  0.5607 -0.1386
   97OSM   H11F 9692   4.208   0.563   9.696  0.7147  4.5440  0.7927
   97OSM   H11G 9693   4.101   0.693   9.724 -0.6247 -0.3319  2.5924
   97OSM   C12F 9694   4.057   0.592   9.547  0.2506  0.4300 -0.1839
   97OSM   H12F 9695   4.101   0.676   9.489 -0.6810  1.5555  0.7145
   97OSM   H12G 9696   3.948   0.612   9.539  0.1598  0.5842  1.2707
   97OSM   C13F 9697   4.090   0.473   9.454  0.5456 -0.7748  0.1793
   97OSM   H13F 9698   4.008   0.398   9.464  0.9427 -1.3167 -0.5619
   97OSM   H13G 9699   4.188   0.429   9.483  0.6003  0.5578  2.1145
   97OSM   C14F 9700   4.113   0.505   9.307 -0.2665  0.5851  0.3613
   97OSM   H14F 9701   4.204   0.568   9.308  1.1768 -1.4423  2.2038
   97OSM   H14G 9702   4.034   0.564   9.256 -0.8078  0.7070  1.3416
   97OSM   C15F 9703   4.150   0.384   9.214  0.3318  0.4306 -0.0621
   97OSM   H15F 9704   4.063   0.315   9.222 -0.1932  1.1249  0.2783
   97OSM   H15G 9705   4.246   0.340   9.248 -0.9313 -1.7027  0.8721
   97OSM   C16F 9706   4.158   0.421   9.061  0.6676 -0.2219 -0.5554
   97OSM   H16F 9707   4.265   0.450   9.052  0.6717  0.6031  2.0297
   97OSM   H16G 9708   4.093   0.505   9.028 -0.3934  0.0510  2.1031
   97OSM   C17F 9709   4.139   0.292   8.970  0.0870  0.5795 -0.0773
   97OSM   H17F 9710   4.029   0.284   8.957  0.5646 -1.4932 -3.6034
   97OSM   H17G 9711   4.186   0.202   9.015  2.6573  1.2040 -1.4631
   97OSM   C18F 9712   4.201   0.306   8.831  0.3007  0.4022  0.6192
   97OSM   H18F 9713   4.311   0.320   8.844  0.2192  2.8764 -0.8476
   97OSM   H18G 9714   4.146   0.386   8.777  2.5887 -0.7009 -3.5834
   97OSM   H18H 9715   4.196   0.221   8.760  3.1197  0.5932  0.1336
   98OSM      N 9716   3.646   0.557  11.094 -0.1288 -0.0780 -0.1005
   98OSM    C15 9717   3.749   0.517  11.195  0.0964  0.1272 -1.1016
   98OSM   H15A 9718   3.773   0.412  11.204  2.0352  0.4609 -2.2166
   98OSM   H15B 9719   3.743   0.562  11.293  0.9312 -0.0082 -0.9891
   98OSM   H15C 9720   3.844   0.552  11.159  0.0194  2.0186  0.4259
   98OSM    C14 9721   3.522   0.504  11.146  0.2161  0.3834 -0.8023
   98OSM   H14A 9722   3.500   0.402  11.120  0.2535  0.0905  0.3016
   98OSM   H14B 9723   3.441   0.543  11.085 -0.1977  0.9168  0.0749
   98OSM   H14C 9724   3.515   0.529  11.250 -1.1224 -2.3254 -0.1958
   98OSM    C13 9725   3.644   0.710  11.088  0.1499  0.7055 -0.3759
   98OSM   H13A 9726   3.745   0.749  11.087  0.0535  1.0019  1.1254
   98OSM   H13B 9727   3.599   0.750  11.178 -1.1882  3.3189 -2.1277
   98OSM   H13C 9728   3.601   0.760  11.002  0.3651  1.8763  0.1896
   98OSM    C12 9729   3.676   0.487  10.964 -0.5572 -0.6314 -0.2308
   98OSM   H12A 9730   3.685   0.381  10.984  0.8526 -0.3423  0.7395
   98OSM   H12B 9731   3.776   0.519  10.940  0.6151 -3.4130  0.7298
   98OSM    C11 9732   3.582   0.504  10.846 -0.1420 -0.6933 -0.0604
   98OSM   H11A 9733   3.642   0.469  10.760 -2.3334 -0.8724 -1.5659
   98OSM   H11B 9734   3.576   0.615  10.841  1.9209 -0.4842  1.4564
   98OSM      P 9735   3.426   0.294  10.812 -0.0458  0.0440  0.0349
   98OSM    O13 9736   3.474   0.202  10.916 -0.1474 -0.0303  0.2738
   98OSM    O14 9737   3.283   0.293  10.783 -0.3319 -0.1745  0.2727
   98OSM    O11 9738   3.509   0.282  10.677  0.4066  0.2749 -0.5112
   98OSM    O12 9739   3.454   0.442  10.859  0.2140 -0.6496 -0.1076
   98OSM    C1S 9740   3.466   0.202  10.566  0.5021 -0.1191  0.0400
   98OSM    H1S 9741   3.367   0.233  10.527 -0.0985 -0.6877  1.0595
   98OSM    H1T 9742   3.447   0.098  10.601  1.6691 -1.0081 -1.9060
   98OSM     NF 9743   3.517   0.076  10.355 -0.2006 -0.4323 -0.4495
   98OSM    HNF 9744   3.566  -0.010  10.366 -1.5512 -1.4095 -1.8968
   98OSM    C2S 9745   3.560   0.185  10.441  0.4067 -0.2223 -0.4065
   98OSM    H2S 9746   3.551   0.271  10.372 -0.9831  0.1499  0.2088
   98OSM    C3S 9747   3.699   0.177  10.503 -0.0205 -0.0668  0.3801
   98OSM    H3S 9748   3.692   0.097  10.580 -1.9042  0.2621  0.5676
   98OSM     O3 9749   3.755   0.304  10.547 -0.8641  0.5088  0.1052
   98OSM    HO3 9750   3.689   0.339  10.607 -1.3036  1.0710 -0.7120
   98OSM    C4S 9751   3.794   0.131  10.395  0.2602 -0.8549 -0.6983
   98OSM    H4S 9752   3.822   0.206  10.319 -2.6407 -0.2253 -1.2092
   98OSM    C5S 9753   3.838   0.011  10.366  0.3626  0.7286  0.7825
   98OSM    H5S 9754   3.830  -0.071  10.439  2.1376  2.2415  2.7343
   98OSM    C6S 9755   3.939  -0.026  10.254  0.0087 -0.5370  1.2327
   98OSM    H6S 9756   3.915  -0.127  10.215 -0.0326 -0.4125  0.9336
   98OSM    H6T 9757   4.046  -0.025  10.283  0.2708  3.5393  0.4598
   98OSM    C7S 9758   3.928   0.067  10.126  0.3405  0.3368 -0.3715
   98OSM    H7S 9759   3.989   0.159  10.130 -0.4999  1.0043 -2.2483
   98OSM    H7T 9760   3.821   0.096  10.117  0.2759  0.4151  0.5811
   98OSM    C8S 9761   3.971   0.006   9.996  0.2498 -0.1680 -0.1732
   98OSM    H8S 9762   3.923  -0.093   9.981  0.6862 -0.4872  0.5022
   98OSM    H8T 9763   4.078  -0.021  10.013 -0.2481 -2.5658 -0.6196
   98OSM    C9S 9764   3.954   0.090   9.872 -0.1959 -0.3341  0.0781
   98OSM    H9S 9765   4.009   0.186   9.874  1.3367 -1.1660 -1.2301
   98OSM    H9T 9766   3.849   0.126   9.868 -0.9185 -2.3676  0.1137
   98OSM   C10S 9767   3.987   0.027   9.733 -0.0013  0.2766  0.3065
   98OSM   H10S 9768   3.911  -0.049   9.704 -1.9625  2.1752  0.3686
   98OSM   H10T 9769   4.088  -0.016   9.748  0.9819  1.0949 -3.2878
   98OSM   C11S 9770   3.988   0.131   9.620  0.3246 -0.4388 -0.4182
   98OSM   H11S 9771   4.040   0.227   9.640 -2.2556  0.8515  0.2891
   98OSM   H11T 9772   3.883   0.167   9.617 -0.9469 -3.9343 -0.6702
   98OSM   C12S 9773   4.040   0.071   9.493 -0.0212  0.2746 -0.2937
   98OSM   H12S 9774   4.122  -0.002   9.514 -1.5075 -1.4782 -0.4763
   98OSM   H12T 9775   4.084   0.151   9.430 -1.8863  0.5765 -1.2294
   98OSM   C13S 9776   3.930  -0.007   9.407  0.1672 -0.1969  0.4359
   98OSM   H13S 9777   3.843   0.062   9.410  1.3606  1.4209 -0.5035
   98OSM   H13T 9778   3.898  -0.104   9.450 -2.0104  0.8120  1.1495
   98OSM   C14S 9779   3.976  -0.018   9.260 -0.3028  0.1229 -0.0638
   98OSM   H14S 9780   4.048  -0.100   9.240  0.8783  1.2472 -0.4985
   98OSM   H14T 9781   4.024   0.078   9.230  2.3723 -1.8296 -2.3480
   98OSM   C15S 9782   3.852  -0.047   9.176 -0.4822  0.6649  0.3146
   98OSM   H15S 9783   3.768   0.023   9.196  0.4113  1.6122  0.8237
   98OSM   H15T 9784   3.821  -0.151   9.200  4.1695 -0.7344  0.8512
   98OSM   C16S 9785   3.880  -0.031   9.029  0.3295 -0.1188  0.9189
   98OSM   H16S 9786   3.971  -0.086   8.996  0.1111 -0.8887  1.5968
   98OSM   H16T 9787   3.898   0.077   9.007  0.4583 -0.0778  1.2193
   98OSM   C17S 9788   3.759  -0.080   8.936  0.2292 -0.4094  0.2905
   98OSM   H17S 9789   3.664  -0.052   8.987 -0.1723 -2.5772  0.7879
   98OSM   H17T 9790   3.770  -0.190   8.926  0.4589 -0.2858 -0.7911
   98OSM   C18S 9791   3.755  -0.027   8.788 -0.4104  0.2117  0.1267
   98OSM   H18S 9792   3.710   0.075   8.784  2.8394  1.7298  0.2423
   98OSM   H18T 9793   3.689  -0.092   8.726  0.7130  0.5598 -1.4808
   98OSM   H18U 9794   3.855  -0.021   8.741 -0.8633  2.7117 -0.5826
   98OSM    C1F 9795   3.399   0.070  10.300 -0.4190 -0.1059  0.2517
   98OSM     OF 9796   3.323   0.169  10.309 -0.0581  0.3310 -0.0685
   98OSM    C2F 9797   3.361  -0.057  10.230  0.3882 -0.1092  0.2131
   98OSM    H2F 9798   3.265  -0.042  10.175 -0.2577 -0.3702  1.2518
   98OSM    H2G 9799   3.344  -0.133  10.310 -0.9730  0.3853  0.4181
   98OSM    C3F 9800   3.449  -0.093  10.116 -0.1918 -0.4027  0.3099
   98OSM    H3F 9801   3.440  -0.193  10.070  2.4680  0.2125 -1.6686
   98OSM    H3G 9802   3.556  -0.105  10.144  0.2795 -4.3993 -2.7515
   98OSM    C4F 9803   3.447   0.008  10.000  0.4720 -0.9433 -0.2379
   98OSM    H4F 9804   3.487   0.109  10.024 -1.2682  0.3392 -2.4432
   98OSM    H4G 9805   3.345   0.028   9.960  0.2433  0.2713  0.9248
   98OSM    C5F 9806   3.530  -0.048   9.883  0.0469  0.3548  0.0390
   98OSM    H5F 9807   3.510  -0.156   9.869  0.0212 -0.2488  3.9977
   98OSM    H5G 9808   3.632  -0.019   9.916 -0.6696  2.5517  0.4232
   98OSM    C6F 9809   3.495   0.003   9.740  0.2445 -0.0788 -0.6462
   98OSM    H6F 9810   3.533   0.108   9.731 -1.5851  0.7086  0.6253
   98OSM    H6G 9811   3.385  -0.005   9.728  0.1039 -0.6405  0.9197
   98OSM    C7F 9812   3.566  -0.076   9.623  0.3128  0.0219  0.0323
   98OSM    H7F 9813   3.519  -0.177   9.620  2.1632 -0.8187 -2.0431
   98OSM    H7G 9814   3.669  -0.075   9.664  0.7947 -1.9453 -1.0982
   98OSM    C8F 9815   3.578   0.000   9.494 -0.7636 -0.7789 -0.9270
   98OSM    H8F 9816   3.660  -0.051   9.440  0.8966  0.3774  0.4441
   98OSM    H8G 9817   3.606   0.103   9.524  1.0498 -1.2464 -0.9606
   98OSM    C9F 9818   3.451  -0.010   9.421 -0.4539 -0.1743 -0.2257
   98OSM    H9F 9819   3.378   0.071   9.440  0.5554  0.2023  2.2551
   98OSM   C10F 9820   3.416  -0.111   9.345 -0.4160 -0.4984 -0.3381
   98OSM   H10F 9821   3.328  -0.102   9.279  0.7298  1.2182 -1.6816
   98OSM   C11F 9822   3.500  -0.231   9.314 -0.2435 -0.3688 -0.4534
   98OSM   H11F 9823   3.487  -0.314   9.387  2.0991  0.4215  0.9132
   98OSM   H11G 9824   3.610  -0.214   9.319 -0.3332 -0.4108  2.1247
   98OSM   C12F 9825   3.461  -0.317   9.187 -0.3380  0.2179 -0.1573
   98OSM   H12F 9826   3.439  -0.254   9.099 -0.1855 -0.2750 -0.5537
   98OSM   H12G 9827   3.369  -0.370   9.218 -0.5848  0.9890  0.4297
   98OSM   C13F 9828   3.576  -0.414   9.150  0.6607  0.4954 -0.2090
   98OSM   H13F 9829   3.588  -0.490   9.231 -0.7122 -0.8538 -1.2337
   98OSM   H13G 9830   3.682  -0.383   9.136  1.0810 -0.3833  0.9226
   98OSM   C14F 9831   3.538  -0.493   9.024 -0.1213 -0.2952  0.1176
   98OSM   H14F 9832   3.428  -0.481   9.010 -0.2691 -0.9588  0.6801
   98OSM   H14G 9833   3.567  -0.600   9.037  1.9577 -0.0429 -2.1197
   98OSM   C15F 9834   3.603  -0.426   8.897 -0.0648  0.1088  0.4951
   98OSM   H15F 9835   3.714  -0.428   8.896 -0.0760 -2.0323  0.4706
   98OSM   H15G 9836   3.573  -0.320   8.903 -2.4206 -0.5728  1.3960
   98OSM   C16F 9837   3.552  -0.493   8.770 -0.0431 -0.1420  0.3867
   98OSM   H16F 9838   3.441  -0.490   8.770 -0.0546 -0.6091  0.6456
   98OSM   H16G 9839   3.578  -0.601   8.766 -2.9918 -0.8385 -2.6107
   98OSM   C17F 9840   3.603  -0.428   8.642  0.0553  0.1654  0.1824
   98OSM   H17F 9841   3.580  -0.321   8.661  1.6169 -0.0175  3.4554
   98OSM   H17G 9842   3.552  -0.473   8.554 -2.0882 -1.0188  1.9576
   98OSM   C18F 9843   3.758  -0.430   8.629 -0.0662  0.1358  0.4751
   98OSM   H18F 9844   3.797  -0.369   8.712 -0.4194 -0.7604  1.3077
   98OSM   H18G 9845   3.793  -0.407   8.526 -0.0369 -2.9721 -0.2771
   98OSM   H18H 9846   3.789  -0.537   8.633 -1.5974 -0.3691 -0.5657
   99OSM      N 9847   5.489   1.088  10.949  0.7088 -0.4556 -0.2582
   99OSM    C15 9848   5.613   1.154  10.979 -0.9942  0.3400 -0.2682
   99OSM   H15A 9849   5.638   1.167  11.083  0.0567  0.2362 -0.5036
   99OSM   H15B 9850   5.606   1.254  10.937  0.2513  1.0933  1.2763
   99OSM   H15C 9851   5.699   1.105  10.934 -1.0653 -1.4300  1.4470
   99OSM    C14 9852   5.489   0.961  11.023 -0.0254  0.8287 -1.0226
   99OSM   H14A 9853   5.550   0.885  10.977 -1.2817  0.2004 -1.6577
   99OSM   H14B 9854   5.390   0.917  11.026  0.5851 -0.4965  0.0087
   99OSM   H14C 9855   5.522   0.969  11.126 -2.2746  2.3104 -0.3619
   99OSM    C13 9856   5.379   1.173  11.009 -0.0769  0.5738  0.1502
   99OSM   H13A 9857   5.375   1.265  10.952  1.1562 -0.1286 -1.1244
   99OSM   H13B 9858   5.403   1.208  11.108 -1.4466  0.0892  0.6665
   99OSM   H13C 9859   5.281   1.128  11.010  0.8993 -1.6714  3.5973
   99OSM    C12 9860   5.461   1.061  10.797 -0.5010 -0.4594 -0.2901
   99OSM   H12A 9861   5.441   1.154  10.746 -0.3265 -0.4783 -0.3928
   99OSM   H12B 9862   5.369   1.003  10.791 -0.1145 -1.0166 -0.9766
   99OSM    C11 9863   5.566   0.991  10.711 -0.1274  0.0040  0.0598
   99OSM   H11A 9864   5.646   1.062  10.682 -1.8476  1.0338 -2.3423
   99OSM   H11B 9865   5.505   0.966  10.622 -2.6793 -2.0874  2.2862
   99OSM      P 9866   5.750   0.825  10.767 -0.1801 -0.0455  0.3495
   99OSM    O13 9867   5.839   0.941  10.798  0.0907  0.1901 -0.0924
   99OSM    O14 9868   5.773   0.709  10.852 -0.0243 -0.0169 -0.6424
   99OSM    O11 9869   5.774   0.783  10.615  0.2386 -0.9623 -0.0145
   99OSM    O12 9870   5.604   0.866  10.770  0.2419  0.1705 -0.3990
   99OSM    C1S 9871   5.823   0.875  10.524  0.4934 -0.0835 -0.5000
   99OSM    H1S 9872   5.931   0.891  10.544  0.1599  1.7981 -0.1211
   99OSM    H1T 9873   5.776   0.975  10.539 -1.7016 -1.2463  0.7035
   99OSM     NF 9874   5.877   0.892  10.281  0.3350  0.7038 -0.6366
   99OSM    HNF 9875   5.830   0.923  10.199  0.3251 -0.3126 -1.0201
   99OSM    C2S 9876   5.808   0.813  10.381  0.1417  0.4998  0.4798
   99OSM    H2S 9877   5.868   0.720  10.390 -0.7641 -0.3623 -1.8116
   99OSM    C3S 9878   5.660   0.779  10.345 -0.2288 -0.0725  0.4947
   99OSM    H3S 9879   5.601   0.874  10.345 -0.1395 -0.0082 -0.8560
   99OSM     O3 9880   5.593   0.693  10.440 -0.1531  0.3819  0.5619
   99OSM    HO3 9881   5.630   0.716  10.526  1.2370 -0.2333  0.1455
   99OSM    C4S 9882   5.648   0.728  10.207 -0.6662  0.8171 -0.3742
   99OSM    H4S 9883   5.649   0.803  10.126  0.2768  0.0435 -1.0851
   99OSM    C5S 9884   5.661   0.598  10.169 -0.5353 -0.3444  0.1684
   99OSM    H5S 9885   5.666   0.515  10.241  1.5784  2.8751  3.9151
   99OSM    C6S 9886   5.649   0.556  10.021  0.3069  0.2648  1.0676
   99OSM    H6S 9887   5.655   0.646   9.956 -0.3942 -0.7193 -0.3636
   99OSM    H6T 9888   5.553   0.503  10.006 -1.1241  2.8175  0.8358
   99OSM    C7S 9889   5.761   0.463   9.979  0.4268  0.1667  0.0227
   99OSM    H7S 9890   5.767   0.370  10.039  0.2227 -0.9781 -1.7085
   99OSM    H7T 9891   5.852   0.527   9.986 -0.0441  0.7105  1.2218
   99OSM    C8S 9892   5.751   0.421   9.832  0.0879  0.7986  0.3406
   99OSM    H8S 9893   5.845   0.366   9.814 -1.1421 -1.0720 -0.3993
   99OSM    H8T 9894   5.749   0.513   9.770 -2.2705  1.1215  0.8309
   99OSM    C9S 9895   5.646   0.313   9.818 -0.1918  0.1244 -0.2798
   99OSM    H9S 9896   5.548   0.362   9.836 -0.1225  1.1537 -2.5715
   99OSM    H9T 9897   5.661   0.243   9.903 -1.8873 -0.7028 -0.6466
   99OSM   C10S 9898   5.643   0.244   9.679 -0.3078  0.0136  0.2997
   99OSM   H10S 9899   5.580   0.153   9.693  0.8102 -0.8109  0.0453
   99OSM   H10T 9900   5.749   0.215   9.662 -0.6135 -0.7863 -0.2827
   99OSM   C11S 9901   5.586   0.328   9.567 -0.2614  0.2185  0.6931
   99OSM   H11S 9902   5.644   0.422   9.554 -1.2943  0.5761 -1.5865
   99OSM   H11T 9903   5.490   0.376   9.597 -0.5659 -0.3357  0.6204
   99OSM   C12S 9904   5.566   0.256   9.437  0.4110 -0.1862 -0.0018
   99OSM   H12S 9905   5.666   0.233   9.394 -0.2623 -4.5411  0.5634
   99OSM   H12T 9906   5.526   0.155   9.459  0.8436 -0.2613  0.4385
   99OSM   C13S 9907   5.487   0.327   9.330  0.3362  0.1072 -0.5951
   99OSM   H13S 9908   5.518   0.433   9.320 -0.1912  0.1827 -1.4678
   99OSM   H13T 9909   5.383   0.336   9.370 -0.1668  2.0615 -2.2690
   99OSM   C14S 9910   5.497   0.249   9.194  0.0045 -0.3331 -0.6712
   99OSM   H14S 9911   5.410   0.179   9.190 -0.7589  0.5231  0.8369
   99OSM   H14T 9912   5.595   0.197   9.195 -0.1746 -0.7309  3.0061
   99OSM   C15S 9913   5.503   0.323   9.061  0.1692 -0.3599 -0.7539
   99OSM   H15S 9914   5.596   0.383   9.050  0.5783  0.0679  3.8651
   99OSM   H15T 9915   5.416   0.392   9.061  1.9943  2.0573  1.2963
   99OSM   C16S 9916   5.488   0.230   8.944  0.1669  0.6880  0.4608
   99OSM   H16S 9917   5.396   0.169   8.936  1.6076 -1.5840  0.6960
   99OSM   H16T 9918   5.573   0.162   8.965  1.1975  1.5823 -0.7513
   99OSM   C17S 9919   5.518   0.308   8.812 -0.7024 -0.2125 -0.0741
   99OSM   H17S 9920   5.611   0.362   8.840 -0.0566  0.2106 -2.8903
   99OSM   H17T 9921   5.441   0.386   8.790 -2.2935 -1.9603 -0.7965
   99OSM   C18S 9922   5.535   0.221   8.686 -0.7671  0.2346  0.5051
   99OSM   H18S 9923   5.584   0.264   8.596  0.1183 -0.9904  0.3877
   99OSM   H18T 9924   5.433   0.187   8.661 -0.5402  0.1946 -0.3592
   99OSM   H18U 9925   5.587   0.128   8.720  0.5966  1.1971  1.1086
   99OSM    C1F 9926   6.009   0.903  10.270 -0.1287 -0.4033 -0.3138
   99OSM     OF 9927   6.085   0.842  10.346 -0.5030 -0.0955  0.5197
   99OSM    C2F 9928   6.058   0.994  10.165  0.4978 -0.2638  0.1990
   99OSM    H2F 9929   6.146   1.046  10.208 -0.0112  0.9679 -0.2121
   99OSM    H2G 9930   5.983   1.076  10.166  0.9333  0.1751 -1.4810
   99OSM    C3F 9931   6.104   0.916  10.040  0.1213 -1.0523  0.3396
   99OSM    H3F 9932   6.149   0.987   9.967  0.6938 -2.6071 -0.8509
   99OSM    H3G 9933   6.194   0.861  10.074  0.6112 -2.0623 -2.4950
   99OSM    C4F 9934   6.004   0.822   9.972 -0.5373 -0.1190 -0.3726
   99OSM    H4F 9935   5.916   0.876   9.931 -1.1584 -0.3221  0.6946
   99OSM    H4G 9936   5.988   0.743  10.048 -0.6549  2.9018  2.8611
   99OSM    C5F 9937   6.071   0.763   9.853 -0.6576  0.5848 -0.1051
   99OSM    H5F 9938   6.159   0.702   9.881 -1.0011  0.5554  0.9247
   99OSM    H5G 9939   6.114   0.842   9.788 -0.3177  0.6777  0.2337
   99OSM    C6F 9940   5.980   0.677   9.757  0.3780 -0.4273 -0.2308
   99OSM    H6F 9941   5.875   0.711   9.763  0.5800  0.0321  0.9549
   99OSM    H6G 9942   5.995   0.576   9.801 -0.8144 -0.3860  0.2680
   99OSM    C7F 9943   6.020   0.690   9.608 -0.7126  0.8307  0.0081
   99OSM    H7F 9944   6.125   0.655   9.598 -0.3624  1.3436  1.6181
   99OSM    H7G 9945   6.017   0.796   9.575  1.3458  1.1859  0.8754
   99OSM    C8F 9946   5.933   0.612   9.507 -0.8840  0.4226 -0.2959
   99OSM    H8F 9947   5.951   0.652   9.405 -0.6257 -0.6251 -0.6766
   99OSM    H8G 9948   5.828   0.634   9.535 -0.8976 -2.2277  1.9294
   99OSM    C9F 9949   5.943   0.464   9.520  0.4786 -0.7658 -0.1607
   99OSM    H9F 9950   5.905   0.441   9.621 -2.3998  0.9874 -0.7727
   99OSM   C10F 9951   5.979   0.370   9.430  0.5470 -0.2719  0.4874
   99OSM   H10F 9952   5.961   0.269   9.470  0.5628 -1.3810 -2.1809
   99OSM   C11F 9953   6.032   0.380   9.290 -0.1940  0.5137 -0.4612
   99OSM   H11F 9954   6.047   0.273   9.265  0.4612  0.3629  0.5595
   99OSM   H11G 9955   6.132   0.429   9.287  0.7958 -1.5072 -2.9449
   99OSM   C12F 9956   5.940   0.441   9.188 -0.1935  0.0842 -0.0606
   99OSM   H12F 9957   5.936   0.550   9.208  0.2350  0.1679 -0.4165
   99OSM   H12G 9958   5.842   0.390   9.191  0.3277 -0.8265  1.5097
   99OSM   C13F 9959   5.981   0.408   9.039  0.7918  0.2789 -0.6167
   99OSM   H13F 9960   6.085   0.444   9.024 -0.1629  2.8676 -1.2163
   99OSM   H13G 9961   5.928   0.486   8.982  1.2541  0.9062 -0.1958
   99OSM   C14F 9962   5.946   0.270   8.991 -0.7616  0.2655 -0.0716
   99OSM   H14F 9963   5.838   0.248   9.003 -0.7138  1.0429  1.8959
   99OSM   H14G 9964   6.001   0.200   9.056  0.1368  1.3427  0.3467
   99OSM   C15F 9965   5.974   0.237   8.841  0.8001 -0.2091  0.0347
   99OSM   H15F 9966   6.085   0.237   8.833  0.7119  1.6251 -1.6268
   99OSM   H15G 9967   5.937   0.319   8.776 -2.3343 -0.7893  0.9704
   99OSM   C16F 9968   5.924   0.099   8.793  0.5126  0.4023 -0.7559
   99OSM   H16F 9969   5.819   0.092   8.830  1.0888  1.4166  1.1444
   99OSM   H16G 9970   5.977   0.006   8.820 -0.3336  0.6403  1.8897
   99OSM   C17F 9971   5.900   0.081   8.645  0.1172 -0.2039 -0.3872
   99OSM   H17F 9972   5.822   0.147   8.602  0.5024  0.0625 -0.6864
   99OSM   H17G 9973   5.862  -0.022   8.630 -1.6457 -0.1413  3.0583
   99OSM   C18F 9974   6.023   0.112   8.560 -0.4329  0.1951  0.6453
   99OSM   H18F 9975   6.104   0.040   8.582 -0.3022 -0.2437 -1.1627
   99OSM   H18G 9976   6.063   0.213   8.585 -2.6142  0.7653  1.9428
   99OSM   H18H 9977   6.007   0.096   8.451  2.2385  0.2842  0.1938
  100OSM      N 9978   1.214   0.558  11.045 -0.3269  0.3399  0.2789
  100OSM    C15 9979   1.195   0.618  10.905 -1.2080  0.1235 -0.0382
  100OSM   H15A 9980   1.250   0.551  10.840  1.6977  2.3426  0.0252
  100OSM   H15B 9981   1.228   0.721  10.898 -1.1457  0.1016 -0.0700
  100OSM   H15C 9982   1.089   0.608  10.885 -1.1609 -0.1150 -0.1780
  100OSM    C14 9983   1.360   0.547  11.086 -0.0244 -0.2781 -0.3420
  100OSM   H14A 9984   1.406   0.643  11.068 -0.6607  0.1527  0.2964
  100OSM   H14B 9985   1.410   0.480  11.018 -0.4411 -0.3358 -0.5910
  100OSM   H14C 9986   1.371   0.509  11.187 -2.3002  1.6833  0.7037
  100OSM    C13 9987   1.153   0.651  11.140  0.3675 -0.8324 -0.5245
  100OSM   H13A 9988   1.181   0.623  11.241  0.5092  1.5367  0.1110
  100OSM   H13B 9989   1.046   0.645  11.128  0.1981  0.2270  0.4259
  100OSM   H13C 9990   1.186   0.752  11.122  0.4751 -1.1079 -1.9427
  100OSM    C12 9991   1.153   0.416  11.052  0.0258 -0.5120  0.1617
  100OSM   H12A 9992   1.185   0.378  11.148 -3.4368 -1.6260  0.9124
  100OSM   H12B 9993   1.188   0.364  10.964 -1.4944 -0.3148 -0.5583
  100OSM    C11 9994   0.995   0.408  11.047 -0.2407 -0.1392  0.0688
  100OSM   H11A 9995   0.948   0.451  11.138 -0.5278 -0.2243 -0.0386
  100OSM   H11B 9996   0.966   0.301  11.045 -1.9839  0.2704  1.4582
  100OSM      P 9997   0.833   0.560  10.914  0.0248  0.4827  0.2039
  100OSM    O13 9998   0.713   0.493  10.866  0.7550 -0.4976  0.5329
  100OSM    O14 9999   0.827   0.616  11.048  0.3765 -0.2942  0.5969
  100OSM    O1110000   0.885   0.668  10.802 -0.1300  0.5678  0.2641
  100OSM    O1210001   0.953   0.455  10.913  0.0503 -0.4987  0.0398
  100OSM    C1S10002   0.925   0.625  10.674  0.2094  0.4535  0.2312
  100OSM    H1S10003   0.865   0.538  10.640 -0.7786  0.1737  2.6602
  100OSM    H1T10004   1.031   0.592  10.674 -0.4203 -1.8570  4.1401
  100OSM     NF10005   0.996   0.700  10.448  0.1813 -0.3762  0.5149
  100OSM    HNF10006   1.086   0.736  10.424 -0.4640  0.4052 -0.7935
  100OSM    C2S10007   0.928   0.739  10.575 -0.1003 -0.0610 -0.5029
  100OSM    H2S10008   0.824   0.763  10.544 -0.6833  0.0705  1.5081
  100OSM    C3S10009   0.990   0.861  10.641 -0.1385  0.2304 -0.3385
  100OSM    H3S10010   1.091   0.836  10.680 -0.5091  1.5659  1.5554
  100OSM     O310011   0.921   0.903  10.762  0.1113  0.2213  0.7423
  100OSM    HO310012   0.882   0.822  10.795 -0.0448 -0.6918 -1.5371
  100OSM    C4S10013   1.003   0.971  10.540 -0.2015  0.1245 -0.0666
  100OSM    H4S10014   1.093   0.955  10.479  0.7759  0.5460  1.2356
  100OSM    C5S10015   0.919   1.073  10.518 -0.1314 -0.4244 -0.5798
  100OSM    H5S10016   0.824   1.079  10.572  0.5566  1.9704  0.3977
  100OSM    C6S10017   0.936   1.188  10.411  0.2438  0.0841 -0.3129
  100OSM    H6S10018   0.833   1.218  10.381 -0.1205 -0.2386  0.6043
  100OSM    H6T10019   0.989   1.143  10.324  0.5256  1.4771 -0.8727
  100OSM    C7S10020   1.006   1.320  10.445  0.8360 -0.2817 -0.4169
  100OSM    H7S10021   1.108   1.280  10.466  0.7781  0.1621  0.7401
  100OSM    H7T10022   0.949   1.369  10.526  2.7327 -0.0844  0.8187
  100OSM    C8S10023   0.997   1.428  10.327 -0.2414  0.4562 -0.1259
  100OSM    H8S10024   1.039   1.524  10.363 -2.1578  1.2063  0.1443
  100OSM    H8T10025   0.888   1.450  10.324 -0.8904 -2.5341  0.3211
  100OSM    C9S10026   1.044   1.397  10.185 -0.0074 -0.6734 -0.2419
  100OSM    H9S10027   0.996   1.305  10.146 -0.1711 -0.9729  0.6546
  100OSM    H9T10028   1.152   1.372  10.188  0.9157  2.9760 -1.1504
  100OSM   C10S10029   1.024   1.510  10.080 -0.1247  0.2783 -0.3019
  100OSM   H10S10030   1.081   1.591  10.130 -2.1411 -0.2582  3.0740
  100OSM   H10T10031   0.916   1.538  10.079 -0.4740 -0.9064  1.6506
  100OSM   C11S10032   1.082   1.485   9.945  0.2803  0.2013 -0.4591
  100OSM   H11S10033   1.189   1.458   9.962  0.6324  1.8465  0.1156
  100OSM   H11T10034   1.072   1.574   9.879  0.1869  0.4032 -0.1745
  100OSM   C12S10035   1.034   1.368   9.859 -0.5465 -0.1868  0.8818
  100OSM   H12S10036   0.926   1.381   9.836 -0.6464 -2.6354 -0.1887
  100OSM   H12T10037   1.040   1.270   9.911  0.6012 -1.2643 -1.2365
  100OSM   C13S10038   1.103   1.359   9.724 -0.4610  0.6226  0.0036
  100OSM   H13S10039   1.213   1.352   9.734 -0.0427  1.9903 -2.9197
  100OSM   H13T10040   1.071   1.443   9.657 -0.5161 -0.2478 -1.0704
  100OSM   C14S10041   1.060   1.242   9.645  0.0072 -0.5854 -0.6924
  100OSM   H14S10042   0.949   1.237   9.639 -0.0072 -0.2322 -0.7263
  100OSM   H14T10043   1.070   1.144   9.697 -0.3305  0.1056  0.7089
  100OSM   C15S10044   1.113   1.237   9.503  0.5549 -0.1320 -0.0214
  100OSM   H15S10045   1.224   1.242   9.498  0.6114  1.1598  1.7582
  100OSM   H15T10046   1.071   1.322   9.445  0.1261 -1.8124 -2.2372
  100OSM   C16S10047   1.063   1.115   9.426 -0.0959 -0.1076 -0.1317
  100OSM   H16S10048   0.952   1.119   9.426 -0.1345 -1.0843  1.3052
  100OSM   H16T10049   1.089   1.023   9.482 -2.1721  0.0136  1.0793
  100OSM   C17S10050   1.116   1.122   9.282 -0.0482  0.4279  0.0869
  100OSM   H17S10051   1.121   1.021   9.234 -1.2722  0.8954 -1.0788
  100OSM   H17T10052   1.225   1.142   9.283  0.1997 -0.8482  0.1531
  100OSM   C18S10053   1.034   1.208   9.188  0.2532  0.2468  0.2580
  100OSM   H18S10054   0.935   1.225   9.236 -0.0703 -1.3331  0.1887
  100OSM   H18T10055   1.015   1.164   9.088 -0.4653 -1.1861  1.0152
  100OSM   H18U10056   1.075   1.308   9.162 -1.5780  0.6081 -1.3873
  100OSM    C1F10057   0.946   0.615  10.358 -0.2304 -0.1348  0.5775
  100OSM     OF10058   0.837   0.563  10.385 -0.0069  0.1628  0.1046
  100OSM    C2F10059   1.026   0.591  10.234 -0.0215  0.1499 -0.1362
  100OSM    H2F10060   1.114   0.528  10.257 -0.5291 -0.4649  0.1477
  100OSM    H2G10061   1.047   0.685  10.179 -2.4781  0.4682 -0.6040
  100OSM    C3F10062   0.959   0.505  10.129 -0.3065  0.5533 -0.3112
  100OSM    H3F10063   0.862   0.539  10.087  0.1553  1.9772 -0.2438
  100OSM    H3G10064   0.921   0.418  10.187  1.0206 -0.3655 -0.8146
  100OSM    C4F10065   1.046   0.457  10.010  0.5623  0.0277 -0.1248
  100OSM    H4F10066   1.141   0.419  10.053  0.6669 -0.9649 -1.2034
  100OSM    H4G10067   1.083   0.542   9.948 -0.0171  0.8761  0.6821
  100OSM    C5F10068   0.975   0.345   9.938 -0.2641 -0.0589 -0.3279
  100OSM    H5F10069   0.879   0.377   9.891 -0.3975 -0.7013 -0.4959
  100OSM    H5G10070   0.949   0.265  10.010  0.2523 -0.0695 -0.1556
  100OSM    C6F10071   1.068   0.286   9.822  0.3797 -0.5992 -0.4275
  100OSM    H6F10072   1.161   0.250   9.871  1.6902  0.7897 -1.8401
  100OSM    H6G10073   1.106   0.367   9.756  0.8069 -1.1480 -0.8603
  100OSM    C7F10074   0.997   0.188   9.724  0.0376 -0.0410  0.0404
  100OSM    H7F10075   0.905   0.236   9.685  0.9133  1.1779 -0.5371
  100OSM    H7G10076   0.974   0.087   9.764  1.3712 -1.4352 -2.5643
  100OSM    C8F10077   1.075   0.158   9.594 -0.1604 -0.6396  0.1713
  100OSM    H8F10078   1.169   0.109   9.628 -0.1955 -0.5003  0.4717
  100OSM    H8G10079   1.112   0.246   9.538 -0.5235 -0.7322 -0.2121
  100OSM    C9F10080   1.018   0.061   9.510 -0.4317 -0.8427  0.1917
  100OSM    H9F10081   0.967  -0.015   9.571 -1.2605 -2.0921 -1.9885
  100OSM   C10F10082   0.997   0.062   9.374  0.4106  0.7678 -0.3029
  100OSM   H10F10083   0.942  -0.015   9.318  1.8625  0.5476 -1.4531
  100OSM   C11F10084   1.033   0.173   9.279  0.5117  0.5142 -0.1134
  100OSM   H11F10085   1.056   0.275   9.316 -2.4695  1.3052 -0.2541
  100OSM   H11G10086   0.947   0.194   9.211  0.0202  0.8780  0.6220
  100OSM   C12F10087   1.140   0.129   9.183 -0.2717 -0.0279 -1.0249
  100OSM   H12F10088   1.119   0.039   9.122 -0.3332 -0.0763 -0.9321
  100OSM   H12G10089   1.229   0.116   9.248 -1.9823 -0.1113  1.3735
  100OSM   C13F10090   1.190   0.243   9.093  0.3510  0.1574 -0.0624
  100OSM   H13F10091   1.285   0.205   9.049 -0.2702 -0.8501 -0.5760
  100OSM   H13G10092   1.211   0.337   9.149  0.3603  2.0324 -3.0826
  100OSM   C14F10093   1.086   0.290   8.991 -0.7106 -0.2821 -0.4114
  100OSM   H14F10094   1.014   0.358   9.041  1.1685  1.7852 -0.4293
  100OSM   H14G10095   1.029   0.208   8.943 -3.3981 -0.0546  2.2692
  100OSM   C15F10096   1.140   0.365   8.865  0.1866  0.0653 -0.1197
  100OSM   H15F10097   1.209   0.447   8.895 -1.2580  1.1580  0.2311
  100OSM   H15G10098   1.055   0.410   8.810 -0.3495  0.2527  0.8552
  100OSM   C16F10099   1.209   0.262   8.776 -0.3349 -0.6418 -0.3901
  100OSM   H16F10100   1.157   0.164   8.789  0.4781 -0.9155  0.9531
  100OSM   H16G10101   1.316   0.259   8.805 -0.4757  2.4643  0.6613
  100OSM   C17F10102   1.202   0.285   8.628  0.5049 -0.0323  0.1947
  100OSM   H17F10103   1.258   0.377   8.601  1.4319 -0.5642  0.2919
  100OSM   H17G10104   1.099   0.299   8.590 -0.0856 -3.7257  0.2765
  100OSM   C18F10105   1.281   0.174   8.555  0.2683  0.1575 -0.2277
  100OSM   H18F10106   1.386   0.160   8.588 -0.2324 -2.3922  0.3492
  100OSM   H18G10107   1.288   0.218   8.452 -0.9468  0.2172 -0.2929
  100OSM   H18H10108   1.227   0.077   8.554 -0.0631  0.2817  2.3376
  101OSM      N10109   3.501   1.520  10.927 -0.4347  0.2901 -0.5005
  101OSM    C1510110   3.567   1.599  11.037 -0.5964 -0.3854  0.3485
  101OSM   H15A10111   3.494   1.624  11.113 -2.0710  2.1102 -1.8181
  101OSM   H15B10112   3.592   1.696  10.997  0.4864  0.4893  3.0275
  101OSM   H15C10113   3.653   1.543  11.071 -0.3168 -0.1866 -0.0242
  101OSM    C1410114   3.455   1.390  10.985  0.5774  0.3737  0.4282
  101OSM   H14A10115   3.379   1.399  11.062  0.9994 -2.3503  1.2241
  101OSM   H14B10116   3.533   1.328  11.026  0.7722 -1.1188 -2.0801
  101OSM   H14C10117   3.419   1.322  10.909 -0.0596  0.9996  0.1669
  101OSM    C1310118   3.384   1.595  10.884 -1.0788 -0.0281  0.4102
  101OSM   H13A10119   3.325   1.637  10.964  0.0173 -0.2319  1.3453
  101OSM   H13B10120   3.316   1.540  10.821  1.7492 -0.6921 -2.1536
  101OSM   H13C10121   3.401   1.681  10.821 -2.4847  0.8902  1.2552
  101OSM    C1210122   3.585   1.482  10.815  0.1416 -0.7239  0.2320
  101OSM   H12A10123   3.528   1.422  10.745  0.0518 -2.4415  1.7366
  101OSM   H12B10124   3.664   1.419  10.854 -0.4442 -1.1586  0.7242
  101OSM    C1110125   3.663   1.585  10.732 -0.0715  0.0353  0.4785
  101OSM   H11A10126   3.586   1.661  10.705  0.4996  1.0567  1.6513
  101OSM   H11B10127   3.708   1.543  10.640  1.9395  1.1868  0.9112
  101OSM      P10128   3.906   1.578  10.818  0.1511  0.0191 -0.1919
  101OSM    O1310129   3.990   1.653  10.906  0.1434  0.0434 -0.0592
  101OSM    O1410130   3.892   1.433  10.848 -0.3780 -0.1681 -0.3715
  101OSM    O1110131   3.955   1.600  10.671 -0.4576 -0.1702  0.4017
  101OSM    O1210132   3.766   1.646  10.812  0.0959 -0.1421 -1.0101
  101OSM    C1S10133   3.958   1.739  10.622  0.3272  0.0966  0.2599
  101OSM    H1S10134   4.053   1.780  10.664  0.6319  1.3309 -1.5789
  101OSM    H1T10135   3.866   1.795  10.650  0.7482  0.9609 -0.0833
  101OSM     NF10136   3.963   1.893  10.435 -0.0129  0.0437  0.4238
  101OSM    HNF10137   3.875   1.927  10.403  0.4180  0.0098 -0.8226
  101OSM    C2S10138   3.973   1.750  10.470 -0.8738 -0.2880 -0.2673
  101OSM    H2S10139   4.076   1.721  10.440 -0.2325  1.9596 -0.3598
  101OSM    C3S10140   3.871   1.664  10.383 -0.1291 -0.2724 -0.4873
  101OSM    H3S10141   3.773   1.715  10.394  0.4316  0.6356  0.3381
  101OSM     O310142   3.850   1.529  10.428  0.0275 -0.2042  0.7121
  101OSM    HO310143   3.865   1.535  10.522 -0.6818 -0.6890  0.8561
  101OSM    C4S10144   3.911   1.651  10.240  0.5018  0.0990 -0.3383
  101OSM    H4S10145   3.989   1.579  10.211  2.6389  2.3394 -0.2859
  101OSM    C5S10146   3.865   1.728  10.141  0.5009  0.3184  0.5395
  101OSM    H5S10147   3.791   1.806  10.159 -0.9244 -1.1417  1.1472
  101OSM    C6S10148   3.896   1.702   9.995  0.1534  0.2170  0.4339
  101OSM    H6S10149   3.955   1.786   9.954  1.5442 -0.3291  1.2614
  101OSM    H6T10150   3.797   1.710   9.945 -0.0539 -1.0285  0.6169
  101OSM    C7S10151   3.966   1.562   9.948  0.3523 -0.1435  0.0850
  101OSM    H7S10152   3.883   1.490   9.966  1.0636 -0.7930  0.8200
  101OSM    H7T10153   4.045   1.515  10.011 -1.5307 -1.8092  1.2665
  101OSM    C8S10154   4.017   1.573   9.802 -0.0793  0.6308  0.1975
  101OSM    H8S10155   4.082   1.485   9.782  0.1453  0.4578  1.6560
  101OSM    H8T10156   4.064   1.673   9.789  0.0677  1.0590  3.5582
  101OSM    C9S10157   3.901   1.550   9.702  0.1514 -0.3674  0.1956
  101OSM    H9S10158   3.806   1.581   9.751  0.4765 -0.8343  1.1454
  101OSM    H9T10159   3.891   1.442   9.679  2.5675 -1.0006  1.9451
  101OSM   C10S10160   3.910   1.616   9.558 -0.1735  0.2383 -0.4457
  101OSM   H10S10161   3.932   1.725   9.565 -1.4439  0.5258 -0.6682
  101OSM   H10T10162   3.805   1.615   9.521 -1.2373 -0.5634  2.5059
  101OSM   C11S10163   4.020   1.565   9.469 -0.0116 -0.7880 -0.7396
  101OSM   H11S10164   4.012   1.455   9.454 -0.4099 -0.8265 -0.2543
  101OSM   H11T10165   4.117   1.562   9.524 -0.7878  0.1152  0.7068
  101OSM   C12S10166   4.031   1.645   9.340  0.3645 -0.0230  0.1674
  101OSM   H12S10167   4.063   1.748   9.368 -1.6631  0.6755 -0.0432
  101OSM   H12T10168   3.934   1.645   9.286  0.4059  1.0772  0.0719
  101OSM   C13S10169   4.127   1.578   9.236 -0.1731 -0.2683 -0.1737
  101OSM   H13S10170   4.092   1.476   9.213 -2.6370  0.3967  0.4677
  101OSM   H13T10171   4.226   1.567   9.284  0.9231  1.2904 -1.9852
  101OSM   C14S10172   4.155   1.665   9.108 -0.3916 -0.0016 -0.3741
  101OSM   H14S10173   4.257   1.636   9.073  0.0983  1.8211 -0.4928
  101OSM   H14T10174   4.158   1.771   9.141 -2.7209 -0.7994  2.7030
  101OSM   C15S10175   4.039   1.652   9.010 -0.1614 -0.3360  0.4865
  101OSM   H15S10176   3.946   1.697   9.049  0.1419 -0.1508  1.0042
  101OSM   H15T10177   4.024   1.546   8.981 -0.8957  0.2640 -1.3924
  101OSM   C16S10178   4.068   1.735   8.895 -0.1373 -0.7324 -0.6194
  101OSM   H16S10179   4.147   1.690   8.830 -0.9920  0.8434 -2.8125
  101OSM   H16T10180   4.118   1.826   8.934 -1.5581 -1.1012  2.1608
  101OSM   C17S10181   3.951   1.764   8.808  0.1355 -0.2879  0.4206
  101OSM   H17S10182   3.870   1.805   8.871  0.0602  0.8531 -0.3991
  101OSM   H17T10183   3.894   1.674   8.775  1.3466 -1.3652  1.1952
  101OSM   C18S10184   3.974   1.855   8.681  0.3023 -0.1830  0.6060
  101OSM   H18S10185   3.887   1.855   8.611  2.5389 -1.5023 -2.2616
  101OSM   H18T10186   4.067   1.825   8.629  0.0813 -1.4377  0.9304
  101OSM   H18U10187   3.992   1.961   8.710  0.6677 -0.4895  1.5143
  101OSM    C1F10188   4.054   1.986  10.472 -0.0227  0.3978 -0.1608
  101OSM     OF10189   4.160   1.962  10.531 -0.0151 -0.0508 -0.3498
  101OSM    C2F10190   4.011   2.126  10.438  0.4430 -0.0885  0.0664
  101OSM    H2F10191   4.085   2.186  10.496 -0.9516  0.7777  0.9812
  101OSM    H2G10192   3.916   2.166  10.480 -0.0890 -0.5638 -0.6789
  101OSM    C3F10193   4.005   2.159  10.288  0.0776 -0.2084  0.5999
  101OSM    H3F10194   3.975   2.266  10.275 -0.1934 -0.3521  0.0325
  101OSM    H3G10195   3.926   2.094  10.245  0.3632  1.0071 -1.8875
  101OSM    C4F10196   4.135   2.141  10.204  0.3282 -0.3636 -0.2714
  101OSM    H4F10197   4.164   2.034  10.194  0.4155 -0.5606  1.8930
  101OSM    H4G10198   4.229   2.184  10.246  0.8096  0.0371 -1.7237
  101OSM    C5F10199   4.116   2.198  10.060 -0.4267 -0.4815 -0.8871
  101OSM    H5F10200   4.103   2.308  10.069 -1.1868 -0.6790  0.5437
  101OSM    H5G10201   4.027   2.150  10.014 -1.1212  0.6165 -0.7258
  101OSM    C6F10202   4.232   2.175   9.959  0.4967  0.0701 -0.6742
  101OSM    H6F10203   4.226   2.240   9.869 -1.0903 -0.9176 -1.3021
  101OSM    H6G10204   4.324   2.194  10.018 -0.8043  1.5356  0.9274
  101OSM    C7F10205   4.241   2.028   9.918 -0.5577 -0.3268 -0.4573
  101OSM    H7F10206   4.147   1.995   9.869 -0.2404 -0.4193 -0.9992
  101OSM    H7G10207   4.242   1.980  10.018 -2.3738  2.7562  1.1397
  101OSM    C8F10208   4.363   2.002   9.830 -0.2086  0.6730 -0.0687
  101OSM    H8F10209   4.386   1.894   9.829  0.7417  0.8857 -2.2971
  101OSM    H8G10210   4.462   2.029   9.874  0.6699 -2.7621  0.2008
  101OSM    C9F10211   4.358   2.055   9.689 -0.1290 -0.1743 -0.1781
  101OSM    H9F10212   4.346   2.164   9.685 -2.3639 -0.4356 -1.7772
  101OSM   C10F10213   4.371   1.980   9.578  0.1969  0.3053 -0.6826
  101OSM   H10F10214   4.370   2.028   9.479 -1.6999  1.9692  0.0942
  101OSM   C11F10215   4.393   1.832   9.572 -0.4334  0.5295  0.8643
  101OSM   H11F10216   4.304   1.776   9.607 -1.2658  0.6207 -1.0719
  101OSM   H11G10217   4.478   1.792   9.631 -0.0772  1.3947  0.9571
  101OSM   C12F10218   4.399   1.786   9.431  0.4806 -0.2994 -1.0419
  101OSM   H12F10219   4.313   1.818   9.368  0.9576  0.7973 -1.1302
  101OSM   H12G10220   4.395   1.675   9.427 -0.9747 -0.2796 -0.4399
  101OSM   C13F10221   4.515   1.826   9.348  0.0187  0.9808 -0.0241
  101OSM   H13F10222   4.610   1.800   9.398  0.2426  0.0059 -0.9235
  101OSM   H13G10223   4.511   1.934   9.322  0.2743  1.1613  0.6846
  101OSM   C14F10224   4.512   1.759   9.208  0.0249  0.3430  0.0273
  101OSM   H14F10225   4.416   1.764   9.152  1.0882 -2.4755 -2.2014
  101OSM   H14G10226   4.537   1.653   9.230 -0.5120 -0.0953 -1.3839
  101OSM   C15F10227   4.620   1.816   9.116 -0.0665  0.0755  0.1952
  101OSM   H15F10228   4.722   1.802   9.158  0.8039  0.6736 -1.6912
  101OSM   H15G10229   4.604   1.925   9.105 -0.1206  0.0703  0.2232
  101OSM   C16F10230   4.618   1.744   8.982 -0.3116  0.0621 -0.3578
  101OSM   H16F10231   4.612   1.634   8.999 -2.2960  0.1838 -0.1082
  101OSM   H16G10232   4.716   1.767   8.935 -0.2539  0.3526 -0.0931
  101OSM   C17F10233   4.504   1.781   8.889  0.1424 -0.1008  0.3440
  101OSM   H17F10234   4.405   1.769   8.938 -0.7828 -1.2773 -1.7510
  101OSM   H17G10235   4.502   1.704   8.810  2.5064  0.2639 -0.0958
  101OSM   C18F10236   4.518   1.924   8.834 -1.0934 -0.1974  0.3099
  101OSM   H18F10237   4.528   1.994   8.919 -2.3657  0.4230 -0.0439
  101OSM   H18G10238   4.415   1.936   8.795 -1.0767 -0.8765  0.0438
  101OSM   H18H10239   4.597   1.938   8.757  0.2009  2.2708  2.0134
  102OSM      N10240   6.367   3.317  10.946  0.1454  0.3948  0.4811
  102OSM    C1510241   6.368   3.359  10.801  0.2723 -0.0796 -0.4800
  102OSM   H15A10242   6.278   3.418  10.788  0.1237 -0.0327  0.6447
  102OSM   H15B10243   6.369   3.275  10.733 -2.7875 -1.5393  1.1193
  102OSM   H15C10244   6.446   3.429  10.781 -0.6102  0.4961 -1.9451
  102OSM    C1410245   6.497   3.248  10.964  0.6718 -0.1442  0.5091
  102OSM   H14A10246   6.582   3.308  10.937  2.9551 -2.3631  2.4704
  102OSM   H14B10247   6.503   3.158  10.905 -0.7990 -1.2596  2.0095
  102OSM   H14C10248   6.515   3.234  11.070  3.3156  1.2893  0.2832
  102OSM    C1310249   6.344   3.431  11.035 -0.3689  0.2251 -0.1863
  102OSM   H13A10250   6.429   3.496  11.023 -0.5889  0.1335 -2.4379
  102OSM   H13B10251   6.342   3.402  11.140 -0.3800  3.1259  0.6512
  102OSM   H13C10252   6.255   3.488  11.011  0.1050  2.5601  3.2028
  102OSM    C1210253   6.256   3.214  10.962 -0.9954 -0.3668  0.2773
  102OSM   H12A10254   6.163   3.270  10.957 -0.3470  0.6554 -0.5781
  102OSM   H12B10255   6.276   3.171  11.059  1.4008 -1.3371 -0.6052
  102OSM    C1110256   6.250   3.095  10.869 -0.1696 -0.2177  0.3783
  102OSM   H11A10257   6.228   3.129  10.765  0.4296  2.0476  0.9660
  102OSM   H11B10258   6.154   3.046  10.896 -3.1442  5.1419  0.1482
  102OSM      P10259   6.378   2.887  10.789  0.1267  0.0039 -0.4921
  102OSM    O1310260   6.513   2.840  10.811 -0.7214 -0.1398  0.4893
  102OSM    O1410261   6.264   2.798  10.819  0.3189 -0.3191  0.3310
  102OSM    O1110262   6.368   2.951  10.646 -0.4689 -0.3429  0.3086
  102OSM    O1210263   6.364   3.009  10.881 -0.8059 -0.3610 -0.2140
  102OSM    C1S10264   6.492   2.966  10.578  0.3874 -0.3120  0.0406
  102OSM    H1S10265   6.541   2.869  10.556 -1.0259 -1.2835  1.1008
  102OSM    H1T10266   6.561   3.030  10.637 -1.4537 -0.3928  2.3308
  102OSM     NF10267   6.602   3.039  10.367  0.3425 -0.3849  0.0805
  102OSM    HNF10268   6.647   3.127  10.353  0.5861 -0.7132 -1.1739
  102OSM    C2S10269   6.472   3.033  10.439 -0.0349 -0.6767  0.0715
  102OSM    H2S10270   6.403   2.967  10.382 -0.8812 -0.6460  1.0479
  102OSM    C3S10271   6.407   3.171  10.446  0.4060 -0.2858 -0.0324
  102OSM    H3S10272   6.476   3.244  10.493 -2.2643  1.9635  0.5508
  102OSM     O310273   6.296   3.185  10.535 -0.3705 -0.7063  0.3761
  102OSM    HO310274   6.303   3.107  10.590  0.9762 -0.3283  0.7511
  102OSM    C4S10275   6.370   3.219  10.304 -0.0278  0.4761 -0.0440
  102OSM    H4S10276   6.325   3.145  10.237  0.8972  0.0620 -0.2142
  102OSM    C5S10277   6.396   3.335  10.242  0.4218 -0.3327  0.4457
  102OSM    H5S10278   6.448   3.411  10.303  1.4896 -0.6602 -0.0628
  102OSM    C6S10279   6.364   3.375  10.104  0.0325  0.0254 -1.0250
  102OSM    H6S10280   6.460   3.394  10.051  0.0409  1.9019 -0.3615
  102OSM    H6T10281   6.317   3.475  10.100 -0.3429 -0.0449  1.0161
  102OSM    C7S10282   6.280   3.278  10.022  0.3318 -0.1526  0.5655
  102OSM    H7S10283   6.200   3.242  10.090  0.7114 -1.3881  0.3683
  102OSM    H7T10284   6.353   3.201   9.990  2.9594  2.0372  1.0484
  102OSM    C8S10285   6.242   3.351   9.890  0.3308 -0.0189 -0.7286
  102OSM    H8S10286   6.331   3.407   9.854  0.1227  0.7392 -0.0807
  102OSM    H8T10287   6.165   3.425   9.922  0.8661 -0.1866  0.9458
  102OSM    C9S10288   6.174   3.259   9.784  0.0243 -0.4027 -0.4326
  102OSM    H9S10289   6.109   3.188   9.841 -1.6574 -1.4736 -3.5936
  102OSM    H9T10290   6.251   3.192   9.739 -0.9742 -1.7426 -0.1963
  102OSM   C10S10291   6.112   3.347   9.682 -0.0678  0.2571 -0.4760
  102OSM   H10S10292   6.183   3.418   9.634  0.0771  2.2402  2.4736
  102OSM   H10T10293   6.027   3.412   9.714 -0.7050 -0.6305 -0.3443
  102OSM   C11S10294   6.052   3.255   9.564 -0.1111 -0.7171 -0.2166
  102OSM   H11S10295   5.990   3.175   9.610 -2.0121 -0.0019 -1.4652
  102OSM   H11T10296   6.133   3.206   9.506  1.3983  0.3002  1.0268
  102OSM   C12S10297   5.959   3.343   9.474 -0.0448  0.1981  0.4181
  102OSM   H12S10298   5.897   3.410   9.536 -0.9751 -1.6535  1.5245
  102OSM   H12T10299   5.890   3.289   9.406  1.7121  1.0791 -2.1224
  102OSM   C13S10300   6.044   3.424   9.374  0.2670  0.1435  0.0299
  102OSM   H13S10301   6.102   3.365   9.301 -2.2168 -0.0106 -1.8954
  102OSM   H13T10302   6.121   3.486   9.425  1.3227 -0.0060 -1.3534
  102OSM   C14S10303   5.954   3.526   9.303  0.9205  0.0510 -0.4768
  102OSM   H14S10304   5.912   3.592   9.382  1.7382  1.2963 -1.0597
  102OSM   H14T10305   5.875   3.480   9.240  1.0578 -1.9062  0.7464
  102OSM   C15S10306   6.040   3.620   9.208 -0.2471  0.3022 -1.0143
  102OSM   H15S10307   6.096   3.551   9.142 -0.5469  0.6418 -1.6314
  102OSM   H15T10308   6.113   3.682   9.264 -0.1510 -0.7033 -0.0320
  102OSM   C16S10309   5.959   3.711   9.105  0.7715 -0.5512  0.2446
  102OSM   H16S10310   5.902   3.777   9.174  1.7447 -0.6367  1.1367
  102OSM   H16T10311   5.892   3.643   9.047 -1.6210  1.1665  0.9144
  102OSM   C17S10312   6.050   3.789   9.015 -0.2487 -0.1440 -0.4847
  102OSM   H17S10313   6.125   3.857   9.062 -0.4584 -1.3107  1.6181
  102OSM   H17T10314   5.984   3.855   8.955  3.0772  2.7903 -1.1171
  102OSM   C18S10315   6.134   3.707   8.921 -0.0117  0.3155  0.0662
  102OSM   H18S10316   6.064   3.634   8.874 -1.6959  2.3578 -0.6603
  102OSM   H18T10317   6.211   3.644   8.972  1.9056  1.4212 -1.3906
  102OSM   H18U10318   6.185   3.759   8.837 -0.6006 -0.8503 -1.0327
  102OSM    C1F10319   6.671   2.934  10.340 -0.1305 -0.5267 -1.6275
  102OSM     OF10320   6.621   2.822  10.323  0.0277  0.5059 -0.0950
  102OSM    C2F10321   6.820   2.963  10.325 -0.5256 -0.3776 -0.0197
  102OSM    H2F10322   6.870   2.904  10.404 -0.5697  0.2580  0.4893
  102OSM    H2G10323   6.840   3.072  10.326 -0.8130 -0.3271  0.4902
  102OSM    C3F10324   6.864   2.902  10.188 -0.3675 -0.0520 -0.4118
  102OSM    H3F10325   6.826   2.799  10.178  0.2809 -0.1051 -2.4751
  102OSM    H3G10326   6.975   2.898  10.189 -0.3450  0.0151  3.3601
  102OSM    C4F10327   6.825   2.985  10.066 -0.4309  0.5770  0.5237
  102OSM    H4F10328   6.893   3.073  10.062  0.0758  0.1184 -1.2658
  102OSM    H4G10329   6.719   3.016  10.075 -1.2002 -2.0261  0.7528
  102OSM    C5F10330   6.855   2.899   9.943 -0.5362  0.7574 -0.4731
  102OSM    H5F10331   6.784   2.814   9.945  0.2166  0.0325 -2.7268
  102OSM    H5G10332   6.963   2.870   9.946 -0.3775  1.4089  0.2524
  102OSM    C6F10333   6.819   2.984   9.818  0.4488 -0.5150 -0.0450
  102OSM    H6F10334   6.860   3.087   9.828 -0.1755 -0.2513 -0.2168
  102OSM    H6G10335   6.710   2.990   9.797 -0.3229  0.0187  3.7795
  102OSM    C7F10336   6.898   2.929   9.695  0.2792  0.1407 -0.2702
  102OSM    H7F10337   6.898   2.818   9.704 -1.3336  0.0849 -0.8154
  102OSM    H7G10338   7.002   2.964   9.715 -0.0746  0.5035  0.9378
  102OSM    C8F10339   6.856   2.965   9.547  0.1545  0.2603 -0.4420
  102OSM    H8F10340   6.839   3.075   9.545 -0.5821  0.2040  1.4044
  102OSM    H8G10341   6.759   2.918   9.523 -0.6681  2.9788 -2.7335
  102OSM    C9F10342   6.964   2.939   9.446  0.3525  0.1131 -0.1457
  102OSM    H9F10343   7.064   2.968   9.482  0.3623  0.3846 -0.3889
  102OSM   C10F10344   6.943   2.901   9.322 -0.0917 -0.7158 -0.4052
  102OSM   H10F10345   7.032   2.877   9.263  1.2115  1.6686  0.5323
  102OSM   C11F10346   6.811   2.888   9.245 -0.8016  0.2338  0.4187
  102OSM   H11F10347   6.723   2.933   9.296 -0.6477 -0.2552  1.1367
  102OSM   H11G10348   6.793   2.778   9.239 -0.1159  0.1376  0.0392
  102OSM   C12F10349   6.828   2.933   9.102  0.1056 -0.3235 -0.4222
  102OSM   H12F10350   6.902   2.866   9.056  1.8714 -0.1552  2.0504
  102OSM   H12G10351   6.872   3.035   9.096 -0.4294 -0.0774 -0.2040
  102OSM   C13F10352   6.703   2.938   9.012  0.0377  0.6529  0.1702
  102OSM   H13F10353   6.740   2.986   8.919 -0.1064 -1.1560 -0.8603
  102OSM   H13G10354   6.624   3.008   9.047 -0.5520  0.0421  0.0832
  102OSM   C14F10355   6.643   2.800   8.975 -0.2854  0.5378 -0.4194
  102OSM   H14F10356   6.592   2.758   9.064  1.3727 -2.7928 -0.9348
  102OSM   H14G10357   6.725   2.738   8.932 -0.3299 -0.5909  1.0795
  102OSM   C15F10358   6.542   2.823   8.862  0.7461  0.6132 -0.4394
  102OSM   H15F10359   6.495   2.730   8.824  0.1106  1.0458 -0.7228
  102OSM   H15G10360   6.592   2.865   8.772  0.7146  1.2167 -0.1755
  102OSM   C16F10361   6.412   2.899   8.904  0.1466 -0.3595  0.5323
  102OSM   H16F10362   6.432   3.002   8.941 -1.0896  0.4224 -0.9111
  102OSM   H16G10363   6.358   2.842   8.982  1.4719 -0.4591  1.3900
  102OSM   C17F10364   6.301   2.903   8.792 -0.8234  0.5761 -0.1749
  102OSM   H17F10365   6.214   2.925   8.857  0.2109 -0.3598  1.5838
  102OSM   H17G10366   6.282   2.805   8.745 -2.8299  0.0101  1.7757
  102OSM   C18F10367   6.320   3.002   8.682  0.1625 -0.3646 -0.6553
  102OSM   H18F10368   6.357   3.100   8.719  1.5737 -1.0324 -0.2735
  102OSM   H18G10369   6.226   3.016   8.625 -0.0016  1.5806  0.0771
  102OSM   H18H10370   6.400   2.962   8.617  1.7584  0.1853  0.9159
  103OSM      N10371   5.591   6.619  11.001  0.1184  0.2035 -0.3303
  103OSM    C1510372   5.723   6.590  11.066 -0.8418 -0.3157 -0.1983
  103OSM   H15A10373   5.719   6.517  11.145 -1.3951 -0.5244 -0.4192
  103OSM   H15B10374   5.763   6.681  11.109 -0.5715  0.0830 -1.2640
  103OSM   H15C10375   5.784   6.538  10.993  0.2482 -0.9416  1.1489
  103OSM    C1410376   5.538   6.488  10.962 -0.2787  0.3571 -0.0841
  103OSM   H14A10377   5.434   6.509  10.941 -1.1545 -0.2454  3.3554
  103OSM   H14B10378   5.556   6.408  11.031  2.8962  0.1429 -1.0874
  103OSM   H14C10379   5.590   6.453  10.874  2.1679 -1.5992  2.1120
  103OSM    C1310380   5.496   6.682  11.089  0.3668  0.7459 -0.2681
  103OSM   H13A10381   5.415   6.719  11.029 -1.3483 -0.4632  1.2661
  103OSM   H13B10382   5.535   6.768  11.142 -1.6498  1.3473  0.2606
  103OSM   H13C10383   5.441   6.615  11.153 -1.8210  1.6514 -1.1543
  103OSM    C1210384   5.609   6.717  10.877 -0.1850  0.7960  0.5705
  103OSM   H12A10385   5.695   6.692  10.817  0.3640  0.3994  1.5142
  103OSM   H12B10386   5.636   6.818  10.902  0.4516  0.4438  1.3167
  103OSM    C1110387   5.498   6.727  10.780  0.5117  0.5995  0.2437
  103OSM   H11A10388   5.482   6.621  10.751 -1.1735 -0.1080  3.5048
  103OSM   H11B10389   5.510   6.782  10.685  0.4485  1.4166  0.7049
  103OSM      P10390   5.232   6.764  10.792 -0.1854  0.1203  0.3237
  103OSM    O1310391   5.180   6.639  10.847  0.0232 -0.4092 -0.3513
  103OSM    O1410392   5.149   6.887  10.811 -0.0884  0.0680 -0.6794
  103OSM    O1110393   5.240   6.749  10.637  0.2142 -0.1567 -0.4690
  103OSM    O1210394   5.383   6.780  10.848 -0.2121 -0.4966 -0.2977
  103OSM    C1S10395   5.266   6.854  10.541  0.6277 -0.0650 -0.0897
  103OSM    H1S10396   5.373   6.841  10.514 -0.1317 -0.4034 -3.1774
  103OSM    H1T10397   5.255   6.961  10.568  0.1400  0.0419 -0.7086
  103OSM     NF10398   5.229   6.933  10.306  0.4584  0.7271 -0.2764
  103OSM    HNF10399   5.201   7.028  10.310 -0.1879  0.4867  1.0192
  103OSM    C2S10400   5.182   6.831  10.405  0.4469  0.3251  0.2507
  103OSM    H2S10401   5.203   6.728  10.369 -0.3453  1.2382 -2.9869
  103OSM    C3S10402   5.034   6.846  10.435 -0.4965 -1.0319  0.5870
  103OSM    H3S10403   5.019   6.947  10.479 -0.5831 -0.3960 -0.8966
  103OSM     O310404   4.992   6.752  10.534  0.2928 -0.6751  0.3935
  103OSM    HO310405   5.076   6.725  10.572  1.1991 -2.2507 -2.5339
  103OSM    C4S10406   4.944   6.820  10.318 -0.0870 -0.3185  0.1390
  103OSM    H4S10407   4.942   6.716  10.281  3.1054 -0.5807  0.5374
  103OSM    C5S10408   4.858   6.905  10.260  0.4254 -0.1119 -0.3892
  103OSM    H5S10409   4.829   7.001  10.304 -1.1604 -0.3594 -0.8195
  103OSM    C6S10410   4.762   6.859  10.150  0.0528  0.4838 -0.7630
  103OSM    H6S10411   4.663   6.877  10.198 -0.1663  0.8134 -1.3370
  103OSM    H6T10412   4.778   6.751  10.128 -4.2132 -1.0210  2.5717
  103OSM    C7S10413   4.774   6.945  10.024 -0.3583 -0.7573 -0.0732
  103OSM    H7S10414   4.878   6.949   9.985 -0.5612  0.0466 -0.5382
  103OSM    H7T10415   4.741   7.048  10.049 -0.2744 -0.3486 -1.5867
  103OSM    C8S10416   4.698   6.900   9.901  0.3746  0.0493 -0.1230
  103OSM    H8S10417   4.705   6.989   9.834 -1.2934  1.1480  1.0919
  103OSM    H8T10418   4.592   6.878   9.929  0.6478 -0.7544  0.2858
  103OSM    C9S10419   4.758   6.786   9.821  0.7263  0.0228  0.1504
  103OSM    H9S10420   4.746   6.701   9.891 -0.9310 -1.2222 -1.5904
  103OSM    H9T10421   4.864   6.814   9.801  0.4858  0.6193 -0.3001
  103OSM   C10S10422   4.687   6.755   9.685 -0.6234 -0.4534 -0.2309
  103OSM   H10S10423   4.686   6.855   9.637  1.4329 -0.1208  0.3676
  103OSM   H10T10424   4.580   6.730   9.698 -0.3466 -0.4499  2.2902
  103OSM   C11S10425   4.746   6.650   9.600  0.5575 -0.3915 -0.2177
  103OSM   H11S10426   4.745   6.566   9.672 -2.0297  1.0439  1.5272
  103OSM   H11T10427   4.848   6.681   9.570  0.4841 -0.0620 -0.1364
  103OSM   C12S10428   4.653   6.619   9.480  0.1265  0.3606  0.6450
  103OSM   H12S10429   4.631   6.712   9.423 -2.6871 -0.9739 -0.5550
  103OSM   H12T10430   4.554   6.591   9.523 -0.3873 -0.7469 -1.2076
  103OSM   C13S10431   4.710   6.508   9.393 -0.3431 -0.3471 -0.2394
  103OSM   H13S10432   4.629   6.437   9.366  0.3329 -0.7533 -1.2074
  103OSM   H13T10433   4.780   6.444   9.451 -0.2053  0.8542  0.9446
  103OSM   C14S10434   4.765   6.559   9.257  0.2183 -0.3200  0.1469
  103OSM   H14S10435   4.852   6.626   9.273 -0.6812  1.0264 -0.5436
  103OSM   H14T10436   4.689   6.623   9.208  1.4822  0.1363 -1.2477
  103OSM   C15S10437   4.782   6.447   9.159 -0.3416 -0.7054  0.0990
  103OSM   H15S10438   4.696   6.378   9.167 -1.3635  0.6856  1.7797
  103OSM   H15T10439   4.876   6.387   9.163 -0.9224 -1.7874 -1.9795
  103OSM   C16S10440   4.793   6.510   9.016  0.3692  0.8541 -0.3008
  103OSM   H16S10441   4.699   6.563   8.987 -0.6637 -0.8137 -0.0607
  103OSM   H16T10442   4.813   6.423   8.951 -1.0282 -1.7534  2.6321
  103OSM   C17S10443   4.905   6.607   8.989  0.4746 -0.2571 -0.6327
  103OSM   H17S10444   5.000   6.571   9.033 -1.1306 -2.2297  1.3303
  103OSM   H17T10445   4.878   6.695   9.051 -0.9821 -0.8170 -0.4398
  103OSM   C18S10446   4.901   6.653   8.846 -0.7905  0.2358  0.3484
  103OSM   H18S10447   4.805   6.704   8.826 -0.1471  1.4178  0.2409
  103OSM   H18T10448   4.913   6.563   8.782  2.4718  1.3385 -0.7176
  103OSM   H18U10449   4.977   6.729   8.816 -1.8619  0.5897 -1.5339
  103OSM    C1F10450   5.342   6.908  10.238  0.4380 -0.0913 -0.5195
  103OSM     OF10451   5.392   6.797  10.239 -0.1306  0.0709 -0.7820
  103OSM    C2F10452   5.399   7.017  10.165 -0.0599 -0.4991 -0.3756
  103OSM    H2F10453   5.484   6.977  10.106  0.6772 -0.2184  0.4904
  103OSM    H2G10454   5.437   7.089  10.240 -1.2831  0.6137 -0.7952
  103OSM    C3F10455   5.318   7.112  10.077  0.2086 -0.1447  0.2262
  103OSM    H3F10456   5.387   7.193  10.045 -0.4749  0.0150 -0.8925
  103OSM    H3G10457   5.239   7.163  10.136  1.4958  1.6662  0.3966
  103OSM    C4F10458   5.271   7.049   9.944  0.5685 -0.6932  0.4817
  103OSM    H4F10459   5.188   6.976   9.956 -0.9897  1.1049  0.9280
  103OSM    H4G10460   5.353   7.002   9.886  1.4556 -1.1520  2.0765
  103OSM    C5F10461   5.218   7.158   9.845 -0.3808  0.8700  0.7382
  103OSM    H5F10462   5.293   7.239   9.834  1.3025 -0.9800 -1.8990
  103OSM    H5G10463   5.136   7.207   9.901  0.3523 -0.0514  2.6465
  103OSM    C6F10464   5.175   7.100   9.711  0.6835  0.5218  0.4285
  103OSM    H6F10465   5.257   7.041   9.665  2.2228  3.2674 -0.5097
  103OSM    H6G10466   5.148   7.186   9.646 -0.5500 -1.2677 -1.4857
  103OSM    C7F10467   5.054   7.014   9.727  0.5550 -0.6833 -0.0551
  103OSM    H7F10468   4.971   7.053   9.790  1.2755 -0.3365  0.6825
  103OSM    H7G10469   5.076   6.915   9.773 -1.0040 -1.3105 -0.6259
  103OSM    C8F10470   5.009   6.962   9.590  0.4334 -0.1248  0.4103
  103OSM    H8F10471   4.960   6.863   9.605  1.0558 -0.6236 -0.8268
  103OSM    H8G10472   5.102   6.937   9.536 -0.0912  1.8752 -1.4917
  103OSM    C9F10473   4.932   7.051   9.497  0.3127  0.5295 -0.3640
  103OSM    H9F10474   4.930   7.154   9.535  1.3917  0.0900  0.9510
  103OSM   C10F10475   4.898   7.031   9.369  0.4079  0.3051 -0.5643
  103OSM   H10F10476   4.830   7.101   9.318 -1.8153 -1.6582 -0.3732
  103OSM   C11F10477   4.925   6.897   9.297  0.3243  0.1626 -0.0666
  103OSM   H11F10478   4.830   6.849   9.266  1.6828 -2.8225  0.2849
  103OSM   H11G10479   4.973   6.823   9.364 -1.3103 -1.9610 -1.1888
  103OSM   C12F10480   5.024   6.919   9.185 -0.1631  0.4475  0.5324
  103OSM   H12F10481   5.063   6.822   9.147 -2.0300  0.2326 -0.8794
  103OSM   H12G10482   5.116   6.973   9.214  0.9533 -0.7957 -0.6000
  103OSM   C13F10483   4.966   6.981   9.055 -0.0510  0.3123 -0.1030
  103OSM   H13F10484   4.888   7.055   9.080  1.8450  1.6590  1.9960
  103OSM   H13G10485   4.924   6.903   8.987  2.8038 -0.5051 -1.0028
  103OSM   C14F10486   5.082   7.048   8.974 -0.1605 -0.0352  0.1723
  103OSM   H14F10487   5.138   6.961   8.935 -1.2590 -1.7303  2.3030
  103OSM   H14G10488   5.156   7.104   9.036  1.0360 -2.6719  1.1800
  103OSM   C15F10489   5.036   7.124   8.849  0.4250 -0.2842 -0.0063
  103OSM   H15F10490   4.964   7.204   8.876 -0.6991 -0.4018 -2.5049
  103OSM   H15G10491   4.979   7.044   8.799  0.2410 -1.4188  1.9858
  103OSM   C16F10492   5.157   7.191   8.779 -0.2137 -0.2687  0.5278
  103OSM   H16F10493   5.231   7.111   8.758  0.1148 -0.3318  1.8733
  103OSM   H16G10494   5.201   7.268   8.845  0.2526 -0.8152  0.8571
  103OSM   C17F10495   5.110   7.245   8.641  0.7258  0.9869  0.0176
  103OSM   H17F10496   5.046   7.333   8.662 -2.3722 -1.3351  0.6266
  103OSM   H17G10497   5.041   7.174   8.591 -0.2603 -0.2906  3.0694
  103OSM   C18F10498   5.224   7.297   8.547  0.3907 -0.2976  0.4501
  103OSM   H18F10499   5.168   7.329   8.457  1.4443  0.9760  0.2229
  103OSM   H18G10500   5.285   7.209   8.517  1.0213  0.0428  0.7112
  103OSM   H18H10501   5.282   7.377   8.598  1.0032 -2.4548  3.3156
  104OSM      N10502   6.552   5.174  10.932  0.0778 -0.8199 -0.4786
  104OSM    C1510503   6.529   5.028  10.924 -0.1495 -0.3611  0.2307
  104OSM   H15A10504   6.583   4.968  10.996 -1.0529 -1.5175 -0.0536
  104OSM   H15B10505   6.542   4.993  10.823  2.6129  0.6578  0.1734
  104OSM   H15C10506   6.427   5.002  10.946  0.0709  0.0817  1.8948
  104OSM    C1410507   6.462   5.249  10.840  0.0520  0.2474 -0.2293
  104OSM   H14A10508   6.455   5.208  10.740 -0.5887  0.3937 -0.2495
  104OSM   H14B10509   6.487   5.354  10.836  1.4952 -0.1249 -1.4758
  104OSM   H14C10510   6.359   5.231  10.868 -0.2935  0.6495 -1.2160
  104OSM    C1310511   6.522   5.219  11.077  0.5030 -0.0928  0.1569
  104OSM   H13A10512   6.431   5.174  11.115  0.7822 -1.7153 -1.0356
  104OSM   H13B10513   6.502   5.325  11.085  1.6415  0.2984 -2.0820
  104OSM   H13C10514   6.604   5.199  11.144 -0.0653  0.7975  1.1306
  104OSM    C1210515   6.702   5.204  10.904  0.4972 -0.4978  0.3859
  104OSM   H12A10516   6.743   5.127  10.840  1.2913 -1.3432  1.8972
  104OSM   H12B10517   6.755   5.202  10.998  0.1312  0.8071  0.6353
  104OSM    C1110518   6.730   5.336  10.844  0.4954 -0.5616 -0.5772
  104OSM   H11A10519   6.683   5.332  10.743 -1.1837 -2.3001  0.2263
  104OSM   H11B10520   6.839   5.348  10.829  0.3716  0.3926 -0.7229
  104OSM      P10521   6.623   5.579  10.876 -0.3019  0.3866  0.4928
  104OSM    O1310522   6.473   5.582  10.889  0.0967 -0.1981 -0.2136
  104OSM    O1410523   6.701   5.687  10.936  0.0121 -0.4480  0.1431
  104OSM    O1110524   6.666   5.568  10.730  0.0876 -0.1447 -0.4102
  104OSM    O1210525   6.687   5.441  10.940 -0.1009  0.6059  0.5728
  104OSM    C1S10526   6.593   5.635  10.629  0.5241  0.4207 -0.2736
  104OSM    H1S10527   6.524   5.715  10.662  0.8020  0.4733  0.1874
  104OSM    H1T10528   6.524   5.557  10.588  1.2205 -0.7903  0.7953
  104OSM     NF10529   6.590   5.741  10.413  0.5419 -0.6558  0.3128
  104OSM    HNF10530   6.576   5.692  10.327 -0.9294 -0.5985  0.4964
  104OSM    C2S10531   6.679   5.688  10.510  0.1071 -0.0677  0.3135
  104OSM    H2S10532   6.743   5.767  10.555  0.1178  0.4641 -0.6277
  104OSM    C3S10533   6.776   5.581  10.450 -0.3192  0.2714 -0.3637
  104OSM    H3S10534   6.712   5.501  10.408 -1.3136  1.1469 -0.5463
  104OSM     O310535   6.847   5.513  10.552 -0.1391  0.0423 -0.3921
  104OSM    HO310536   6.790   5.515  10.630  2.0471  1.7211  1.2186
  104OSM    C4S10537   6.865   5.635  10.349 -0.5587 -0.6605  0.6441
  104OSM    H4S10538   6.822   5.627  10.248 -0.4124  1.9741  0.3166
  104OSM    C5S10539   6.994   5.672  10.362 -0.2601 -0.7152 -0.4797
  104OSM    H5S10540   7.047   5.629  10.449 -0.1512 -2.7887 -1.5328
  104OSM    C6S10541   7.080   5.718  10.245  0.8548 -0.0118  0.2484
  104OSM    H6S10542   7.112   5.627  10.190 -0.9208 -0.0665 -0.7410
  104OSM    H6T10543   7.173   5.774  10.267 -0.2417  2.7170 -1.7941
  104OSM    C7S10544   7.007   5.800  10.135  0.3160 -1.0328  0.3446
  104OSM    H7S10545   6.975   5.896  10.179 -1.5023 -1.4493 -0.0123
  104OSM    H7T10546   6.910   5.765  10.092  0.3153  0.6104 -1.0254
  104OSM    C8S10547   7.096   5.830  10.010  0.5088 -0.2865  0.8254
  104OSM    H8S10548   7.204   5.841  10.035  0.2968 -0.2435  1.7545
  104OSM    H8T10549   7.066   5.934   9.987 -0.8673 -0.5078  1.5222
  104OSM    C9S10550   7.089   5.723   9.903 -0.8522 -0.1068  0.5313
  104OSM    H9S10551   7.109   5.629   9.958 -0.3678  0.1638  0.8184
  104OSM    H9T10552   7.173   5.739   9.832 -1.2133 -1.7438 -0.2882
  104OSM   C10S10553   6.956   5.706   9.823 -0.2383 -0.1452  0.4132
  104OSM   H10S10554   6.910   5.798   9.779  0.2308 -1.1594 -2.3116
  104OSM   H10T10555   6.870   5.683   9.888 -1.6419 -1.1072 -1.7073
  104OSM   C11S10556   6.966   5.607   9.704 -0.2677  0.0389  0.4486
  104OSM   H11S10557   6.871   5.569   9.660  0.6572 -1.5296 -0.2654
  104OSM   H11T10558   7.020   5.519   9.747 -1.2499 -1.9090 -2.1343
  104OSM   C12S10559   7.052   5.669   9.590  0.2929  0.5860 -0.2276
  104OSM   H12S10560   7.158   5.685   9.623 -0.1435  1.0061  1.0281
  104OSM   H12T10561   7.017   5.772   9.566  2.6956  2.0141  2.0420
  104OSM   C13S10562   7.073   5.581   9.466  1.0428 -0.1966 -0.2314
  104OSM   H13S10563   7.107   5.479   9.494  0.1414 -0.4786 -0.1454
  104OSM   H13T10564   7.157   5.622   9.406  0.8056 -0.7449 -0.9477
  104OSM   C14S10565   6.956   5.583   9.366 -0.3891  0.0352  0.7164
  104OSM   H14S10566   6.946   5.682   9.317 -2.3353 -0.3330  0.3567
  104OSM   H14T10567   6.867   5.560   9.429 -1.2777  0.4281 -0.3915
  104OSM   C15S10568   6.974   5.482   9.253 -0.6928 -0.0347 -0.0084
  104OSM   H15S10569   7.021   5.390   9.293  1.0471  1.0047  0.4202
  104OSM   H15T10570   7.033   5.523   9.169 -0.0663 -0.3087  0.2906
  104OSM   C16S10571   6.838   5.450   9.178 -0.0173 -0.0868 -0.1538
  104OSM   H16S10572   6.791   5.547   9.148  1.2554  0.3705 -0.6913
  104OSM   H16T10573   6.771   5.402   9.252  0.9614  0.0188  0.7962
  104OSM   C17S10574   6.860   5.365   9.053 -0.7654 -0.0082 -0.1658
  104OSM   H17S10575   6.908   5.267   9.073 -0.2407  0.0812 -0.9823
  104OSM   H17T10576   6.930   5.428   8.994 -0.0611 -0.0680  0.5943
  104OSM   C18S10577   6.742   5.336   8.970 -0.2588  0.0947  0.4570
  104OSM   H18S10578   6.704   5.235   8.997  1.4131 -0.9361 -0.9597
  104OSM   H18T10579   6.769   5.329   8.863  1.2271  1.2103  0.7386
  104OSM   H18U10580   6.659   5.405   8.998  1.9603  2.6769  0.8625
  104OSM    C1F10581   6.521   5.856  10.421 -0.2331 -0.1037  0.9419
  104OSM     OF10582   6.528   5.928  10.519  0.1614 -0.2706 -0.1398
  104OSM    C2F10583   6.429   5.889  10.298  0.6409  0.1496 -0.3005
  104OSM    H2F10584   6.350   5.811  10.299  1.4026 -0.6425  1.8963
  104OSM    H2G10585   6.490   5.885  10.205  0.1825  0.5534 -0.6207
  104OSM    C3F10586   6.378   6.030  10.320  0.0282 -1.1181  0.0537
  104OSM    H3F10587   6.444   6.105  10.368  0.0087 -0.1918 -1.3606
  104OSM    H3G10588   6.295   6.011  10.392 -2.4825  0.5005 -2.2770
  104OSM    C4F10589   6.314   6.084  10.196 -0.5646  1.1566  0.2324
  104OSM    H4F10590   6.234   6.156  10.221 -0.5718  1.3038 -0.2176
  104OSM    H4G10591   6.268   5.991  10.156 -0.7561  1.2382  0.2631
  104OSM    C5F10592   6.412   6.135  10.089 -0.0158  0.5837  0.2392
  104OSM    H5F10593   6.467   6.041  10.065  0.1658  0.2169  2.0172
  104OSM    H5G10594   6.491   6.202  10.129 -0.3991  0.4639  1.2236
  104OSM    C6F10595   6.338   6.196   9.969 -0.2843 -0.0724 -0.1478
  104OSM    H6F10596   6.295   6.296   9.991  1.0151  0.4624 -0.0261
  104OSM    H6G10597   6.256   6.124   9.948  0.1025  0.1657 -2.5973
  104OSM    C7F10598   6.426   6.186   9.848 -0.3210 -0.5544  0.4844
  104OSM    H7F10599   6.460   6.080   9.842  0.1837 -0.5796  2.9492
  104OSM    H7G10600   6.510   6.259   9.840 -1.1226 -0.0175 -4.5296
  104OSM    C8F10601   6.343   6.232   9.731 -0.6959  0.1895  0.6426
  104OSM    H8F10602   6.318   6.339   9.745 -0.9116 -0.1882  3.3932
  104OSM    H8G10603   6.245   6.178   9.733 -0.2499 -0.6136  1.4022
  104OSM    C9F10604   6.428   6.231   9.606  0.0839 -0.0041  0.7461
  104OSM    H9F10605   6.522   6.285   9.621 -1.7908  3.7522 -0.1956
  104OSM   C10F10606   6.395   6.170   9.493  0.6088 -0.1711  0.1453
  104OSM   H10F10607   6.465   6.172   9.408  0.5231 -0.4803  0.0656
  104OSM   C11F10608   6.271   6.083   9.468 -0.2668  0.2281 -0.5157
  104OSM   H11F10609   6.229   6.045   9.564  2.9448 -0.3386  0.7366
  104OSM   H11G10610   6.297   5.996   9.404 -2.1387  0.0028 -0.9905
  104OSM   C12F10611   6.166   6.168   9.388  0.8719  0.3631 -0.2392
  104OSM   H12F10612   6.153   6.266   9.438 -2.3289  0.2752 -0.8133
  104OSM   H12G10613   6.063   6.126   9.382  0.0148  1.8634  3.0639
  104OSM   C13F10614   6.213   6.195   9.250  0.4642 -0.2719 -0.2469
  104OSM   H13F10615   6.314   6.243   9.254 -1.4290  3.9316 -0.6833
  104OSM   H13G10616   6.148   6.278   9.215 -0.0050  0.5831  2.5347
  104OSM   C14F10617   6.205   6.080   9.151 -0.0480  0.1553 -0.4072
  104OSM   H14F10618   6.100   6.044   9.161 -0.4787  2.0628  2.3958
  104OSM   H14G10619   6.280   6.007   9.187 -1.0265  0.3997  2.2038
  104OSM   C15F10620   6.237   6.122   9.010 -0.2253  0.4819 -0.4406
  104OSM   H15F10621   6.213   6.039   8.940 -1.1360  0.0953  0.3255
  104OSM   H15G10622   6.348   6.124   9.004  0.0289 -2.5984  1.9940
  104OSM   C16F10623   6.167   6.251   8.954  0.0613 -0.1700 -0.1952
  104OSM   H16F10624   6.197   6.263   8.848  1.1819 -0.1487  0.1166
  104OSM   H16G10625   6.202   6.341   9.010 -0.7679  0.1189 -0.1397
  104OSM   C17F10626   6.015   6.243   8.964  0.2642  0.0223  0.4666
  104OSM   H17F10627   5.987   6.230   9.071 -0.5551  1.2271  0.4030
  104OSM   H17G10628   5.982   6.154   8.906 -0.5016  0.8237 -0.3349
  104OSM   C18F10629   5.939   6.373   8.915  0.1796 -0.0401  0.0919
  104OSM   H18F10630   5.959   6.380   8.806  1.9258 -1.2302  0.3119
  104OSM   H18G10631   5.973   6.465   8.967  0.2680  0.1398 -0.2871
  104OSM   H18H10632   5.830   6.357   8.925  0.2761 -0.8992 -0.2123
  105OSM      N10633   2.879   2.315  11.005 -0.8820 -0.2371 -0.0625
  105OSM    C1510634   2.764   2.258  11.085  0.1728 -0.4785 -0.4187
  105OSM   H15A10635   2.678   2.233  11.024  0.1040 -0.5621 -0.2848
  105OSM   H15B10636   2.734   2.321  11.167 -1.0835  0.5319 -1.6207
  105OSM   H15C10637   2.781   2.165  11.137 -1.8766 -0.3801  0.4417
  105OSM    C1410638   2.836   2.443  10.939 -0.0095  0.1316  0.0625
  105OSM   H14A10639   2.824   2.513  11.021 -1.3905  2.3942 -2.0128
  105OSM   H14B10640   2.743   2.430  10.886 -1.1209  1.2073  1.7093
  105OSM   H14C10641   2.910   2.489  10.875 -0.4141 -1.4022 -1.5617
  105OSM    C1310642   2.987   2.358  11.107  0.4387  0.3881 -0.2628
  105OSM   H13A10643   2.949   2.412  11.192  0.0488 -2.5561  1.5274
  105OSM   H13B10644   3.064   2.417  11.059 -0.9918  2.0838 -0.5081
  105OSM   H13C10645   3.030   2.269  11.151 -0.0713 -0.6820 -1.9060
  105OSM    C1210646   2.944   2.224  10.905 -0.4600  0.2701  0.2261
  105OSM   H12A10647   2.989   2.139  10.956 -0.4459 -0.6237 -1.2475
  105OSM   H12B10648   3.026   2.274  10.855  0.7457 -1.7746  0.0831
  105OSM    C1110649   2.847   2.168  10.789 -0.3457  0.0397 -0.3171
  105OSM   H11A10650   2.909   2.115  10.713 -0.0487  0.3436 -0.2879
  105OSM   H11B10651   2.798   2.254  10.740 -2.4664 -0.7250  0.3996
  105OSM      P10652   2.735   1.926  10.845  0.6213 -0.5894 -0.1129
  105OSM    O1310653   2.860   1.889  10.909  0.1239  0.2622  0.5151
  105OSM    O1410654   2.612   1.869  10.900 -0.3031 -0.1349  0.3114
  105OSM    O1110655   2.748   1.884  10.693 -0.0189  0.5447 -0.3670
  105OSM    O1210656   2.733   2.087  10.840 -0.1380  0.3595 -0.2188
  105OSM    C1S10657   2.680   1.942  10.587 -0.0800 -0.3294  0.2134
  105OSM    H1S10658   2.658   2.049  10.604 -0.9521 -0.9137  3.2707
  105OSM    H1T10659   2.578   1.900  10.574 -0.3127  0.4848 -0.6148
  105OSM     NF10660   2.672   1.990  10.347 -0.7255 -0.7207 -0.0464
  105OSM    HNF10661   2.624   1.925  10.289  3.1357 -2.8126 -1.0677
  105OSM    C2S10662   2.751   1.928  10.453  0.5942  0.6070  0.6076
  105OSM    H2S10663   2.848   1.982  10.464  0.0886  1.6620  0.0202
  105OSM    C3S10664   2.770   1.774  10.430  0.2545 -1.1869  0.1031
  105OSM    H3S10665   2.674   1.720  10.418 -1.6477  1.9326  0.7992
  105OSM     O310666   2.840   1.707  10.534 -0.4478 -0.1844  0.2539
  105OSM    HO310667   2.815   1.761  10.609 -0.2993  3.4348 -2.1619
  105OSM    C4S10668   2.834   1.752  10.292  0.0351  0.0717  0.1321
  105OSM    H4S10669   2.761   1.722  10.215 -0.1788 -3.9144  1.7894
  105OSM    C5S10670   2.965   1.749  10.258  0.2782 -0.4715 -0.4816
  105OSM    H5S10671   3.046   1.772  10.329  2.2052 -2.4509 -1.9679
  105OSM    C6S10672   3.021   1.721  10.117  0.0561  0.1723 -1.0055
  105OSM    H6S10673   3.119   1.669  10.125  0.8517  1.8355  0.2348
  105OSM    H6T10674   3.050   1.817  10.070 -0.9994  0.3153 -1.3661
  105OSM    C7S10675   2.928   1.659  10.016 -0.3381  0.0426 -0.4979
  105OSM    H7S10676   2.834   1.717  10.005 -0.6924 -0.6610 -1.2798
  105OSM    H7T10677   2.901   1.553  10.034 -2.4123 -0.0733 -3.8996
  105OSM    C8S10678   2.996   1.667   9.874  0.6261  0.0857 -0.2949
  105OSM    H8S10679   3.074   1.588   9.878 -0.5419 -0.9780  1.7053
  105OSM    H8T10680   3.040   1.768   9.855  0.2466  0.5233  1.1217
  105OSM    C9S10681   2.909   1.634   9.753  0.1405 -0.3174  0.5209
  105OSM    H9S10682   2.838   1.719   9.738 -0.4400 -0.8851  0.0698
  105OSM    H9T10683   2.840   1.549   9.773  0.6067 -0.5155  1.2839
  105OSM   C10S10684   2.986   1.617   9.620  0.2550 -0.2708 -0.5169
  105OSM   H10S10685   3.047   1.526   9.640  1.3593  0.4095 -0.7428
  105OSM   H10T10686   3.037   1.705   9.576  1.5628 -0.9674 -0.4073
  105OSM   C11S10687   2.888   1.580   9.511 -0.5205  0.7222 -0.3677
  105OSM   H11S10688   2.832   1.675   9.494 -1.7996  0.7606  3.5437
  105OSM   H11T10689   2.820   1.496   9.538  2.1422 -1.5265 -0.5017
  105OSM   C12S10690   2.956   1.537   9.377  0.7703  0.0570 -0.1193
  105OSM   H12S10691   2.889   1.471   9.318 -2.0440 -0.4325  3.4047
  105OSM   H12T10692   3.056   1.492   9.390  0.9407  0.2945 -0.6093
  105OSM   C13S10693   2.988   1.661   9.289 -0.1829  0.7161  0.2796
  105OSM   H13S10694   3.071   1.706   9.348 -0.5779  1.0110  0.6102
  105OSM   H13T10695   2.899   1.727   9.284 -0.8813 -0.1876  0.6910
  105OSM   C14S10696   3.042   1.639   9.144 -0.4613 -0.3257  0.4452
  105OSM   H14S10697   2.958   1.596   9.086  0.3958 -1.9387  0.3653
  105OSM   H14T10698   3.117   1.557   9.139  0.6221  0.6830 -0.0619
  105OSM   C15S10699   3.099   1.764   9.082  0.0797 -0.3661  0.6804
  105OSM   H15S10700   3.032   1.853   9.087  1.0829  0.4796 -0.7437
  105OSM   H15T10701   3.129   1.745   8.977 -0.6370 -0.0074  0.4013
  105OSM   C16S10702   3.234   1.816   9.140 -0.1939  0.0956 -0.0646
  105OSM   H16S10703   3.217   1.845   9.246 -1.1121 -2.2456  0.4631
  105OSM   H16T10704   3.279   1.896   9.077 -0.1200 -1.9378 -2.6719
  105OSM   C17S10705   3.342   1.706   9.136  0.3782  0.2660 -0.2557
  105OSM   H17S10706   3.330   1.667   9.033 -1.3071 -0.3696  0.1634
  105OSM   H17T10707   3.328   1.622   9.207 -0.8594  1.5087  1.0300
  105OSM   C18S10708   3.482   1.760   9.148  0.1131 -0.6098  0.0818
  105OSM   H18S10709   3.503   1.853   9.091  0.4871 -0.0356  1.1291
  105OSM   H18T10710   3.551   1.686   9.103  1.0978  0.7757 -0.7254
  105OSM   H18U10711   3.511   1.777   9.254  2.1406  0.1814 -0.5732
  105OSM    C1F10712   2.659   2.121  10.341 -0.0685  0.3226 -0.3037
  105OSM     OF10713   2.731   2.197  10.410  0.2705  0.7436 -0.4074
  105OSM    C2F10714   2.547   2.177  10.263 -0.0348  0.5414 -0.7337
  105OSM    H2F10715   2.476   2.228  10.332 -0.6185 -3.6948  1.9988
  105OSM    H2G10716   2.486   2.098  10.215  0.7493 -0.6426  0.1840
  105OSM    C3F10717   2.597   2.273  10.158 -0.0428 -0.0722  0.7766
  105OSM    H3F10718   2.679   2.231  10.096 -0.1135  0.7453  0.1093
  105OSM    H3G10719   2.638   2.362  10.212 -1.3346  1.4451 -0.6920
  105OSM    C4F10720   2.492   2.339  10.069  0.5290 -0.6391 -0.9865
  105OSM    H4F10721   2.417   2.383  10.138 -0.1366 -2.7107 -0.3542
  105OSM    H4G10722   2.444   2.257  10.011  0.1356 -1.1018 -0.0182
  105OSM    C5F10723   2.567   2.439   9.978 -0.6355  0.7012  0.2624
  105OSM    H5F10724   2.646   2.495  10.033 -0.2536  0.6266 -0.2007
  105OSM    H5G10725   2.499   2.511   9.928 -1.9011 -0.4130  0.3609
  105OSM    C6F10726   2.649   2.375   9.864  0.0225 -0.7783 -0.1342
  105OSM    H6F10727   2.595   2.304   9.798  0.9639 -1.1308 -0.5298
  105OSM    H6G10728   2.726   2.306   9.905 -0.5791 -1.8888 -0.8395
  105OSM    C7F10729   2.708   2.485   9.774  0.0780  0.1177  0.3738
  105OSM    H7F10730   2.769   2.544   9.846 -1.6604  2.6979 -0.1824
  105OSM    H7G10731   2.629   2.553   9.734  0.7111 -0.1967 -1.4529
  105OSM    C8F10732   2.801   2.447   9.661  0.4408  0.7967  0.4924
  105OSM    H8F10733   2.878   2.386   9.711  1.0038  2.8247  2.1794
  105OSM    H8G10734   2.841   2.542   9.621  0.1034 -0.0872 -2.0279
  105OSM    C9F10735   2.735   2.368   9.551  0.3307  0.8808 -0.0733
  105OSM    H9F10736   2.659   2.295   9.581  1.0170 -0.5116 -1.6413
  105OSM   C10F10737   2.764   2.367   9.420  0.2630 -0.4977 -0.2817
  105OSM   H10F10738   2.703   2.302   9.355  1.5408 -0.4467 -1.5653
  105OSM   C11F10739   2.869   2.450   9.348 -0.4163  0.5895  0.0549
  105OSM   H11F10740   2.922   2.510   9.425 -0.7771  2.1795 -0.9118
  105OSM   H11G10741   2.824   2.510   9.266 -0.6933 -0.4619 -0.5750
  105OSM   C12F10742   2.980   2.361   9.278 -0.0387  0.3903  0.5390
  105OSM   H12F10743   3.032   2.294   9.349  0.5589 -1.5493 -1.6677
  105OSM   H12G10744   3.052   2.439   9.244  0.4156 -0.7123 -1.0935
  105OSM   C13F10745   2.938   2.273   9.157 -0.3760  1.1686  0.2643
  105OSM   H13F10746   2.881   2.325   9.077 -0.8084  1.1276  0.5450
  105OSM   H13G10747   2.878   2.190   9.199  0.0133  0.3560 -0.7701
  105OSM   C14F10748   3.066   2.207   9.093  1.0705  0.0314  0.3472
  105OSM   H14F10749   3.102   2.118   9.151  1.4947 -1.1155 -1.6298
  105OSM   H14G10750   3.153   2.276   9.091  0.2900  1.0079 -0.1336
  105OSM   C15F10751   3.034   2.164   8.951 -0.8600  0.1001 -0.3401
  105OSM   H15F10752   2.993   2.241   8.883 -1.2521  1.4216  1.3941
  105OSM   H15G10753   2.955   2.086   8.952  0.7900 -1.6658 -1.6721
  105OSM   C16F10754   3.157   2.103   8.892  0.8241  0.6519  0.4705
  105OSM   H16F10755   3.222   2.057   8.969 -0.0643 -2.3690 -0.5102
  105OSM   H16G10756   3.220   2.184   8.850  0.5098  0.6309 -0.0370
  105OSM   C17F10757   3.116   1.992   8.786  0.1027 -0.8128  0.6039
  105OSM   H17F10758   3.058   2.040   8.704 -0.4536 -1.1606  0.7914
  105OSM   H17G10759   3.052   1.916   8.836 -0.3384  0.8493  2.6171
  105OSM   C18F10760   3.234   1.920   8.721 -0.1888  0.5689  0.4934
  105OSM   H18F10761   3.297   1.990   8.661  2.0253  0.6009  2.7947
  105OSM   H18G10762   3.200   1.838   8.654 -1.6668  1.1584  0.5112
  105OSM   H18H10763   3.297   1.880   8.803 -1.2097 -0.7891  0.6259
  106OSM      N10764   1.732   1.605  11.227 -0.4219  0.5496  0.0718
  106OSM    C1510765   1.612   1.553  11.299  0.0104 -0.3573  0.2662
  106OSM   H15A10766   1.525   1.553  11.234  0.0933  1.3021  0.1448
  106OSM   H15B10767   1.588   1.624  11.376 -2.8022 -0.4108 -0.4926
  106OSM   H15C10768   1.630   1.458  11.348 -2.2901 -0.8039  0.2945
  106OSM    C1410769   1.862   1.611  11.312  1.1339  0.2461  0.1274
  106OSM   H14A10770   1.847   1.666  11.404  1.2987  1.3186 -0.4734
  106OSM   H14B10771   1.939   1.662  11.256  1.1595  0.6298  0.5041
  106OSM   H14C10772   1.897   1.511  11.332  1.0204  0.6403  2.4208
  106OSM    C1310773   1.756   1.517  11.112 -0.2712 -0.5856  0.2359
  106OSM   H13A10774   1.825   1.568  11.046 -0.9840  0.9233  0.6278
  106OSM   H13B10775   1.666   1.486  11.061 -0.2145 -0.7566  0.2385
  106OSM   H13C10776   1.799   1.424  11.145  2.3033  1.3014  2.4531
  106OSM    C1210777   1.709   1.744  11.175  0.2837 -0.2449 -0.5157
  106OSM   H12A10778   1.699   1.809  11.261 -1.3054 -2.1664  0.8106
  106OSM   H12B10779   1.611   1.731  11.132  0.7342  0.7271 -1.8961
  106OSM    C1110780   1.802   1.810  11.074  0.1552  0.1367 -0.4980
  106OSM   H11A10781   1.906   1.811  11.115 -0.0958  1.0674  0.1344
  106OSM   H11B10782   1.774   1.917  11.069 -1.6673 -0.1121  2.6909
  106OSM      P10783   1.683   1.763  10.838 -0.7584  0.1706  0.4447
  106OSM    O1310784   1.631   1.626  10.810  0.1999  0.3200  0.1237
  106OSM    O1410785   1.590   1.873  10.881 -0.0394 -0.0738  0.0383
  106OSM    O1110786   1.763   1.816  10.717 -0.2603 -0.1756 -0.5281
  106OSM    O1210787   1.799   1.754  10.947  0.1998  0.4067  0.8209
  106OSM    C1S10788   1.869   1.748  10.653  0.1112  0.0159 -0.2951
  106OSM    H1S10789   1.882   1.646  10.694  0.6298  0.4340  0.6036
  106OSM    H1T10790   1.959   1.812  10.669 -0.0433 -0.4315  2.7586
  106OSM     NF10791   1.942   1.641  10.439  0.3937 -0.1307 -0.0573
  106OSM    HNF10792   2.024   1.669  10.390 -1.1024  1.2796 -1.7897
  106OSM    C2S10793   1.859   1.747  10.499 -0.6627 -0.0757 -0.5220
  106OSM    H2S10794   1.749   1.735  10.484 -0.3556 -1.0218 -2.1019
  106OSM    C3S10795   1.891   1.889  10.449 -0.0793 -0.2454 -0.4387
  106OSM    H3S10796   2.001   1.901  10.465 -0.1857 -2.6172  2.6277
  106OSM     O310797   1.813   1.982  10.518 -0.2898 -0.2422  0.3276
  106OSM    HO310798   1.778   1.926  10.588  1.6879 -2.2132 -0.2265
  106OSM    C4S10799   1.860   1.911  10.310 -0.1358 -0.0880 -0.3274
  106OSM    H4S10800   1.949   1.932  10.249  0.3476 -0.9100  0.0808
  106OSM    C5S10801   1.740   1.904  10.247 -0.2125 -0.4453 -0.7468
  106OSM    H5S10802   1.652   1.896  10.313  1.1070  0.9277  1.2444
  106OSM    C6S10803   1.718   1.929  10.099  0.1338 -0.3864  0.2428
  106OSM    H6S10804   1.684   2.032  10.071  1.5632 -0.3626 -1.5179
  106OSM    H6T10805   1.633   1.869  10.061  0.9610 -1.8735  0.7068
  106OSM    C7S10806   1.834   1.905  10.001 -0.4423 -0.0604  0.7935
  106OSM    H7S10807   1.854   1.797  10.017 -0.9700 -0.1591  0.7953
  106OSM    H7T10808   1.925   1.965  10.025 -0.2049 -0.9003  2.0350
  106OSM    C8S10809   1.792   1.933   9.856 -0.1143  0.2837  0.1627
  106OSM    H8S10810   1.750   2.036   9.852 -2.1668 -0.5373 -0.1298
  106OSM    H8T10811   1.713   1.864   9.821  0.1569 -1.9223  3.6512
  106OSM    C9S10812   1.913   1.935   9.765 -0.5999 -0.3447  0.1829
  106OSM    H9S10813   1.956   1.838   9.732 -0.4481 -0.2014 -0.0472
  106OSM    H9T10814   1.990   1.994   9.820 -0.8288 -1.0347  1.2670
  106OSM   C10S10815   1.884   2.006   9.629  0.2075  0.4157 -0.3960
  106OSM   H10S10816   1.849   2.109   9.651 -0.3860  0.2089 -0.3467
  106OSM   H10T10817   1.805   1.943   9.582  0.7910 -1.1985  0.7284
  106OSM   C11S10818   1.998   2.008   9.530  0.8793  0.4566 -0.5846
  106OSM   H11S10819   2.046   1.909   9.519 -2.7648 -1.4144 -0.5599
  106OSM   H11T10820   2.082   2.077   9.555 -0.6720  2.3676 -0.5244
  106OSM   C12S10821   1.949   2.048   9.393 -0.1458  0.2189 -0.6716
  106OSM   H12S10822   1.910   2.152   9.384 -0.0052  0.2539 -0.8653
  106OSM   H12T10823   1.850   2.000   9.378  0.1234 -0.6831  0.3490
  106OSM   C13S10824   2.041   2.014   9.274 -0.8212  0.0019  0.3277
  106OSM   H13S10825   2.050   1.903   9.265  0.8347  0.1001  0.6428
  106OSM   H13T10826   2.140   2.051   9.307 -1.3881  1.2836  0.5998
  106OSM   C14S10827   1.995   2.078   9.142 -0.6220 -0.1640 -0.0925
  106OSM   H14S10828   1.981   2.186   9.164 -3.2989 -0.2147 -1.2613
  106OSM   H14T10829   1.893   2.040   9.117 -0.0227 -0.8503 -1.5419
  106OSM   C15S10830   2.102   2.048   9.035 -0.6586  0.5198 -0.5141
  106OSM   H15S10831   2.125   1.940   9.033  1.3050  0.8031  2.6082
  106OSM   H15T10832   2.198   2.097   9.066 -0.9926  0.4772  0.6159
  106OSM   C16S10833   2.078   2.096   8.893  0.2933 -0.2224  0.2638
  106OSM   H16S10834   2.174   2.074   8.841  0.2208  2.3761 -1.0465
  106OSM   H16T10835   2.061   2.205   8.907 -0.2492 -0.1667 -0.7977
  106OSM   C17S10836   1.945   2.030   8.832 -0.7615 -0.6425  0.2295
  106OSM   H17S10837   1.863   2.104   8.847  0.3606  0.6607  0.0566
  106OSM   H17T10838   1.931   1.931   8.882  2.3856 -2.0057 -1.4486
  106OSM   C18S10839   1.960   2.006   8.686 -0.2712 -0.2234 -0.6240
  106OSM   H18S10840   1.877   1.946   8.642 -0.7195  0.8817 -1.3023
  106OSM   H18T10841   2.051   1.946   8.664 -0.7731 -0.7852 -1.1989
  106OSM   H18U10842   1.957   2.102   8.629 -1.7484  0.2637  0.2356
  106OSM    C1F10843   1.918   1.512  10.441  0.2490  0.0379 -0.1526
  106OSM     OF10844   1.817   1.463  10.492  0.1362  0.4254  0.3226
  106OSM    C2F10845   2.018   1.426  10.372 -0.1945 -0.6916 -0.0944
  106OSM    H2F10846   2.056   1.349  10.441 -0.3471 -1.2705 -0.6454
  106OSM    H2G10847   2.104   1.484  10.334 -1.2139  0.9697  0.0901
  106OSM    C3F10848   1.962   1.340  10.250 -0.2109  0.7913  0.2241
  106OSM    H3F10849   1.861   1.304  10.278  0.6314  0.0348  2.4546
  106OSM    H3G10850   2.029   1.256  10.222 -1.9061 -0.7546  0.6954
  106OSM    C4F10851   1.949   1.401  10.110 -0.8241 -0.2129  0.0984
  106OSM    H4F10852   1.876   1.485  10.110 -1.4562 -0.7556  1.0671
  106OSM    H4G10853   1.900   1.328  10.043 -2.1627  1.0974 -0.3739
  106OSM    C5F10854   2.079   1.450  10.044 -0.0731  0.0008 -0.3872
  106OSM    H5F10855   2.152   1.366  10.046  1.3673  1.2510  1.0635
  106OSM    H5G10856   2.121   1.541  10.091 -0.8938 -0.2341  0.8352
  106OSM    C6F10857   2.056   1.469   9.895  0.1221  0.7851  0.7136
  106OSM    H6F10858   1.985   1.554   9.902  2.0757  2.8605 -3.2597
  106OSM    H6G10859   2.003   1.382   9.850  0.5427  0.1685  1.3972
  106OSM    C7F10860   2.175   1.512   9.811 -0.9462  0.0588 -0.0567
  106OSM    H7F10861   2.253   1.560   9.874  0.4567 -2.9671  0.5648
  106OSM    H7G10862   2.145   1.587   9.734 -0.4116 -1.6206 -1.9226
  106OSM    C8F10863   2.237   1.392   9.741  0.0199  0.5085 -0.9232
  106OSM    H8F10864   2.156   1.331   9.696 -0.3779 -0.4534  1.0298
  106OSM    H8G10865   2.271   1.316   9.816  0.4172  0.9494 -0.6553
  106OSM    C9F10866   2.358   1.421   9.663  0.0824  0.7359  0.3902
  106OSM    H9F10867   2.433   1.469   9.728 -1.0641  1.0170  1.5203
  106OSM   C10F10868   2.380   1.397   9.530  0.0219 -0.0550  0.2369
  106OSM   H10F10869   2.485   1.412   9.501 -0.5985  1.2497 -1.4246
  106OSM   C11F10870   2.288   1.323   9.429  0.4822  0.1925 -0.6507
  106OSM   H11F10871   2.205   1.264   9.475 -0.8452  1.3741 -1.5074
  106OSM   H11G10872   2.351   1.249   9.375 -0.5297 -1.1247 -0.0585
  106OSM   C12F10873   2.217   1.424   9.330 -0.6201 -0.4001  0.2196
  106OSM   H12F10874   2.170   1.376   9.241 -1.6112 -1.0402  1.0793
  106OSM   H12G10875   2.293   1.501   9.306 -0.4468  0.2702  2.7634
  106OSM   C13F10876   2.112   1.509   9.404  0.4481 -0.1909  0.0226
  106OSM   H13F10877   2.150   1.555   9.498  2.3266 -0.7254 -0.4656
  106OSM   H13G10878   2.024   1.445   9.429  0.6245 -0.6035 -0.4062
  106OSM   C14F10879   2.053   1.623   9.316 -0.8461 -0.1716 -0.1101
  106OSM   H14F10880   2.139   1.675   9.267  0.6622 -0.4519  2.1623
  106OSM   H14G10881   2.000   1.694   9.382  0.7039  0.2347  0.7210
  106OSM   C15F10882   1.946   1.575   9.218  0.1498 -0.2856 -0.0137
  106OSM   H15F10883   1.863   1.519   9.265 -0.6955  1.6642  0.8476
  106OSM   H15G10884   1.988   1.504   9.143 -3.2411 -0.8026 -1.4974
  106OSM   C16F10885   1.881   1.689   9.139 -0.2473 -0.0445  0.4030
  106OSM   H16F10886   1.949   1.718   9.056 -2.4323  1.2816 -0.9977
  106OSM   H16G10887   1.860   1.774   9.207 -1.1900  1.4266 -1.6660
  106OSM   C17F10888   1.754   1.632   9.073 -0.0897 -0.1755 -0.4736
  106OSM   H17F10889   1.679   1.589   9.142  1.8399 -1.6173  0.7773
  106OSM   H17G10890   1.791   1.551   9.006  1.5901 -1.5009  1.9927
  106OSM   C18F10891   1.676   1.738   8.990 -0.9232 -0.0402  0.7454
  106OSM   H18F10892   1.641   1.816   9.061 -2.9322  0.2229 -0.5024
  106OSM   H18G10893   1.587   1.704   8.934  1.1995 -0.3205 -2.5525
  106OSM   H18H10894   1.747   1.784   8.918  0.6391  1.1385  2.9731
  107OSM      N10895   4.556   6.401  10.891  0.7994 -0.2018 -0.9093
  107OSM    C1510896   4.455   6.286  10.896  0.3762 -0.7467  0.7889
  107OSM   H15A10897   4.464   6.225  10.808  1.5763 -0.8099  0.9587
  107OSM   H15B10898   4.357   6.331  10.906  0.1514 -0.6105 -1.8923
  107OSM   H15C10899   4.468   6.219  10.979  0.5372 -0.5691  0.9086
  107OSM    C1410900   4.488   6.492  10.786 -0.3785 -0.4383 -0.0484
  107OSM   H14A10901   4.537   6.586  10.765  1.2388 -1.3999 -0.6602
  107OSM   H14B10902   4.387   6.520  10.813  0.5647  1.1894  1.9389
  107OSM   H14C10903   4.477   6.439  10.692 -3.7018  0.5145 -0.2687
  107OSM    C1310904   4.556   6.485  11.015  0.2794  0.5675  0.3226
  107OSM   H13A10905   4.451   6.503  11.032  0.0308 -0.0019 -0.5729
  107OSM   H13B10906   4.603   6.577  10.987 -0.2997  0.5245 -0.7969
  107OSM   H13C10907   4.615   6.430  11.088 -0.9972  0.2316  1.1277
  107OSM    C1210908   4.689   6.351  10.839 -0.3698  0.3678 -0.1073
  107OSM   H12A10909   4.764   6.429  10.849 -0.7758  0.4218  3.0833
  107OSM   H12B10910   4.692   6.319  10.736  3.4900 -2.5300  0.7845
  107OSM    C1110911   4.746   6.223  10.908  0.2628 -0.7260 -0.0237
  107OSM   H11A10912   4.716   6.133  10.850  1.9909 -1.4740  0.2072
  107OSM   H11B10913   4.704   6.219  11.011  0.6228 -0.9753  0.1140
  107OSM      P10914   5.004   6.197  10.839 -0.1571 -0.1433  0.0094
  107OSM    O1310915   5.133   6.246  10.890 -0.7248  0.3983 -0.2956
  107OSM    O1410916   4.991   6.056  10.808 -0.0754  0.2673 -0.2570
  107OSM    O1110917   4.970   6.291  10.716  0.4123 -0.3740 -0.1455
  107OSM    O1210918   4.886   6.240  10.941 -0.1601 -0.2285  0.0074
  107OSM    C1S10919   5.051   6.284  10.593 -0.1130 -0.4334 -0.0495
  107OSM    H1S10920   5.141   6.221  10.609 -0.5100 -0.9745  0.0954
  107OSM    H1T10921   5.080   6.390  10.577 -1.9939  0.4646  2.1697
  107OSM     NF10922   5.060   6.228  10.348  0.0293 -0.6374 -0.2115
  107OSM    HNF10923   5.050   6.296  10.276  0.2905 -0.3820 -0.0069
  107OSM    C2S10924   4.975   6.253  10.463  0.1673 -0.2202 -0.2426
  107OSM    H2S10925   4.912   6.165  10.488 -2.1407  0.8791 -2.0134
  107OSM    C3S10926   4.857   6.356  10.431 -0.4676 -0.4266  0.2827
  107OSM    H3S10927   4.912   6.444  10.390  1.0687 -0.1020  2.9142
  107OSM     O310928   4.777   6.396  10.540  0.1162  0.2409  0.0483
  107OSM    HO310929   4.830   6.361  10.612  2.0667  1.7991 -0.5711
  107OSM    C4S10930   4.772   6.294  10.321  0.1458 -0.0378 -0.3756
  107OSM    H4S10931   4.803   6.318  10.218  0.0289  1.2637 -0.1084
  107OSM    C5S10932   4.670   6.216  10.343  0.5092  0.4511  0.2607
  107OSM    H5S10933   4.630   6.195  10.443 -0.8039 -2.0995 -0.7504
  107OSM    C6S10934   4.581   6.161  10.232 -0.4550 -0.4649  0.1555
  107OSM    H6S10935   4.480   6.138  10.271 -0.6736  0.3417  0.0739
  107OSM    H6T10936   4.620   6.063  10.197  1.2246  0.1686  0.1909
  107OSM    C7S10937   4.560   6.243  10.103  0.4335  0.3676  0.6156
  107OSM    H7S10938   4.664   6.260  10.066 -0.2965 -2.3001 -2.8522
  107OSM    H7T10939   4.511   6.336  10.141 -0.2128  0.7108 -1.0230
  107OSM    C8S10940   4.473   6.166  10.005  0.1632 -0.4613 -0.8247
  107OSM    H8S10941   4.507   6.062   9.989 -0.0548 -0.5254 -0.8798
  107OSM    H8T10942   4.494   6.219   9.909  0.4250 -0.1827 -0.6135
  107OSM    C9S10943   4.323   6.183  10.041 -0.1362  0.5937 -0.6389
  107OSM    H9S10944   4.298   6.292  10.041 -0.1463  0.5904 -0.8277
  107OSM    H9T10945   4.292   6.135  10.136 -2.4001 -0.1578 -1.7143
  107OSM   C10S10946   4.221   6.143   9.935 -0.0276  0.2535 -0.1073
  107OSM   H10S10947   4.236   6.035   9.916 -0.6230  0.0437  0.6036
  107OSM   H10T10948   4.249   6.199   9.843  1.4601 -0.2659  0.0055
  107OSM   C11S10949   4.068   6.164   9.976 -0.1899  0.1550 -0.2876
  107OSM   H11S10950   4.028   6.109  10.064  0.8952  2.2193  1.5112
  107OSM   H11T10951   4.021   6.129   9.881 -0.4727 -0.1311 -0.0418
  107OSM   C12S10952   4.029   6.311   9.997 -0.1329 -0.8856 -0.0734
  107OSM   H12S10953   4.070   6.352   9.902  2.3241 -2.3676  0.2800
  107OSM   H12T10954   4.090   6.356  10.077  0.7227  0.5304 -1.4961
  107OSM   C13S10955   3.871   6.308  10.011  0.7783  0.5920 -0.0686
  107OSM   H13S10956   3.849   6.295  10.120  2.1212 -0.1422  0.1239
  107OSM   H13T10957   3.832   6.215   9.965 -0.6972  1.4497 -0.5615
  107OSM   C14S10958   3.805   6.432   9.957  0.0174 -0.0900  0.2729
  107OSM   H14S10959   3.844   6.505  10.032 -1.0284 -1.2004  1.9195
  107OSM   H14T10960   3.695   6.425   9.971  0.0669 -0.1004  0.6836
  107OSM   C15S10961   3.839   6.482   9.811 -0.4730  0.2820  0.5088
  107OSM   H15S10962   3.942   6.522   9.802  0.2254 -1.8071 -1.4935
  107OSM   H15T10963   3.768   6.564   9.788 -0.0051  0.3779 -0.6529
  107OSM   C16S10964   3.833   6.371   9.701 -0.1193  0.2779  0.2033
  107OSM   H16S10965   3.746   6.305   9.722 -0.8415  0.5630 -1.7917
  107OSM   H16T10966   3.919   6.300   9.706 -0.1306  0.2431 -0.1438
  107OSM   C17S10967   3.811   6.435   9.567 -0.0041 -0.2448  0.5346
  107OSM   H17S10968   3.861   6.533   9.560  0.3922 -0.5249 -0.5532
  107OSM   H17T10969   3.703   6.460   9.567  0.1432  0.5007  2.6315
  107OSM   C18S10970   3.848   6.335   9.448  0.4776 -0.1642 -0.8603
  107OSM   H18S10971   3.944   6.283   9.467  0.4676  0.4466  0.9159
  107OSM   H18T10972   3.864   6.401   9.360 -1.1309 -0.9264 -1.7492
  107OSM   H18U10973   3.766   6.265   9.420  0.0135 -0.4781  1.2124
  107OSM    C1F10974   5.142   6.125  10.345 -0.0091  0.2713 -0.2992
  107OSM     OF10975   5.146   6.044  10.437 -0.0280 -0.7674 -0.7035
  107OSM    C2F10976   5.219   6.101  10.219 -0.1905 -0.4391 -0.8996
  107OSM    H2F10977   5.175   6.159  10.135 -0.0086  1.8064  0.5195
  107OSM    H2G10978   5.213   5.993  10.191 -1.8232 -0.6619  0.2415
  107OSM    C3F10979   5.368   6.132  10.250  0.7060 -0.1739 -0.0178
  107OSM    H3F10980   5.406   6.076  10.337 -1.5537 -2.1920 -0.2567
  107OSM    H3G10981   5.375   6.241  10.270 -2.8441 -0.2036  1.8571
  107OSM    C4F10982   5.452   6.077  10.136 -0.1972  0.1721  0.4868
  107OSM    H4F10983   5.457   5.967  10.132  2.3842  0.2404  1.3212
  107OSM    H4G10984   5.556   6.112  10.153  0.0551 -0.9799  1.3120
  107OSM    C5F10985   5.402   6.145  10.000 -0.3623  0.3230 -0.6223
  107OSM    H5F10986   5.379   6.251  10.025 -0.5555 -0.2114  1.4975
  107OSM    H5G10987   5.310   6.098   9.960 -1.1295  0.9398  0.3775
  107OSM    C6F10988   5.519   6.140   9.895  0.1902  0.1031 -0.1836
  107OSM    H6F10989   5.616   6.158   9.946  0.3163 -0.0360 -0.3758
  107OSM    H6G10990   5.501   6.219   9.818  0.6190  0.4732  0.0911
  107OSM    C7F10991   5.545   6.005   9.829 -0.0285 -0.1818  0.4103
  107OSM    H7F10992   5.591   5.929   9.896  1.4554 -0.5450 -0.9873
  107OSM    H7G10993   5.627   6.023   9.757 -1.5247  0.1844 -1.2502
  107OSM    C8F10994   5.422   5.944   9.753  0.2301  0.9733 -0.1035
  107OSM    H8F10995   5.356   5.904   9.832 -0.3006 -0.4718 -1.2523
  107OSM    H8G10996   5.456   5.847   9.711 -2.6951  0.1602 -0.7010
  107OSM    C9F10997   5.358   6.045   9.658  0.3879 -0.0035 -0.2603
  107OSM    H9F10998   5.300   6.126   9.705  1.1656  0.4978 -0.1545
  107OSM   C10F10999   5.348   6.024   9.525 -0.2905  0.2465  0.6071
  107OSM   H10F11000   5.298   6.096   9.459 -3.8121 -1.3584  1.3535
  107OSM   C11F11001   5.410   5.907   9.453  0.8789  0.1510  0.7417
  107OSM   H11F11002   5.364   5.808   9.474  1.3337 -0.2389 -0.0852
  107OSM   H11G11003   5.517   5.900   9.484  0.5739  1.2899  2.0990
  107OSM   C12F11004   5.392   5.910   9.298  0.2295 -0.2674  0.0137
  107OSM   H12F11005   5.448   5.828   9.248 -0.9606 -1.4286  0.5683
  107OSM   H12G11006   5.434   6.008   9.264 -1.7308 -0.0377 -1.8003
  107OSM   C13F11007   5.242   5.908   9.240  0.2594  0.6570  0.6690
  107OSM   H13F11008   5.177   5.989   9.277  0.7101  1.2286  0.2126
  107OSM   H13G11009   5.196   5.810   9.265 -2.9257  2.2381  1.2599
  107OSM   C14F11010   5.246   5.916   9.089  0.3710  0.0940 -0.4227
  107OSM   H14F11011   5.285   5.822   9.045  0.1891  0.0717 -0.5403
  107OSM   H14G11012   5.309   6.002   9.056 -0.1193  1.8447  2.9753
  107OSM   C15F11013   5.101   5.938   9.032  0.8599 -0.9718 -0.4028
  107OSM   H15F11014   5.026   5.877   9.088  1.7416 -1.5454  0.1642
  107OSM   H15G11015   5.099   5.903   8.927  1.7553  1.2890 -1.1942
  107OSM   C16F11016   5.068   6.089   9.021  0.5235 -0.4706  0.2384
  107OSM   H16F11017   5.128   6.141   8.943 -2.1469 -2.4965 -3.3096
  107OSM   H16G11018   5.093   6.145   9.114 -0.7882  1.6578 -0.6485
  107OSM   C17F11019   4.914   6.118   9.008  0.1454 -0.4133 -0.1507
  107OSM   H17F11020   4.916   6.225   8.978 -1.5618 -0.3021  0.0839
  107OSM   H17G11021   4.847   6.109   9.096  0.8085  1.3525  0.5582
  107OSM   C18F11022   4.851   6.048   8.886 -0.0828  0.0297  0.1117
  107OSM   H18F11023   4.813   5.951   8.923  0.5729 -0.5102 -0.6243
  107OSM   H18G11024   4.930   6.021   8.814 -0.3274 -3.0771  0.9621
  107OSM   H18H11025   4.762   6.100   8.847  0.6804  2.4220  1.4210
  108OSM      N11026   1.932   0.001  10.796 -0.6156 -0.2672  0.9801
  108OSM    C1511027   1.790   0.007  10.749 -0.0556 -0.4897 -0.1258
  108OSM   H15A11028   1.770  -0.065  10.672  0.4659  0.4476 -1.1579
  108OSM   H15B11029   1.788   0.108  10.710  1.8593 -0.2245  0.3715
  108OSM   H15C11030   1.722   0.001  10.832 -0.4112 -0.0990 -0.3863
  108OSM    C1411031   1.953  -0.112  10.889  0.3669  0.0549 -0.1482
  108OSM   H14A11032   1.909  -0.088  10.985  2.0975 -0.0203  0.6796
  108OSM   H14B11033   2.058  -0.126  10.908  0.2681  0.4164  0.7048
  108OSM   H14C11034   1.927  -0.206  10.843 -2.2001  0.3358  0.6567
  108OSM    C1311035   2.023  -0.022  10.680 -0.6066 -0.8114 -0.3357
  108OSM   H13A11036   1.995  -0.114  10.631 -1.3343 -0.4048 -0.6945
  108OSM   H13B11037   2.125  -0.026  10.714 -1.0660 -1.5491  1.0006
  108OSM   H13C11038   2.014   0.058  10.607  1.1850 -0.6283 -0.3764
  108OSM    C1211039   1.982   0.129  10.858  0.7611 -0.6831  0.8356
  108OSM   H12A11040   2.087   0.118  10.882  1.0731  0.0875 -0.1171
  108OSM   H12B11041   1.930   0.145  10.951  1.3278 -1.1577  1.2337
  108OSM    C1111042   1.967   0.265  10.772 -0.0459 -0.0955  0.0620
  108OSM   H11A11043   1.994   0.250  10.665  1.6141 -0.8334  0.5839
  108OSM   H11B11044   2.038   0.341  10.811  0.2517  0.1382 -0.9270
  108OSM      P11045   1.772   0.409  10.679  0.3621 -0.4847 -0.0723
  108OSM    O1311046   1.645   0.471  10.727  0.0818  0.5490 -0.3159
  108OSM    O1411047   1.876   0.505  10.637 -0.6271  0.8985 -0.2954
  108OSM    O1111048   1.737   0.308  10.559 -0.2151  0.9104 -0.7135
  108OSM    O1211049   1.833   0.310  10.785 -0.4630 -0.1638 -0.4934
  108OSM    C1S11050   1.632   0.341  10.475  0.0939  0.5295 -0.0500
  108OSM    H1S11051   1.613   0.450  10.467 -0.2353  0.3209 -2.4899
  108OSM    H1T11052   1.536   0.294  10.506 -0.4385  0.0553 -2.2681
  108OSM     NF11053   1.557   0.295  10.235 -0.4256 -0.0536  0.4251
  108OSM    HNF11054   1.496   0.216  10.236 -0.8487  0.2106 -1.6456
  108OSM    C2S11055   1.665   0.278  10.331 -0.6557  0.5009 -0.0690
  108OSM    H2S11056   1.763   0.318  10.299 -0.1019  0.5988  1.6512
  108OSM    C3S11057   1.687   0.122  10.355 -0.2915 -0.3226 -0.2485
  108OSM    H3S11058   1.596   0.095  10.413 -1.5074  0.5515 -1.7003
  108OSM     O311059   1.797   0.087  10.435  0.5100  0.2253 -0.7122
  108OSM    HO311060   1.807   0.161  10.494 -1.0511 -0.6751  0.7163
  108OSM    C4S11061   1.705   0.045  10.223  0.2410  0.1106  0.2301
  108OSM    H4S11062   1.800   0.072  10.174 -0.8906  0.8813 -1.6057
  108OSM    C5S11063   1.628  -0.050  10.169  0.0290  0.7444 -0.0117
  108OSM    H5S11064   1.530  -0.072  10.214 -0.3477  1.6981 -0.3504
  108OSM    C6S11065   1.653  -0.119  10.037 -0.5128 -0.3318 -0.7871
  108OSM    H6S11066   1.563  -0.182  10.018 -1.2784  0.5055 -0.0400
  108OSM    H6T11067   1.733  -0.196  10.042 -0.5796 -0.3264  0.5062
  108OSM    C7S11068   1.677  -0.024   9.913  0.3407 -0.5748 -0.1499
  108OSM    H7S11069   1.710  -0.081   9.823  0.2782 -2.9626  1.2819
  108OSM    H7T11070   1.753   0.051   9.942 -1.6959  1.0938  1.0025
  108OSM    C8S11071   1.550   0.054   9.879 -0.1251  0.0348  0.1289
  108OSM    H8S11072   1.577   0.139   9.814 -0.1324  1.0476  1.4222
  108OSM    H8T11073   1.512   0.094   9.976  0.0842  3.2174 -1.0519
  108OSM    C9S11074   1.438  -0.019   9.801 -0.2949  0.6619 -0.6767
  108OSM    H9S11075   1.339   0.020   9.832 -0.9417 -0.4049 -1.3275
  108OSM    H9T11076   1.443  -0.128   9.823  0.9540  1.2870  2.3233
  108OSM   C10S11077   1.459  -0.011   9.643 -0.0307 -0.1646  0.4753
  108OSM   H10S11078   1.427   0.091   9.613  1.2961  0.2798  0.5637
  108OSM   H10T11079   1.386  -0.086   9.605 -0.6715 -0.5629  2.4759
  108OSM   C11S11080   1.598  -0.040   9.585 -0.7958 -0.5206 -0.3123
  108OSM   H11S11081   1.636  -0.143   9.600  0.6328 -0.4032 -2.7430
  108OSM   H11T11082   1.662   0.026   9.647  0.0521 -1.3767 -0.2653
  108OSM   C12S11083   1.618   0.012   9.443  0.6749  0.1832  0.0468
  108OSM   H12S11084   1.720   0.026   9.403 -0.1486  1.6561 -1.6136
  108OSM   H12T11085   1.580   0.116   9.448 -1.1697 -0.4939  0.4882
  108OSM   C13S11086   1.525  -0.051   9.338 -0.0823  0.1132 -0.4337
  108OSM   H13S11087   1.420  -0.056   9.373  0.4374  0.3867  1.2433
  108OSM   H13T11088   1.552  -0.159   9.329 -0.1539  0.0798 -0.2554
  108OSM   C14S11089   1.541   0.015   9.203 -0.8165  0.5406  0.2812
  108OSM   H14S11090   1.642   0.040   9.163 -1.8691 -1.7109 -4.0725
  108OSM   H14T11091   1.497   0.117   9.206  0.7688  1.2112  2.0022
  108OSM   C15S11092   1.473  -0.058   9.084 -0.6112 -0.2379  0.4590
  108OSM   H15S11093   1.365  -0.032   9.083 -0.6836 -0.4977  1.7532
  108OSM   H15T11094   1.484  -0.168   9.085 -0.2107 -0.2309 -1.0210
  108OSM   C16S11095   1.517  -0.007   8.944 -0.4685 -0.0838  0.5552
  108OSM   H16S11096   1.628  -0.012   8.938 -0.5432  0.3857 -1.2870
  108OSM   H16T11097   1.482   0.095   8.918  1.2068 -0.0777 -1.8028
  108OSM   C17S11098   1.460  -0.085   8.818  0.4147  0.6237 -0.6491
  108OSM   H17S11099   1.509  -0.041   8.728 -1.3563 -0.5091 -2.2259
  108OSM   H17T11100   1.351  -0.071   8.799  0.4581  0.4001 -1.0750
  108OSM   C18S11101   1.483  -0.238   8.812 -0.2658  0.0752 -0.1247
  108OSM   H18S11102   1.454  -0.290   8.906 -1.8149 -2.5498 -1.9747
  108OSM   H18T11103   1.590  -0.255   8.787 -0.2051  0.5896 -0.2220
  108OSM   H18U11104   1.416  -0.290   8.740  1.1471 -1.4946 -0.3343
  108OSM    C1F11105   1.540   0.407  10.170 -0.3623 -0.1786 -0.2772
  108OSM     OF11106   1.634   0.489  10.168 -0.0373  0.5596 -0.6686
  108OSM    C2F11107   1.405   0.432  10.107  0.0036  0.1305  0.1734
  108OSM    H2F11108   1.341   0.480  10.184 -1.0027 -0.2344 -0.4216
  108OSM    H2G11109   1.352   0.339  10.079 -1.6644  1.7242 -2.1340
  108OSM    C3F11110   1.394   0.526   9.983 -0.5374  0.8463 -0.0026
  108OSM    H3F11111   1.442   0.624  10.005  2.3629 -0.2227 -1.3607
  108OSM    H3G11112   1.286   0.542   9.961 -0.3546 -0.4197 -1.9549
  108OSM    C4F11113   1.473   0.456   9.865 -0.1420  0.6795  0.1205
  108OSM    H4F11114   1.408   0.379   9.818 -0.9012 -0.2508  2.6143
  108OSM    H4G11115   1.554   0.396   9.911 -1.7250  0.6327  2.9939
  108OSM    C5F11116   1.505   0.565   9.768 -0.3516  1.5351  0.4181
  108OSM    H5F11117   1.569   0.648   9.806  2.2141 -0.3997  0.4337
  108OSM    H5G11118   1.405   0.608   9.744 -1.3603 -1.7893 -1.6106
  108OSM    C6F11119   1.575   0.508   9.639  0.0752 -0.4646 -0.8348
  108OSM    H6F11120   1.654   0.435   9.665  1.2245  0.6121 -1.2306
  108OSM    H6G11121   1.638   0.593   9.604  1.4575 -0.8952  0.5333
  108OSM    C7F11122   1.476   0.457   9.537 -0.0107  0.4575  0.3276
  108OSM    H7F11123   1.392   0.526   9.516 -0.3528  0.0931  0.4799
  108OSM    H7G11124   1.429   0.365   9.577 -0.6359  0.7084  0.1827
  108OSM    C8F11125   1.545   0.407   9.403 -0.5506 -1.2729  0.4982
  108OSM    H8F11126   1.476   0.339   9.349 -1.1060 -1.5700  1.5638
  108OSM    H8G11127   1.645   0.362   9.420  0.7899  0.6138 -1.9939
  108OSM    C9F11128   1.586   0.525   9.319  0.8017 -0.5193  0.2173
  108OSM    H9F11129   1.600   0.619   9.375 -0.9902 -0.2855  0.3232
  108OSM   C10F11130   1.586   0.540   9.184 -0.2120 -0.4475 -0.3389
  108OSM   H10F11131   1.632   0.635   9.154  1.2241 -0.1961  2.5162
  108OSM   C11F11132   1.555   0.428   9.086 -0.4431  0.1242  1.0361
  108OSM   H11F11133   1.448   0.438   9.058 -0.2936 -1.2278 -0.0644
  108OSM   H11G11134   1.560   0.328   9.135 -2.0521 -2.0151 -2.9157
  108OSM   C12F11135   1.647   0.428   8.965  0.4726  0.0950 -0.3757
  108OSM   H12F11136   1.626   0.331   8.916 -2.0510  1.6195 -2.4272
  108OSM   H12G11137   1.753   0.433   9.000 -0.6653 -1.5444  3.6625
  108OSM   C13F11138   1.612   0.540   8.868  0.7736  0.8510  0.1325
  108OSM   H13F11139   1.708   0.588   8.840  1.1309 -0.1299 -0.3466
  108OSM   H13G11140   1.540   0.608   8.919 -1.7147  0.5973 -2.8356
  108OSM   C14F11141   1.548   0.481   8.743 -0.9319  0.7309  0.6387
  108OSM   H14F11142   1.472   0.402   8.764 -0.5964  0.2203 -0.0543
  108OSM   H14G11143   1.633   0.430   8.694 -0.5134  0.9578  1.1247
  108OSM   C15F11144   1.500   0.593   8.652 -0.4334 -0.1459  0.1441
  108OSM   H15F11145   1.548   0.688   8.684 -1.1892  1.2729 -2.7878
  108OSM   H15G11146   1.389   0.597   8.654 -0.4100  1.9065 -0.7030
  108OSM   C16F11147   1.550   0.575   8.509 -0.3864 -0.0041 -0.2503
  108OSM   H16F11148   1.478   0.609   8.432  0.8829  3.9581  0.2177
  108OSM   H16G11149   1.551   0.466   8.487  0.5104 -0.3450  1.3565
  108OSM   C17F11150   1.692   0.633   8.488  0.2008  0.1981  0.0120
  108OSM   H17F11151   1.765   0.570   8.543 -1.3988  0.0400  2.0305
  108OSM   H17G11152   1.704   0.736   8.527  0.8949  1.0245 -2.2723
  108OSM   C18F11153   1.730   0.631   8.338  0.1575  0.0054  0.1339
  108OSM   H18F11154   1.657   0.678   8.270  0.8625 -0.2741 -0.8292
  108OSM   H18G11155   1.735   0.523   8.310 -2.6350 -1.1885  3.7434
  108OSM   H18H11156   1.835   0.668   8.330 -0.3534  1.7871  1.4570
  109OSM      N11157   0.268   5.261  11.362  0.0540 -0.6130 -0.2388
  109OSM    C1511158   0.334   5.129  11.401  0.3763  0.1972 -0.8584
  109OSM   H15A11159   0.269   5.073  11.467  0.1992  1.6052  0.1727
  109OSM   H15B11160   0.435   5.144  11.435  0.0744 -0.6057  0.4720
  109OSM   H15C11161   0.341   5.060  11.318 -1.0430 -2.2946  0.9886
  109OSM    C1411162   0.120   5.226  11.345  0.5809  0.1749 -0.5482
  109OSM   H14A11163   0.066   5.317  11.324 -0.4014 -0.6757 -1.7913
  109OSM   H14B11164   0.074   5.175  11.429 -0.0051  1.6547  0.0439
  109OSM   H14C11165   0.108   5.154  11.266  1.9528  0.7763 -1.3170
  109OSM    C1311166   0.291   5.363  11.468  0.3497 -0.4093 -0.4335
  109OSM   H13A11167   0.229   5.451  11.459  0.4426 -0.2016  0.8382
  109OSM   H13B11168   0.397   5.380  11.475  1.0392 -3.4407 -2.6348
  109OSM   H13C11169   0.250   5.329  11.562  0.1060 -0.9988 -0.7537
  109OSM    C1211170   0.327   5.306  11.231 -0.3528  0.1828 -0.2334
  109OSM   H12A11171   0.434   5.317  11.243 -0.3062  0.3650 -0.7907
  109OSM   H12B11172   0.283   5.400  11.202 -1.2393  0.0584  0.7018
  109OSM    C1111173   0.308   5.209  11.109  0.2187  0.4722 -0.5082
  109OSM   H11A11174   0.337   5.255  11.012  1.2841  2.0466  0.5362
  109OSM   H11B11175   0.204   5.169  11.104 -0.6419  2.8195 -2.5879
  109OSM      P11176   0.552   5.118  11.096  0.1085  0.2837 -0.2011
  109OSM    O1311177   0.600   5.201  11.214 -0.3348 -0.1670 -0.3206
  109OSM    O1411178   0.619   4.983  11.091 -0.6444  0.1158 -0.9817
  109OSM    O1111179   0.572   5.174  10.953 -0.0199 -0.2946  0.3223
  109OSM    O1211180   0.391   5.093  11.115 -0.1368 -0.2037  0.1071
  109OSM    C1S11181   0.513   5.097  10.851  0.8643  0.5073  0.0030
  109OSM    H1S11182   0.410   5.063  10.878  1.6407 -0.9183  1.2399
  109OSM    H1T11183   0.562   5.000  10.833 -0.5779 -0.3483  0.5519
  109OSM     NF11184   0.386   5.123  10.635  0.2609 -0.0015  0.1182
  109OSM    HNF11185   0.417   5.050  10.575 -1.2421  0.6618 -1.5391
  109OSM    C2S11186   0.498   5.178  10.721  0.3904 -0.3293 -0.0640
  109OSM    H2S11187   0.467   5.283  10.741 -0.9326 -0.7196 -0.0274
  109OSM    C3S11188   0.642   5.187  10.655  0.4239 -0.8744 -0.2763
  109OSM    H3S11189   0.673   5.083  10.634 -1.1671 -1.4641  0.1894
  109OSM     O311190   0.736   5.264  10.725  0.0445  0.5908 -0.4594
  109OSM    HO311191   0.693   5.276  10.810  0.7544  2.3332 -0.3214
  109OSM    C4S11192   0.624   5.244  10.510 -0.1679  0.7261 -0.1258
  109OSM    H4S11193   0.602   5.174  10.428 -2.8484  1.6313 -0.2352
  109OSM    C5S11194   0.622   5.377  10.474 -0.5417 -0.1835  0.3896
  109OSM    H5S11195   0.661   5.452  10.545  1.9873 -1.9560  0.9242
  109OSM    C6S11196   0.596   5.426  10.333 -0.0014  0.0473 -0.5815
  109OSM    H6S11197   0.679   5.491  10.299  1.1709 -0.6133  1.0057
  109OSM    H6T11198   0.508   5.492  10.317 -0.4518 -0.2240  0.7474
  109OSM    C7S11199   0.567   5.317  10.216  0.8806  0.2753  0.1852
  109OSM    H7S11200   0.522   5.372  10.131 -0.0506  2.5713  2.1250
  109OSM    H7T11201   0.493   5.245  10.256  0.1121  1.8916  1.7262
  109OSM    C8S11202   0.693   5.240  10.173  1.1506 -0.1980  0.0641
  109OSM    H8S11203   0.751   5.212  10.263  0.9995 -2.1906 -0.4381
  109OSM    H8T11204   0.744   5.313  10.106  0.8777  2.0425  2.2395
  109OSM    C9S11205   0.674   5.099  10.107  0.2522 -0.2865  0.1921
  109OSM    H9S11206   0.613   5.038  10.177  0.8338 -2.1430 -0.8854
  109OSM    H9T11207   0.773   5.058  10.077  0.8263  1.4425 -0.3124
  109OSM   C10S11208   0.604   5.114   9.972  0.3238 -0.1110  0.2967
  109OSM   H10S11209   0.633   5.203   9.913  0.4405  0.1051  0.6746
  109OSM   H10T11210   0.496   5.121   9.995 -0.1062  1.8883 -2.1562
  109OSM   C11S11211   0.640   5.004   9.869 -0.7598  0.1471  0.1285
  109OSM   H11S11212   0.617   4.908   9.920 -0.4410  0.9317  1.7797
  109OSM   H11T11213   0.748   5.019   9.847 -0.4049  1.0945  2.4215
  109OSM   C12S11214   0.561   5.003   9.743  0.1398 -0.3571 -0.0313
  109OSM   H12S11215   0.542   5.106   9.705 -2.2125 -0.5517  0.5311
  109OSM   H12T11216   0.461   4.963   9.769  0.7833 -2.6650 -0.9443
  109OSM   C13S11217   0.622   4.932   9.628  0.5619  0.0359 -0.1481
  109OSM   H13S11218   0.672   4.838   9.659  0.0939 -0.2844 -0.3639
  109OSM   H13T11219   0.698   4.997   9.579  3.9215 -3.4123  0.2700
  109OSM   C14S11220   0.520   4.896   9.516 -0.5181 -0.6582  0.6982
  109OSM   H14S11221   0.491   4.988   9.460  0.6792 -0.4846  0.3450
  109OSM   H14T11222   0.428   4.850   9.557 -1.1372  2.4345  2.8948
  109OSM   C15S11223   0.571   4.794   9.406 -0.1000 -0.3762 -0.4373
  109OSM   H15S11224   0.571   4.694   9.454 -0.6404  0.4865  1.4158
  109OSM   H15T11225   0.678   4.825   9.396 -0.0887 -0.4043 -0.3994
  109OSM   C16S11226   0.493   4.801   9.274 -0.5201  0.0773 -0.1342
  109OSM   H16S11227   0.489   4.912   9.272  0.0512  0.0965 -0.4065
  109OSM   H16T11228   0.393   4.752   9.285 -1.0142  0.8250 -1.1842
  109OSM   C17S11229   0.578   4.737   9.162  0.5126 -0.0561 -0.2378
  109OSM   H17S11230   0.584   4.630   9.192 -0.5171 -0.0030  0.1618
  109OSM   H17T11231   0.679   4.783   9.167 -0.0725  1.2156 -0.0116
  109OSM   C18S11232   0.533   4.745   9.017  0.1398  0.3849  0.4740
  109OSM   H18S11233   0.600   4.675   8.961  0.1423 -1.3047  2.5238
  109OSM   H18T11234   0.556   4.845   8.975  0.1882  0.0097 -0.4068
  109OSM   H18U11235   0.427   4.732   8.990  0.3616  0.9893 -0.7160
  109OSM    C1F11236   0.263   5.134  10.670 -0.1672 -0.1845  0.6180
  109OSM     OF11237   0.229   5.212  10.761  0.1881  0.0731 -0.1504
  109OSM    C2F11238   0.154   5.053  10.600 -0.5710  0.2599  0.7091
  109OSM    H2F11239   0.056   5.075  10.647 -1.4294 -0.2380 -0.8281
  109OSM    H2G11240   0.160   4.945  10.626 -0.9238  0.4910  1.7939
  109OSM    C3F11241   0.155   5.077  10.446  0.5665 -0.2034 -0.5935
  109OSM    H3F11242   0.064   5.033  10.400  1.2759 -2.2184 -0.1172
  109OSM    H3G11243   0.242   5.033  10.391  1.1666  1.6072 -1.1400
  109OSM    C4F11244   0.134   5.232  10.412  0.1370  0.1445  0.3282
  109OSM    H4F11245   0.197   5.300  10.472  0.6002  0.0546 -0.0528
  109OSM    H4G11246   0.028   5.261  10.429  0.0789  1.1624 -1.6584
  109OSM    C5F11247   0.168   5.268  10.266 -0.6711 -0.0405 -0.5460
  109OSM    H5F11248   0.278   5.267  10.256 -0.4344  4.5744  0.5902
  109OSM    H5G11249   0.130   5.372  10.263  0.7725  0.5874  1.9280
  109OSM    C6F11250   0.104   5.178  10.158 -0.7221 -0.0554 -0.7867
  109OSM    H6F11251   0.000   5.201  10.125  0.0026  2.4779 -1.3933
  109OSM    H6G11252   0.099   5.074  10.196 -2.7363 -0.1909 -1.3689
  109OSM    C7F11253   0.189   5.172  10.031 -0.1059  0.4276 -0.3409
  109OSM    H7F11254   0.147   5.091   9.967  2.8479 -1.9516  0.6170
  109OSM    H7G11255   0.294   5.147  10.057  0.2560  0.5498 -1.6066
  109OSM    C8F11256   0.204   5.303   9.954 -0.3919  0.1792 -0.4967
  109OSM    H8F11257   0.235   5.388  10.018 -2.6804  2.7382 -2.6408
  109OSM    H8G11258   0.105   5.329   9.911 -0.3361 -0.6831 -1.1438
  109OSM    C9F11259   0.306   5.295   9.844  0.5958 -0.0542 -0.1809
  109OSM    H9F11260   0.411   5.313   9.871  2.2436 -0.5632 -5.6604
  109OSM   C10F11261   0.283   5.265   9.716  0.1283  0.7245 -0.2615
  109OSM   H10F11262   0.370   5.268   9.648  0.8341  0.4962  0.6147
  109OSM   C11F11263   0.148   5.239   9.654 -0.8097 -0.0418 -0.0692
  109OSM   H11F11264   0.123   5.326   9.589 -1.7278  0.0328  0.3823
  109OSM   H11G11265   0.070   5.243   9.733 -1.7449 -2.9752 -0.7780
  109OSM   C12F11266   0.125   5.102   9.577 -0.3120  0.4211  0.2059
  109OSM   H12F11267   0.014   5.092   9.583 -0.5253  2.2043 -0.5119
  109OSM   H12G11268   0.177   5.016   9.625 -1.0335 -0.1001  0.0678
  109OSM   C13F11269   0.156   5.118   9.429  0.2146 -0.2449 -0.3464
  109OSM   H13F11270   0.266   5.114   9.424  0.0901 -1.3240 -2.5113
  109OSM   H13G11271   0.114   5.216   9.396  0.1690 -0.4725 -0.9531
  109OSM   C14F11272   0.103   4.996   9.351  0.0977 -0.2129  0.8104
  109OSM   H14F11273  -0.007   4.992   9.365 -0.5662 -1.8654 -3.9607
  109OSM   H14G11274   0.151   4.908   9.397 -0.4405 -0.3661  1.0845
  109OSM   C15F11275   0.122   5.002   9.198  0.0479 -0.0997  0.0707
  109OSM   H15F11276   0.231   4.999   9.175 -0.3772 -2.3726 -1.8562
  109OSM   H15G11277   0.083   5.096   9.153 -0.4186 -0.7045 -0.8119
  109OSM   C16F11278   0.061   4.886   9.124 -0.3780 -0.2212 -0.4095
  109OSM   H16F11279  -0.050   4.893   9.122 -0.3397  0.7571  0.7570
  109OSM   H16G11280   0.086   4.790   9.176  0.6634  0.6022  0.6332
  109OSM   C17F11281   0.103   4.875   8.974 -0.2748  0.2205  0.1217
  109OSM   H17F11282   0.091   4.766   8.952 -1.3881  0.3852 -0.1118
  109OSM   H17G11283   0.211   4.901   8.965  0.3372 -2.0397  0.6133
  109OSM   C18F11284   0.018   4.954   8.870  0.2475 -0.4639 -0.2595
  109OSM   H18F11285   0.009   5.063   8.892  0.5649 -0.3948 -0.4751
  109OSM   H18G11286  -0.086   4.916   8.881  0.1941 -0.5336 -0.9760
  109OSM   H18H11287   0.052   4.928   8.768  2.2197 -0.8706  0.4823
  110OSM      N11288   1.278   4.397  10.793  1.0830 -0.8310  0.2490
  110OSM    C1511289   1.277   4.496  10.686 -0.0987  0.0326 -0.4308
  110OSM   H15A11290   1.215   4.580  10.714 -1.1663 -1.2751  1.2539
  110OSM   H15B11291   1.237   4.461  10.592 -1.3900 -0.0209  0.1267
  110OSM   H15C11292   1.377   4.530  10.664 -0.5535 -0.2934 -3.1499
  110OSM    C1411293   1.343   4.435  10.917  0.3253 -0.3317  0.7435
  110OSM   H14A11294   1.449   4.456  10.909 -0.0868  0.9349 -1.9331
  110OSM   H14B11295   1.345   4.352  10.986 -1.3316 -1.4028 -0.4524
  110OSM   H14C11296   1.300   4.517  10.971 -0.2212 -0.2822  0.2371
  110OSM    C1311297   1.128   4.368  10.820 -0.4775  0.7493 -0.2151
  110OSM   H13A11298   1.116   4.276  10.876  0.7092  0.5041 -0.3629
  110OSM   H13B11299   1.079   4.352  10.725  0.8912  0.2812 -0.8540
  110OSM   H13C11300   1.088   4.449  10.880 -0.3948 -0.3062  1.2950
  110OSM    C1211301   1.348   4.271  10.749  0.2655 -0.1822 -0.0043
  110OSM   H12A11302   1.449   4.284  10.713 -0.0778  2.1427 -0.2298
  110OSM   H12B11303   1.290   4.233  10.666 -0.4054  2.8651 -1.0297
  110OSM    C1111304   1.351   4.159  10.857  0.0248 -0.4225  0.4433
  110OSM   H11A11305   1.336   4.063  10.804  2.6330  0.2714 -1.6701
  110OSM   H11B11306   1.264   4.179  10.923 -0.6145  2.5077 -1.2043
  110OSM      P11307   1.610   4.135  10.880 -0.2936 -0.2090  0.2444
  110OSM    O1311308   1.692   4.253  10.927  0.0016 -0.6701  0.3702
  110OSM    O1411309   1.644   3.999  10.919  0.2207  0.1874 -0.0158
  110OSM    O1111310   1.594   4.140  10.723  0.0705  0.2470  0.1108
  110OSM    O1211311   1.468   4.165  10.942 -0.1438 -0.2527  0.3069
  110OSM    C1S11312   1.590   4.028  10.635 -0.2901  0.1987  0.0258
  110OSM    H1S11313   1.483   4.000  10.625 -0.3232  0.8861 -1.5644
  110OSM    H1T11314   1.633   3.938  10.684 -1.9703 -0.9943 -0.6598
  110OSM     NF11315   1.593   3.963  10.387  0.5367 -0.0519 -0.1259
  110OSM    HNF11316   1.662   3.906  10.344  1.1092  0.0825  0.5970
  110OSM    C2S11317   1.648   4.046  10.492  0.1821  0.0801 -0.2465
  110OSM    H2S11318   1.626   4.150  10.457  1.1916  0.7913  1.1838
  110OSM    C3S11319   1.800   4.044  10.486 -0.5097 -0.0675  0.4524
  110OSM    H3S11320   1.828   3.944  10.527 -1.8951 -0.1250  1.2936
  110OSM     O311321   1.867   4.125  10.579  0.4561  0.0824 -0.5308
  110OSM    HO311322   1.799   4.163  10.636  0.2389 -0.4933 -0.3977
  110OSM    C4S11323   1.851   4.068  10.347  0.0713 -0.4503 -0.6950
  110OSM    H4S11324   1.812   4.150  10.284 -2.2255  0.5648  1.9483
  110OSM    C5S11325   1.935   3.981  10.287  0.4803  0.5330 -0.2652
  110OSM    H5S11326   1.958   3.890  10.344 -2.0626 -1.0741 -1.7339
  110OSM    C6S11327   2.002   3.995  10.148  0.0028  0.1484 -0.1724
  110OSM    H6S11328   1.969   3.914  10.080 -1.5766 -0.7267  1.5758
  110OSM    H6T11329   2.109   3.970  10.163 -0.7402 -2.0500  1.7641
  110OSM    C7S11330   1.981   4.133  10.079 -0.4731  0.5471 -0.2937
  110OSM    H7S11331   2.029   4.212  10.141  1.3571 -0.0792 -0.8953
  110OSM    H7T11332   1.874   4.161  10.066  0.1685  2.7328 -1.0706
  110OSM    C8S11333   2.061   4.144   9.951  0.5710 -0.0822 -0.6286
  110OSM    H8S11334   2.155   4.091   9.976  0.2987  0.3706  1.5014
  110OSM    H8T11335   2.079   4.249   9.920 -1.1525 -0.1801 -2.0268
  110OSM    C9S11336   2.011   4.080   9.830 -0.1793  0.0312  0.4003
  110OSM    H9S11337   1.911   4.126   9.815  0.3060  2.2366  3.3248
  110OSM    H9T11338   1.992   3.972   9.848 -2.0779  0.3547  0.4504
  110OSM   C10S11339   2.089   4.100   9.701 -0.3851  0.5809  0.1561
  110OSM   H10S11340   2.179   4.035   9.709 -0.8508 -0.0611  0.1245
  110OSM   H10T11341   2.131   4.203   9.702  1.2608 -0.0617 -0.4248
  110OSM   C11S11342   2.005   4.066   9.576 -0.0712 -0.7756 -0.5565
  110OSM   H11S11343   1.910   4.125   9.578  0.0573 -0.5917  0.4249
  110OSM   H11T11344   1.969   3.961   9.568 -1.8065 -0.3337  0.9162
  110OSM   C12S11345   2.074   4.092   9.440  0.7808 -0.4214  0.6433
  110OSM   H12S11346   2.161   4.024   9.437 -0.6057 -2.2206 -1.7541
  110OSM   H12T11347   2.113   4.196   9.437 -0.8615  0.1940 -0.3717
  110OSM   C13S11348   1.988   4.064   9.312  0.0033 -0.1024  0.2663
  110OSM   H13S11349   1.891   4.117   9.317  1.3997  2.6075 -0.4438
  110OSM   H13T11350   1.965   3.955   9.315 -0.3727 -0.0457 -0.5553
  110OSM   C14S11351   2.073   4.100   9.187 -0.0487  0.3737 -0.0996
  110OSM   H14S11352   2.179   4.073   9.202  0.4120  1.4407 -1.3518
  110OSM   H14T11353   2.060   4.210   9.179 -1.5892  0.0417 -2.6186
  110OSM   C15S11354   2.019   4.027   9.058  0.0183  0.0597  0.3007
  110OSM   H15S11355   2.065   4.081   8.972  2.6084  0.9821  2.2021
  110OSM   H15T11356   1.910   4.040   9.043 -0.1076  3.1950  3.1702
  110OSM   C16S11357   2.062   3.882   9.052 -1.1465  0.6639  0.1327
  110OSM   H16S11358   2.022   3.821   9.136 -0.8503 -1.0924 -0.9738
  110OSM   H16T11359   2.173   3.881   9.060 -1.0415  0.1511 -1.3831
  110OSM   C17S11360   2.028   3.814   8.919  0.0292  0.5492 -0.0032
  110OSM   H17S11361   1.919   3.810   8.902  0.0977 -0.4045 -0.2426
  110OSM   H17T11362   2.070   3.711   8.926  1.3196  1.1981  2.4135
  110OSM   C18S11363   2.104   3.878   8.801 -0.0295 -0.2561 -0.5320
  110OSM   H18S11364   2.083   3.812   8.715 -2.0844 -0.5018  0.1230
  110OSM   H18T11365   2.213   3.887   8.824  0.0664  0.1982 -1.1495
  110OSM   H18U11366   2.061   3.979   8.785  1.7961  0.5132 -0.7441
  110OSM    C1F11367   1.464   3.965  10.351 -0.2181 -0.5856 -0.9147
  110OSM     OF11368   1.393   4.055  10.389  0.3500  0.2395 -0.1034
  110OSM    C2F11369   1.406   3.850  10.280  0.3003 -0.2027 -0.0360
  110OSM    H2F11370   1.309   3.827  10.330  0.2816 -1.9468 -0.8553
  110OSM    H2G11371   1.480   3.769  10.298  1.9202  1.6258  1.8621
  110OSM    C3F11372   1.390   3.866  10.129  0.1904 -0.7279  0.2311
  110OSM    H3F11373   1.337   3.957  10.094 -0.5735 -1.8997 -1.7313
  110OSM    H3G11374   1.319   3.791  10.089 -0.1874  1.4512 -3.3839
  110OSM    C4F11375   1.520   3.857  10.048  0.0448  0.1397 -0.1951
  110OSM    H4F11376   1.584   3.773  10.083  0.0085  0.0582 -0.3243
  110OSM    H4G11377   1.582   3.948  10.059 -0.7821  0.5339  1.3303
  110OSM    C5F11378   1.496   3.836   9.905  0.3948 -0.2877  0.6409
  110OSM    H5F11379   1.407   3.888   9.863  0.9691  1.2472  1.3117
  110OSM    H5G11380   1.465   3.731   9.886  1.1838 -0.2587 -0.8987
  110OSM    C6F11381   1.613   3.865   9.812 -0.3684 -0.1564 -0.6568
  110OSM    H6F11382   1.714   3.844   9.854 -0.0651  0.2250 -1.1851
  110OSM    H6G11383   1.608   3.975   9.793 -0.5848 -0.3341 -1.6747
  110OSM    C7F11384   1.604   3.786   9.677 -0.0882  0.3060 -0.2685
  110OSM    H7F11385   1.500   3.798   9.641  0.4977  1.3083 -1.6487
  110OSM    H7G11386   1.619   3.678   9.702 -0.9933  0.3696  0.5625
  110OSM    C8F11387   1.706   3.827   9.568  0.4561 -1.0548 -0.1966
  110OSM    H8F11388   1.719   3.756   9.483  2.9458  1.3693 -1.9082
  110OSM    H8G11389   1.806   3.833   9.616  0.1319  1.5901  0.1855
  110OSM    C9F11390   1.662   3.962   9.514  0.0766 -0.1241  0.5603
  110OSM    H9F11391   1.699   4.052   9.565  3.3916 -0.0504 -1.8154
  110OSM   C10F11392   1.583   3.977   9.406  0.1634  0.8020  0.5164
  110OSM   H10F11393   1.564   4.079   9.368 -0.5158  0.6268  0.3854
  110OSM   C11F11394   1.520   3.863   9.322  0.6032  0.0293 -0.3239
  110OSM   H11F11395   1.412   3.887   9.319  0.8192  1.0473 -0.0694
  110OSM   H11G11396   1.525   3.766   9.377 -0.8266  1.3487  2.2373
  110OSM   C12F11397   1.580   3.836   9.178  0.2373  0.7377  0.0062
  110OSM   H12F11398   1.526   3.749   9.136  2.8467  0.7447 -3.6077
  110OSM   H12G11399   1.689   3.814   9.177  0.4876  1.8845  1.0648
  110OSM   C13F11400   1.565   3.957   9.088  0.4515  0.0771 -0.1254
  110OSM   H13F11401   1.608   4.037   9.152  3.4487 -2.0456  0.6317
  110OSM   H13G11402   1.460   3.983   9.064  0.7495  1.8146  0.3488
  110OSM   C14F11403   1.645   3.957   8.959 -0.3782 -0.1463  0.1954
  110OSM   H14F11404   1.600   3.880   8.892  2.9365  0.9021 -3.3918
  110OSM   H14G11405   1.749   3.931   8.989 -0.6624 -0.3156  1.0716
  110OSM   C15F11406   1.636   4.097   8.889  0.1548 -0.1607  0.0329
  110OSM   H15F11407   1.664   4.168   8.970  3.7113 -2.2574  0.7541
  110OSM   H15G11408   1.530   4.105   8.857  0.2331 -2.9479 -1.0696
  110OSM   C16F11409   1.728   4.132   8.774 -0.2317  0.2021  0.1220
  110OSM   H16F11410   1.710   4.062   8.690  0.1399  0.4685 -0.1792
  110OSM   H16G11411   1.829   4.115   8.817  1.2988 -0.2109 -3.4847
  110OSM   C17F11412   1.697   4.280   8.729  0.8821 -0.8500  0.0338
  110OSM   H17F11413   1.697   4.344   8.820  0.0603  1.2389 -1.4101
  110OSM   H17G11414   1.591   4.274   8.699  1.2477  1.7734 -1.8704
  110OSM   C18F11415   1.791   4.332   8.616 -0.2756  0.5059 -0.0846
  110OSM   H18F11416   1.788   4.260   8.531  0.1471  0.8306 -0.3762
  110OSM   H18G11417   1.896   4.337   8.652  0.1392 -0.6714 -1.0852
  110OSM   H18H11418   1.761   4.434   8.584  0.0922  0.8072  0.5224
  111OSM      N11419   1.935   2.202  10.916 -0.2197  0.1652 -0.2601
  111OSM    C1511420   1.909   2.330  10.849  0.1706  0.0609  0.3673
  111OSM   H15A11421   1.949   2.408  10.912  0.2297 -0.4122  0.9193
  111OSM   H15B11422   1.806   2.359  10.836 -0.1674 -2.1045 -2.2429
  111OSM   H15C11423   1.952   2.334  10.750 -0.7705  0.9156 -0.0134
  111OSM    C1411424   1.867   2.195  11.042  0.0774  0.7400 -0.7095
  111OSM   H14A11425   1.875   2.288  11.097 -1.2210 -0.2409  1.1890
  111OSM   H14B11426   1.901   2.111  11.100  0.9242  1.4328 -0.1764
  111OSM   H14C11427   1.764   2.164  11.032  0.4708 -0.3186 -1.4959
  111OSM    C1311428   1.880   2.102  10.822  0.3816 -0.3806  0.0937
  111OSM   H13A11429   1.937   2.095  10.730 -0.3200  0.8816 -0.4571
  111OSM   H13B11430   1.779   2.137  10.804  0.6648  1.6431  2.2468
  111OSM   H13C11431   1.878   2.004  10.865 -0.9880  0.7352  2.6896
  111OSM    C1211432   2.091   2.177  10.943  0.1445 -0.0938 -0.1723
  111OSM   H12A11433   2.110   2.076  10.976  0.1250 -0.5739 -1.6084
  111OSM   H12B11434   2.131   2.246  11.015  0.6615  0.1892 -0.7236
  111OSM    C1111435   2.182   2.206  10.821  0.1979 -0.4439 -0.2747
  111OSM   H11A11436   2.287   2.205  10.859  1.5883 -1.2281 -3.8786
  111OSM   H11B11437   2.165   2.309  10.781 -0.4443 -0.2852  0.4139
  111OSM      P11438   2.261   2.061  10.620 -0.0933 -0.1790  0.0133
  111OSM    O1311439   2.390   2.133  10.646  0.0073  0.2020 -0.9037
  111OSM    O1411440   2.262   1.913  10.620  0.4467  0.2285 -0.1111
  111OSM    O1111441   2.199   2.108  10.486  0.5302  0.0980 -0.0894
  111OSM    O1211442   2.154   2.105  10.725  0.1754  0.3533  0.7201
  111OSM    C1S11443   2.102   2.217  10.474  0.3765 -0.9531 -0.3141
  111OSM    H1S11444   2.131   2.289  10.553  2.2313 -0.4919 -1.3974
  111OSM    H1T11445   1.996   2.188  10.493  0.7192 -0.8226  1.9136
  111OSM     NF11446   2.063   2.417  10.326 -0.1520  0.3738 -0.0003
  111OSM    HNF11447   1.975   2.421  10.280 -0.2248 -0.0310  0.1004
  111OSM    C2S11448   2.117   2.285  10.337 -0.1663 -0.4788  0.8192
  111OSM    H2S11449   2.226   2.294  10.318 -0.5662 -0.2974 -1.5127
  111OSM    C3S11450   2.067   2.184  10.218  0.2906  0.1384 -0.9375
  111OSM    H3S11451   1.962   2.154  10.235  0.4421 -0.4777 -1.0679
  111OSM     O311452   2.138   2.064  10.215  0.3419  0.1677  0.7849
  111OSM    HO311453   2.182   2.059  10.300 -0.0110 -0.9482  0.9059
  111OSM    C4S11454   2.091   2.254  10.085 -0.5302 -0.2736  0.1682
  111OSM    H4S11455   2.192   2.296  10.077  0.2896 -2.5152 -2.1016
  111OSM    C5S11456   2.016   2.250   9.974  0.1127  0.0928  0.0416
  111OSM    H5S11457   1.928   2.183   9.973 -0.8640  1.3519  0.5544
  111OSM    C6S11458   2.050   2.321   9.840 -0.7949  0.1314  0.2640
  111OSM    H6S11459   1.999   2.420   9.842  0.3103  0.7560 -1.4065
  111OSM    H6T11460   2.011   2.266   9.752 -0.0039 -3.9658  2.3681
  111OSM    C7S11461   2.199   2.347   9.805 -0.2244  0.1575  1.1711
  111OSM    H7S11462   2.261   2.256   9.799  1.5980  1.4606 -0.3749
  111OSM    H7T11463   2.240   2.412   9.886  0.2364 -0.5957  1.5450
  111OSM    C8S11464   2.197   2.416   9.668 -0.6760 -0.5425 -0.9873
  111OSM    H8S11465   2.119   2.495   9.659 -0.2317  0.0708  0.3882
  111OSM    H8T11466   2.169   2.336   9.596  1.7500 -2.8445  0.5270
  111OSM    C9S11467   2.332   2.480   9.633  0.7091 -0.1959  0.3946
  111OSM    H9S11468   2.413   2.406   9.650  1.5492  0.7463  0.5669
  111OSM    H9T11469   2.345   2.559   9.711  0.5865  1.2738 -1.0405
  111OSM   C10S11470   2.335   2.562   9.497 -0.0220  0.1403  0.1337
  111OSM   H10S11471   2.429   2.623   9.499  0.6851 -0.9477  0.4275
  111OSM   H10T11472   2.246   2.628   9.498 -1.1315 -1.3137 -1.1746
  111OSM   C11S11473   2.349   2.471   9.380  0.5728  0.6497 -0.1221
  111OSM   H11S11474   2.264   2.401   9.363  1.7527 -0.8940  0.2306
  111OSM   H11T11475   2.445   2.416   9.384 -0.0976 -0.4729  0.9219
  111OSM   C12S11476   2.350   2.556   9.255  0.0403  0.3160 -0.0864
  111OSM   H12S11477   2.440   2.620   9.259  1.1738 -1.2594 -0.0895
  111OSM   H12T11478   2.259   2.621   9.258  0.2587  0.6255 -0.1523
  111OSM   C13S11479   2.356   2.476   9.122 -0.2793  0.1087 -0.2908
  111OSM   H13S11480   2.362   2.551   9.040 -0.8775 -0.2835 -0.6976
  111OSM   H13T11481   2.257   2.430   9.101 -0.4959 -0.5378  2.0156
  111OSM   C14S11482   2.455   2.364   9.109  0.3948  0.0177 -0.3834
  111OSM   H14S11483   2.418   2.270   9.155  0.4374  1.5137  2.8868
  111OSM   H14T11484   2.547   2.399   9.162  0.2472  2.6041 -1.7453
  111OSM   C15S11485   2.501   2.333   8.966  0.4912 -0.0246  0.3498
  111OSM   H15S11486   2.541   2.430   8.930  1.3054 -0.2249  0.7122
  111OSM   H15T11487   2.409   2.305   8.910 -0.4579  0.7652  1.4936
  111OSM   C16S11488   2.609   2.231   8.948 -0.0666 -0.4728  0.8413
  111OSM   H16S11489   2.582   2.135   8.996 -0.9368 -0.6333  0.0452
  111OSM   H16T11490   2.701   2.262   9.002  0.8862 -1.7555 -0.0182
  111OSM   C17S11491   2.633   2.194   8.798 -0.0415  0.5194  0.3087
  111OSM   H17S11492   2.732   2.144   8.785 -0.2987  0.2456 -0.6496
  111OSM   H17T11493   2.645   2.291   8.746 -2.2511  1.0166  0.7042
  111OSM   C18S11494   2.519   2.111   8.735  0.4950  0.7598 -0.7084
  111OSM   H18S11495   2.418   2.156   8.749  0.2276 -0.5417  1.7816
  111OSM   H18T11496   2.521   2.011   8.783  2.0987  1.7043  1.2665
  111OSM   H18U11497   2.540   2.092   8.628 -2.5062 -0.3044 -1.1623
  111OSM    C1F11498   2.108   2.525  10.395  0.0072 -0.4934 -0.0562
  111OSM     OF11499   2.196   2.510  10.479 -0.2997  0.3901  0.4017
  111OSM    C2F11500   2.062   2.665  10.350  0.4191 -0.0809  0.0211
  111OSM    H2F11501   2.048   2.730  10.439 -1.9499 -0.9408  0.3093
  111OSM    H2G11502   1.965   2.650  10.297 -0.8172  1.5196  1.7704
  111OSM    C3F11503   2.170   2.726  10.263 -0.7016  0.2447 -0.3409
  111OSM    H3F11504   2.267   2.722  10.316 -0.0017 -1.2704 -1.7025
  111OSM    H3G11505   2.140   2.832  10.246 -3.9800 -0.0275  2.9345
  111OSM    C4F11506   2.192   2.666  10.124 -0.2596 -0.0885 -0.3604
  111OSM    H4F11507   2.098   2.688  10.069 -0.1347  1.2701 -0.0511
  111OSM    H4G11508   2.202   2.555  10.130 -2.8170 -0.2310  2.3147
  111OSM    C5F11509   2.314   2.723  10.053  0.4977 -0.1450 -0.2534
  111OSM    H5F11510   2.354   2.649   9.981  0.6288 -0.0319 -0.2966
  111OSM    H5G11511   2.394   2.737  10.129  1.1628 -0.9705 -0.7948
  111OSM    C6F11512   2.263   2.830   9.963  0.5526 -0.6011  0.2271
  111OSM    H6F11513   2.199   2.898  10.022  0.7146  1.2716 -1.6933
  111OSM    H6G11514   2.192   2.777   9.896 -1.3150 -0.1803  1.8466
  111OSM    C7F11515   2.370   2.922   9.903 -0.1270 -0.0227  0.3044
  111OSM    H7F11516   2.443   2.950   9.982 -0.0851 -0.0771  0.2854
  111OSM    H7G11517   2.330   3.023   9.878  0.0678 -0.1266 -0.4512
  111OSM    C8F11518   2.458   2.851   9.798  0.3923 -0.5962 -0.1338
  111OSM    H8F11519   2.462   2.743   9.824 -1.7326 -0.8267 -0.6820
  111OSM    H8G11520   2.560   2.890   9.817 -0.0148 -1.1284  3.6063
  111OSM    C9F11521   2.404   2.886   9.660 -0.1431  0.4797  0.1112
  111OSM    H9F11522   2.296   2.905   9.656 -0.3440 -0.5151  0.6996
  111OSM   C10F11523   2.486   2.910   9.552 -0.2533  0.4870 -0.0957
  111OSM   H10F11524   2.429   2.922   9.458 -0.6481  1.6512  0.2786
  111OSM   C11F11525   2.635   2.911   9.542 -0.1937  0.6579  0.6593
  111OSM   H11F11526   2.665   2.879   9.644  3.4892  2.8471  0.3584
  111OSM   H11G11527   2.667   3.015   9.520 -1.5232  0.5488 -1.9442
  111OSM   C12F11528   2.704   2.821   9.447  0.1862 -0.3374 -0.4980
  111OSM   H12F11529   2.686   2.712   9.456  0.3143 -0.7275 -4.1838
  111OSM   H12G11530   2.808   2.824   9.486 -0.3184 -1.9562  1.0405
  111OSM   C13F11531   2.684   2.874   9.303  0.2577  0.0997 -0.7484
  111OSM   H13F11532   2.705   2.983   9.298 -2.0544  0.7233  2.0258
  111OSM   H13G11533   2.579   2.855   9.273 -0.4069  0.4622  1.2440
  111OSM   C14F11534   2.776   2.810   9.197  0.1541  0.8839  0.2423
  111OSM   H14F11535   2.757   2.703   9.222  2.5747  0.4482  0.3678
  111OSM   H14G11536   2.881   2.822   9.230  0.8391  1.2878 -2.0526
  111OSM   C15F11537   2.749   2.857   9.056  0.1829  0.4541 -0.0293
  111OSM   H15F11538   2.838   2.828   8.996  1.3627  0.2912  1.7547
  111OSM   H15G11539   2.756   2.968   9.046 -0.3328  0.5426  0.5243
  111OSM   C16F11540   2.625   2.791   8.990 -0.2360 -0.5407 -0.4253
  111OSM   H16F11541   2.540   2.819   9.055 -0.6936 -0.8374 -0.8926
  111OSM   H16G11542   2.639   2.681   8.985  0.4813 -0.4094 -1.5571
  111OSM   C17F11543   2.597   2.847   8.852 -0.0607  0.1454 -0.4956
  111OSM   H17F11544   2.677   2.806   8.787  0.2626  0.5522 -0.3590
  111OSM   H17G11545   2.603   2.958   8.847 -1.9310  0.2849 -0.0398
  111OSM   C18F11546   2.453   2.810   8.806 -0.5493  0.3914  1.1808
  111OSM   H18F11547   2.366   2.846   8.865 -1.2092  1.7301 -0.5762
  111OSM   H18G11548   2.445   2.699   8.804 -2.7209  0.5222  1.3672
  111OSM   H18H11549   2.440   2.848   8.703  1.6343 -0.1140  0.6876
  112OSM      N11550   1.358   6.670  11.212  0.1206  0.2677  0.1455
  112OSM    C1511551   1.430   6.600  11.318 -0.3966  0.1759 -0.6787
  112OSM   H15A11552   1.403   6.495  11.315  0.6148 -0.0558 -2.1100
  112OSM   H15B11553   1.394   6.621  11.418  0.9866 -1.3545  0.1662
  112OSM   H15C11554   1.538   6.603  11.314 -0.3096  0.1318  1.3033
  112OSM    C1411555   1.210   6.654  11.228 -0.3801  0.8595 -0.2526
  112OSM   H14A11556   1.182   6.696  11.324  0.6399 -0.2726  0.5366
  112OSM   H14B11557   1.175   6.552  11.227  2.3435 -0.1341  1.7300
  112OSM   H14C11558   1.153   6.712  11.156 -0.4727  1.3997  0.2516
  112OSM    C1311559   1.389   6.817  11.217 -0.2378  0.4533  0.2905
  112OSM   H13A11560   1.493   6.843  11.234 -0.2086  1.2349 -0.9994
  112OSM   H13B11561   1.339   6.877  11.292  0.7023  1.3846  0.1782
  112OSM   H13C11562   1.361   6.862  11.123  1.0873 -0.3424 -0.5017
  112OSM    C1211563   1.403   6.612  11.085 -0.0140  0.0623  0.3117
  112OSM   H12A11564   1.379   6.507  11.082 -2.2345  0.5410  0.5220
  112OSM   H12B11565   1.510   6.625  11.079  0.1214 -0.1980  1.9725
  112OSM    C1111566   1.337   6.662  10.952  0.0933  0.4660 -0.4946
  112OSM   H11A11567   1.230   6.632  10.954  0.6732 -1.6212  0.4632
  112OSM   H11B11568   1.386   6.606  10.870 -1.2175 -1.9275  0.2966
  112OSM      P11569   1.425   6.895  10.842 -0.4361 -0.1816  0.4404
  112OSM    O1311570   1.355   7.020  10.813  0.1187 -0.1140 -0.1201
  112OSM    O1411571   1.546   6.916  10.922 -0.0335 -0.3303 -0.1186
  112OSM    O1111572   1.446   6.801  10.721 -0.1195 -0.7889  0.4137
  112OSM    O1211573   1.327   6.805  10.932  0.9603 -0.4873  0.2550
  112OSM    C1S11574   1.351   6.785  10.614 -0.2152  0.4395  0.3559
  112OSM    H1S11575   1.339   6.883  10.562 -1.4550  0.5939  0.9205
  112OSM    H1T11576   1.255   6.741  10.647 -0.2883  1.4646  1.5383
  112OSM     NF11577   1.306   6.661  10.403  0.0889  0.6217  0.0576
  112OSM    HNF11578   1.241   6.585  10.406  1.3146 -0.4345 -0.0497
  112OSM    C2S11579   1.401   6.681  10.506  0.0683  0.3114  0.4888
  112OSM    H2S11580   1.498   6.719  10.468  0.3766 -2.9172 -2.2134
  112OSM    C3S11581   1.437   6.547  10.573 -0.2602 -0.1284 -0.3252
  112OSM    H3S11582   1.349   6.504  10.626 -0.9123 -1.9133 -2.7483
  112OSM     O311583   1.531   6.559  10.670  0.5054 -0.7019 -0.4102
  112OSM    HO311584   1.546   6.653  10.686  1.1416 -0.7922 -0.4604
  112OSM    C4S11585   1.473   6.444  10.475 -0.0086 -0.0296  0.0363
  112OSM    H4S11586   1.389   6.383  10.439 -0.4121  0.7422 -0.3603
  112OSM    C5S11587   1.599   6.404  10.435 -0.2224 -0.1474  0.0510
  112OSM    H5S11588   1.687   6.456  10.477  0.2160  0.1600 -1.2026
  112OSM    C6S11589   1.629   6.296  10.338  0.2722 -0.0118 -0.3772
  112OSM    H6S11590   1.567   6.210  10.371 -0.4896  0.0600 -1.5949
  112OSM    H6T11591   1.734   6.262  10.344  0.3224 -0.1276 -1.6402
  112OSM    C7S11592   1.609   6.337  10.197 -0.2666  0.2861  0.6194
  112OSM    H7S11593   1.673   6.266  10.141  3.2330  1.1422  3.3523
  112OSM    H7T11594   1.647   6.440  10.180  2.3454 -0.6566  0.6604
  112OSM    C8S11595   1.467   6.338  10.149 -0.1965  0.3818  0.6781
  112OSM    H8S11596   1.412   6.413  10.209  0.4521  0.9778  0.5252
  112OSM    H8T11597   1.421   6.242  10.181  3.3290 -1.1625  1.3553
  112OSM    C9S11598   1.450   6.353   9.998  1.0173 -0.3623  0.4021
  112OSM    H9S11599   1.489   6.258   9.956  0.6550 -1.3871  2.2861
  112OSM    H9T11600   1.499   6.440   9.951  1.1333 -0.5785  0.1255
  112OSM   C10S11601   1.301   6.375   9.961  0.8774  0.2069  0.0097
  112OSM   H10S11602   1.256   6.460  10.016 -1.2616  0.0265 -1.3718
  112OSM   H10T11603   1.242   6.284   9.983 -2.1784  1.7178 -1.5494
  112OSM   C11S11604   1.283   6.411   9.807  0.4970  0.6179  0.2821
  112OSM   H11S11605   1.361   6.488   9.788  0.2188  0.2869 -2.4799
  112OSM   H11T11606   1.179   6.446   9.792 -0.0707 -2.0258 -2.7167
  112OSM   C12S11607   1.312   6.293   9.711  0.6884  0.3592 -0.1353
  112OSM   H12S11608   1.251   6.205   9.741  0.8593  0.4063  0.3472
  112OSM   H12T11609   1.418   6.261   9.718  0.6424  0.5939  1.6732
  112OSM   C13S11610   1.255   6.318   9.568 -0.2563  0.0215  0.3523
  112OSM   H13S11611   1.147   6.345   9.566 -0.7492 -1.7443  1.5291
  112OSM   H13T11612   1.263   6.221   9.513  0.1561  0.1322  0.2128
  112OSM   C14S11613   1.327   6.427   9.491  0.6879 -0.1357  0.2797
  112OSM   H14S11614   1.434   6.399   9.485  1.1271  1.4566  0.4726
  112OSM   H14T11615   1.314   6.529   9.533  0.5245  0.0743 -0.2660
  112OSM   C15S11616   1.278   6.441   9.341 -0.6175 -0.1407 -0.0382
  112OSM   H15S11617   1.313   6.343   9.301  1.1181 -0.5416  2.3055
  112OSM   H15T11618   1.332   6.533   9.309  1.2397 -0.9030  0.8045
  112OSM   C16S11619   1.131   6.465   9.333  0.1318  0.1481 -0.0287
  112OSM   H16S11620   1.111   6.542   9.411 -0.1863 -0.1778  0.2139
  112OSM   H16T11621   1.076   6.375   9.366  0.8379 -1.7011 -3.6153
  112OSM   C17S11622   1.066   6.502   9.193  0.1531  0.4699  0.5421
  112OSM   H17S11623   1.116   6.593   9.151 -3.1777  2.0330 -0.2100
  112OSM   H17T11624   0.962   6.541   9.199 -0.4373 -1.3016  2.6873
  112OSM   C18S11625   1.073   6.381   9.101  0.2401  0.5597 -0.1231
  112OSM   H18S11626   1.012   6.297   9.141  2.0064 -1.6272 -1.9129
  112OSM   H18T11627   1.178   6.348   9.086 -0.0291 -0.3226 -0.1085
  112OSM   H18U11628   1.038   6.397   8.997  0.3620 -2.3224 -0.6630
  112OSM    C1F11629   1.289   6.759  10.312 -0.0501 -0.1938 -0.2139
  112OSM     OF11630   1.341   6.870  10.325 -0.0576 -0.4096 -0.4725
  112OSM    C2F11631   1.181   6.732  10.206 -0.5321 -0.7113  0.5783
  112OSM    H2F11632   1.111   6.649  10.230  2.3590 -3.2338  0.4878
  112OSM    H2G11633   1.238   6.691  10.120  0.3928  0.2454  0.7278
  112OSM    C3F11634   1.095   6.848  10.160  0.4153 -1.2674 -0.0094
  112OSM    H3F11635   1.169   6.926  10.130 -0.0991 -0.1158  1.6295
  112OSM    H3G11636   1.032   6.879  10.246  1.8925 -0.4543  0.7985
  112OSM    C4F11637   1.020   6.809  10.029 -0.0398 -0.0946  0.0087
  112OSM    H4F11638   1.097   6.797   9.949  1.1860  2.2702  0.7731
  112OSM    H4G11639   0.945   6.886  10.001  1.1475  1.2802  0.5094
  112OSM    C5F11640   0.952   6.674  10.027  0.0021  0.4198  0.2000
  112OSM    H5F11641   0.856   6.677  10.082 -1.0665  0.9796 -1.6904
  112OSM    H5G11642   1.002   6.583  10.068  1.1482  0.1675 -1.7040
  112OSM    C6F11643   0.929   6.632   9.882 -0.9453 -0.1871  0.7512
  112OSM    H6F11644   1.025   6.597   9.838 -0.9741  0.2631  0.3282
  112OSM    H6G11645   0.892   6.720   9.827 -0.8977 -0.8099 -0.2901
  112OSM    C7F11646   0.824   6.518   9.876  0.2781 -0.3693  0.0661
  112OSM    H7F11647   0.790   6.487   9.977 -1.6540  1.1144 -0.0909
  112OSM    H7G11648   0.875   6.429   9.832  0.8975 -0.5768  1.1896
  112OSM    C8F11649   0.704   6.572   9.786  0.5489  0.0400  1.0888
  112OSM    H8F11650   0.665   6.660   9.842 -1.8021 -0.9347  1.0466
  112OSM    H8G11651   0.616   6.505   9.778  0.5647 -0.0343  1.4943
  112OSM    C9F11652   0.756   6.619   9.652  0.9702  0.3109 -0.0032
  112OSM    H9F11653   0.752   6.726   9.629 -1.1988  0.1650 -0.4436
  112OSM   C10F11654   0.804   6.541   9.550 -0.3487 -0.3390  0.3205
  112OSM   H10F11655   0.843   6.584   9.458  1.6998  0.1085  1.3797
  112OSM   C11F11656   0.814   6.389   9.538  0.3656  0.1926  0.2281
  112OSM   H11F11657   0.781   6.341   9.632 -2.3328  3.8628  1.3103
  112OSM   H11G11658   0.907   6.349   9.493  0.2959 -0.8186  0.9702
  112OSM   C12F11659   0.711   6.334   9.441  0.2745  0.6218 -0.2333
  112OSM   H12F11660   0.611   6.355   9.486  0.6002  1.9149 -0.0853
  112OSM   H12G11661   0.716   6.223   9.439  2.4397  0.6881  0.5190
  112OSM   C13F11662   0.721   6.378   9.290  0.2612 -0.1649 -0.3504
  112OSM   H13F11663   0.827   6.393   9.262  0.6126  0.3629  1.2129
  112OSM   H13G11664   0.670   6.476   9.275  0.4385  0.2542  1.6522
  112OSM   C14F11665   0.652   6.275   9.210  0.2911 -0.2474  0.0135
  112OSM   H14F11666   0.544   6.265   9.232  0.0199  1.2350 -0.5861
  112OSM   H14G11667   0.693   6.172   9.217  2.4257  0.6216  0.9587
  112OSM   C15F11668   0.661   6.310   9.060 -0.2705 -0.1279 -0.6695
  112OSM   H15F11669   0.765   6.284   9.032  1.0596  0.6793  3.2762
  112OSM   H15G11670   0.632   6.417   9.051  0.9523  0.3010  0.3760
  112OSM   C16F11671   0.564   6.233   8.972  0.3101 -0.0578 -0.1186
  112OSM   H16F11672   0.463   6.278   8.965  1.2252  2.0976  0.2916
  112OSM   H16G11673   0.572   6.128   9.008 -1.4481  0.3373  1.4903
  112OSM   C17F11674   0.617   6.221   8.829  0.2791  0.1024 -0.7482
  112OSM   H17F11675   0.720   6.178   8.826 -0.1497 -0.9864  0.0569
  112OSM   H17G11676   0.629   6.323   8.785  1.6642 -0.0066 -0.6623
  112OSM   C18F11677   0.524   6.144   8.733 -0.6435  0.0844  0.1180
  112OSM   H18F11678   0.557   6.157   8.628  2.3333 -1.1092  0.8434
  112OSM   H18G11679   0.428   6.197   8.750 -0.3176  0.2579  1.5059
  112OSM   H18H11680   0.527   6.035   8.753  1.2744  0.1457  0.3168
  113OSM      N11681   1.783   5.432  11.014  0.8551 -0.6141  0.2473
  113OSM    C1511682   1.779   5.340  10.901  0.0064 -0.1090 -0.9730
  113OSM   H15A11683   1.844   5.374  10.821 -1.1702 -1.3455 -2.4718
  113OSM   H15B11684   1.680   5.314  10.866 -1.2539  1.3214  1.4221
  113OSM   H15C11685   1.811   5.241  10.928 -1.8219 -1.1137 -2.3964
  113OSM    C1411686   1.705   5.380  11.134  0.5543  0.2041 -0.2119
  113OSM   H14A11687   1.733   5.432  11.225  2.1633 -3.9004  1.7627
  113OSM   H14B11688   1.724   5.274  11.145  1.1550  0.3736  0.3843
  113OSM   H14C11689   1.601   5.404  11.116  1.1002  0.6812 -2.8328
  113OSM    C1311690   1.923   5.449  11.057 -0.5580 -0.1020  0.6506
  113OSM   H13A11691   1.967   5.357  11.092 -0.0082  0.5060  1.5575
  113OSM   H13B11692   1.921   5.528  11.131  2.0748 -0.0704  0.7528
  113OSM   H13C11693   1.988   5.471  10.974 -0.6099 -0.3347  0.5470
  113OSM    C1211694   1.719   5.563  10.966  0.3495 -0.5339  0.2030
  113OSM   H12A11695   1.727   5.638  11.044  1.1531 -1.3137  0.8820
  113OSM   H12B11696   1.615   5.542  10.945  0.4681 -0.0189 -0.9344
  113OSM    C1111697   1.776   5.635  10.842  0.2790 -0.9104  0.2157
  113OSM   H11A11698   1.703   5.711  10.807  1.8639 -0.4823 -2.2864
  113OSM   H11B11699   1.782   5.562  10.759 -2.1829 -1.9418  0.9190
  113OSM      P11700   1.933   5.847  10.847 -0.0288 -0.3412  0.1123
  113OSM    O1311701   1.803   5.923  10.871 -0.5875  0.4560  0.2673
  113OSM    O1411702   2.042   5.889  10.937 -0.2569  0.6157  0.3524
  113OSM    O1111703   1.969   5.857  10.691  0.2673 -0.0888  0.0197
  113OSM    O1211704   1.907   5.689  10.862  0.2322 -0.3691  0.0860
  113OSM    C1S11705   2.009   5.745  10.607 -0.0491 -0.9497  0.3827
  113OSM    H1S11706   1.929   5.668  10.611 -0.5850 -0.6247 -2.9521
  113OSM    H1T11707   2.101   5.699  10.649  1.2861  0.3057 -1.0760
  113OSM     NF11708   2.084   5.675  10.389  0.3289 -0.6296 -0.3474
  113OSM    HNF11709   2.184   5.674  10.381  0.4622  2.2301  0.3390
  113OSM    C2S11710   2.024   5.786  10.463  0.1553  0.1970  0.5303
  113OSM    H2S11711   1.924   5.813  10.424  0.5158 -0.8905 -1.1888
  113OSM    C3S11712   2.108   5.914  10.443  0.4572  0.0652 -0.3198
  113OSM    H3S11713   2.197   5.887  10.504  0.2347 -0.2668 -0.1427
  113OSM     O311714   2.053   6.023  10.512 -0.4131 -0.0918  0.7144
  113OSM    HO311715   1.973   5.990  10.554 -0.0808  1.2940  2.5099
  113OSM    C4S11716   2.137   5.949  10.303  0.1723 -0.6709 -0.1468
  113OSM    H4S11717   2.235   5.907  10.276 -0.2070  0.2177 -3.0713
  113OSM    C5S11718   2.062   6.030  10.229 -0.2489  0.7120  0.6068
  113OSM    H5S11719   1.966   6.068  10.268 -0.1818  1.3668  0.1645
  113OSM    C6S11720   2.079   6.060  10.088 -0.0528 -0.4212  0.3954
  113OSM    H6S11721   2.067   6.170  10.079 -2.9295 -0.7989 -0.8037
  113OSM    H6T11722   1.994   6.024  10.027 -2.3006  3.3815  1.1587
  113OSM    C7S11723   2.212   6.014  10.022  0.0867  0.5472  0.6337
  113OSM    H7S11724   2.214   5.904  10.011  0.4522  0.7571 -1.7046
  113OSM    H7T11725   2.311   6.049  10.059  0.3196  0.0046  0.5209
  113OSM    C8S11726   2.212   6.071   9.873 -0.7019 -0.6443  0.5569
  113OSM    H8S11727   2.315   6.054   9.834 -0.5402 -1.1409  1.1993
  113OSM    H8T11728   2.204   6.181   9.880  3.7634 -0.3566  2.7558
  113OSM    C9S11729   2.109   6.022   9.774  0.0495  0.3914 -0.6412
  113OSM    H9S11730   2.008   6.057   9.804  0.1160 -1.5031  1.9989
  113OSM    H9T11731   2.093   5.912   9.777 -1.0184  0.4687 -2.6909
  113OSM   C10S11732   2.149   6.070   9.628 -0.3047  0.1476  0.0208
  113OSM   H10S11733   2.251   6.031   9.606 -0.4106  0.8241 -1.7186
  113OSM   H10T11734   2.161   6.181   9.633 -0.0092  0.2273 -2.2120
  113OSM   C11S11735   2.052   6.037   9.518  0.3311 -0.5419 -0.3345
  113OSM   H11S11736   1.957   6.093   9.531  1.3716  1.8089 -2.4948
  113OSM   H11T11737   2.021   5.930   9.527  0.3226 -0.4647  0.5425
  113OSM   C12S11738   2.122   6.065   9.390 -0.8234 -0.1205  0.7885
  113OSM   H12S11739   2.207   5.999   9.362 -1.3399  0.2886 -1.9525
  113OSM   H12T11740   2.170   6.165   9.389 -0.6504 -0.2060  0.0310
  113OSM   C13S11741   2.028   6.047   9.268 -0.6549  0.4331 -0.2771
  113OSM   H13S11742   1.938   6.107   9.291  0.5717  0.9722  3.4929
  113OSM   H13T11743   1.989   5.944   9.260 -1.6879  0.9919 -3.2553
  113OSM   C14S11744   2.084   6.087   9.134  0.2799  0.1293 -0.1466
  113OSM   H14S11745   2.187   6.056   9.106 -0.3641  1.0200 -3.8125
  113OSM   H14T11746   2.062   6.196   9.131 -0.8200 -0.0762 -0.0000
  113OSM   C15S11747   2.011   6.030   9.006  0.0991 -0.3056 -0.0946
  113OSM   H15S11748   2.048   6.089   8.919  1.1024  0.1131  0.6093
  113OSM   H15T11749   1.901   6.046   9.015  0.1395  1.5513 -2.5433
  113OSM   C16S11750   2.042   5.873   8.985 -0.2870 -0.5794 -0.0169
  113OSM   H16S11751   2.028   5.826   9.085  0.3599  1.7999  1.2421
  113OSM   H16T11752   2.146   5.859   8.948 -0.0987 -1.8608  0.9402
  113OSM   C17S11753   1.939   5.814   8.884 -1.2424 -0.4816 -0.0336
  113OSM   H17S11754   1.959   5.869   8.789 -0.6200  2.8913  1.9563
  113OSM   H17T11755   1.835   5.831   8.919 -0.2781  0.7243  2.3898
  113OSM   C18S11756   1.960   5.664   8.863  0.2458  1.0599 -0.4010
  113OSM   H18S11757   1.929   5.611   8.956 -0.2254  2.5548  0.3125
  113OSM   H18T11758   2.065   5.635   8.844  0.0128 -2.0304  2.4771
  113OSM   H18U11759   1.897   5.626   8.780  1.0946 -1.3670  0.0221
  113OSM    C1F11760   2.023   5.566  10.355  0.5879 -0.0113  0.3297
  113OSM     OF11761   1.913   5.533  10.395  0.0816 -0.3216 -0.3647
  113OSM    C2F11762   2.119   5.476  10.278 -0.8120 -0.0293  0.1178
  113OSM    H2F11763   2.207   5.460  10.343  0.6286 -0.3019 -1.8641
  113OSM    H2G11764   2.149   5.531  10.185  1.2009 -0.6255  0.4004
  113OSM    C3F11765   2.052   5.343  10.225  0.4794 -0.1705 -0.0137
  113OSM    H3F11766   1.944   5.366  10.214  0.2287 -0.1324  2.2654
  113OSM    H3G11767   2.076   5.258  10.293 -1.0662 -1.6031 -1.2031
  113OSM    C4F11768   2.097   5.295  10.087  0.4756  0.3920  0.9369
  113OSM    H4F11769   2.198   5.251  10.104  0.0448 -1.6345 -1.3838
  113OSM    H4G11770   2.103   5.380  10.015 -0.2001  0.4775  0.9796
  113OSM    C5F11771   2.026   5.177  10.012  0.1448 -0.3382  0.1157
  113OSM    H5F11772   1.918   5.194   9.993 -0.3539 -2.9611  0.3573
  113OSM    H5G11773   2.050   5.084  10.067 -0.0944 -0.6658 -0.3220
  113OSM    C6F11774   2.088   5.150   9.875  0.7296  0.8171  0.1061
  113OSM    H6F11775   2.197   5.137   9.891  0.5926  0.3954  0.7538
  113OSM    H6G11776   2.064   5.237   9.811 -0.3565  0.1730 -0.3718
  113OSM    C7F11777   2.049   5.022   9.802 -0.5024  0.0654  0.2001
  113OSM    H7F11778   1.945   5.036   9.765  0.3469 -0.6349 -2.6182
  113OSM    H7G11779   2.054   4.937   9.873  1.2233 -1.0539 -1.2089
  113OSM    C8F11780   2.152   4.987   9.688  0.2728  0.5976  0.1389
  113OSM    H8F11781   2.162   5.083   9.633 -1.5636  0.6425 -0.1676
  113OSM    H8G11782   2.109   4.914   9.616  3.3886 -0.1013 -1.0651
  113OSM    C9F11783   2.279   4.928   9.739  0.4024 -0.8456 -0.0294
  113OSM    H9F11784   2.298   4.939   9.847  0.9982 -3.0735  0.1090
  113OSM   C10F11785   2.368   4.850   9.680 -0.1650  0.4701  0.4178
  113OSM   H10F11786   2.461   4.819   9.731  0.3054 -0.9018 -1.2355
  113OSM   C11F11787   2.366   4.792   9.535  0.3143  0.1046 -0.5833
  113OSM   H11F11788   2.443   4.846   9.477 -0.0857  1.0624 -0.2377
  113OSM   H11G11789   2.270   4.808   9.482 -1.1420 -2.4930  1.1281
  113OSM   C12F11790   2.405   4.641   9.538  0.3407  0.1434  0.0707
  113OSM   H12F11791   2.337   4.587   9.607  1.6070 -0.3229  0.9658
  113OSM   H12G11792   2.501   4.628   9.591  0.3891 -3.0747 -0.7354
  113OSM   C13F11793   2.404   4.584   9.396  0.2439  0.3227 -0.0383
  113OSM   H13F11794   2.452   4.485   9.410  0.7995  0.8290  1.8786
  113OSM   H13G11795   2.471   4.644   9.332 -0.9820  0.3818 -1.2772
  113OSM   C14F11796   2.259   4.564   9.337  0.0153  0.0506 -0.2755
  113OSM   H14F11797   2.218   4.666   9.318  1.4951  0.5329 -0.9771
  113OSM   H14G11798   2.206   4.505   9.414 -1.5666  1.4255 -0.2821
  113OSM   C15F11799   2.273   4.492   9.200 -0.1322 -0.3974  0.2336
  113OSM   H15F11800   2.312   4.390   9.225 -1.1533 -0.6103  1.0066
  113OSM   H15G11801   2.335   4.552   9.130 -3.0724  1.5296 -0.7913
  113OSM   C16F11802   2.135   4.475   9.132  0.2825  0.8544 -1.1224
  113OSM   H16F11803   2.077   4.570   9.130 -0.7448  0.2415 -0.5783
  113OSM   H16G11804   2.082   4.410   9.205  0.8254  0.2192 -1.2866
  113OSM   C17F11805   2.149   4.410   8.996 -0.2246 -0.7071  0.0505
  113OSM   H17F11806   2.199   4.311   9.003  1.9954  0.4505  0.9117
  113OSM   H17G11807   2.221   4.466   8.933  0.6291 -2.1062 -0.2378
  113OSM   C18F11808   2.013   4.406   8.929  0.4374 -0.0989  0.4334
  113OSM   H18F11809   1.981   4.511   8.911  2.6742  0.6045  0.4707
  113OSM   H18G11810   1.937   4.351   8.988  0.1940 -0.5738 -0.3197
  113OSM   H18H11811   2.013   4.364   8.826 -0.1209  0.6195  0.1375
  114OSM      N11812   3.453   5.286  11.697  0.2667 -0.4048  0.3742
  114OSM    C1511813   3.382   5.385  11.776  0.0352  0.2697  0.0897
  114OSM   H15A11814   3.280   5.359  11.798  0.2084  0.4140  1.1024
  114OSM   H15B11815   3.391   5.484  11.734  0.5373  0.5038  0.7236
  114OSM   H15C11816   3.439   5.385  11.868  0.1270  0.9829  0.0329
  114OSM    C1411817   3.592   5.340  11.689  0.1203  0.0127  0.3172
  114OSM   H14A11818   3.601   5.437  11.641 -2.1474 -0.9303 -2.1931
  114OSM   H14B11819   3.658   5.281  11.628  1.3694  0.2353  1.4536
  114OSM   H14C11820   3.653   5.351  11.777  1.1841 -0.0239 -0.4123
  114OSM    C1311821   3.458   5.152  11.764 -0.2885 -0.2889  0.1238
  114OSM   H13A11822   3.502   5.076  11.701  0.3846 -0.4899  0.8310
  114OSM   H13B11823   3.356   5.125  11.786 -1.0922  0.6275 -2.2861
  114OSM   H13C11824   3.509   5.153  11.859  1.5355 -1.9993 -0.7918
  114OSM    C1211825   3.394   5.283  11.556  0.8679  0.0739  0.4426
  114OSM   H12A11826   3.399   5.384  11.519  0.3060  0.0898  0.3973
  114OSM   H12B11827   3.288   5.261  11.550  0.8157  0.4868 -0.1371
  114OSM    C1111828   3.472   5.199  11.441  0.2887  0.0334  0.8074
  114OSM   H11A11829   3.571   5.241  11.415 -0.9130  1.0970 -2.2516
  114OSM   H11B11830   3.419   5.203  11.344  1.8650  1.9835 -0.0026
  114OSM      P11831   3.375   4.959  11.459 -0.2015 -0.2310 -0.2211
  114OSM    O1311832   3.422   4.826  11.496 -0.2868 -0.1565  0.9430
  114OSM    O1411833   3.250   5.006  11.518 -0.3546 -0.2583 -0.6939
  114OSM    O1111834   3.342   4.959  11.303  0.3780 -0.8095  0.5570
  114OSM    O1211835   3.496   5.063  11.477  0.4419 -0.3982  0.5240
  114OSM    C1S11836   3.446   4.970  11.208 -0.3723 -0.2215  0.1786
  114OSM    H1S11837   3.502   4.874  11.197 -0.8268 -0.2257 -2.3770
  114OSM    H1T11838   3.519   5.051  11.226 -0.1012  0.0865 -2.1288
  114OSM     NF11839   3.491   4.989  10.964  0.6404 -0.5610 -0.1775
  114OSM    HNF11840   3.536   5.078  10.956  1.3641 -1.0747 -2.2313
  114OSM    C2S11841   3.383   5.005  11.060  0.4314  0.3472 -0.6609
  114OSM    H2S11842   3.302   4.932  11.040 -0.2774  0.4441  1.7082
  114OSM    C3S11843   3.323   5.148  11.053 -0.4114  0.0379 -0.9526
  114OSM    H3S11844   3.404   5.223  11.068 -0.8115  0.4528 -0.8734
  114OSM     O311845   3.219   5.172  11.149 -0.1970 -0.7242 -0.1238
  114OSM    HO311846   3.220   5.086  11.192  3.0943 -1.7977 -2.1387
  114OSM    C4S11847   3.265   5.171  10.918 -0.0406 -0.0456 -0.4176
  114OSM    H4S11848   3.221   5.084  10.866 -1.0771 -0.3266  0.9167
  114OSM    C5S11849   3.281   5.283  10.851  0.4613  0.1030 -0.2621
  114OSM    H5S11850   3.339   5.362  10.901  0.5981  0.2321 -0.6220
  114OSM    C6S11851   3.230   5.314  10.713 -0.1218 -0.0788 -0.1146
  114OSM    H6S11852   3.304   5.378  10.662 -0.9610  2.1619  1.3643
  114OSM    H6T11853   3.137   5.375  10.721  0.8956  1.3123  1.7396
  114OSM    C7S11854   3.201   5.196  10.616  0.4848 -0.3641  0.8034
  114OSM    H7S11855   3.137   5.121  10.668 -0.5361  0.8566  1.3151
  114OSM    H7T11856   3.297   5.142  10.597  1.5135  1.3764  0.9460
  114OSM    C8S11857   3.131   5.243  10.483  1.0387 -0.2908  0.5777
  114OSM    H8S11858   3.207   5.285  10.414  1.3387 -0.8552  0.5596
  114OSM    H8T11859   3.060   5.328  10.487  0.4186 -0.6468 -1.8469
  114OSM    C9S11860   3.041   5.135  10.427  0.4080  0.0947  0.2022
  114OSM    H9S11861   2.959   5.097  10.491 -0.8430  2.7176  0.2174
  114OSM    H9T11862   3.112   5.054  10.399 -0.7276 -0.7704 -0.1657
  114OSM   C10S11863   2.966   5.169  10.297  0.4570  0.3179 -0.4527
  114OSM   H10S11864   2.889   5.247  10.319 -0.5659 -0.9207  0.3697
  114OSM   H10T11865   2.914   5.074  10.276  0.6060 -0.3913  2.2570
  114OSM   C11S11866   3.069   5.210  10.190  0.2170  0.5729  0.6370
  114OSM   H11S11867   3.158   5.146  10.204  0.4382  0.5173 -0.8946
  114OSM   H11T11868   3.104   5.315  10.203 -0.0280  1.2297 -3.2375
  114OSM   C12S11869   3.014   5.177  10.049  0.1134 -0.1897 -0.3397
  114OSM   H12S11870   2.987   5.070  10.037 -0.0705 -0.3181  1.2089
  114OSM   H12T11871   3.089   5.201   9.970 -1.3483 -1.2147 -2.0896
  114OSM   C13S11872   2.874   5.245  10.018  0.4653  0.1217 -0.6724
  114OSM   H13S11873   2.887   5.354  10.035  1.2576  0.1182 -1.2267
  114OSM   H13T11874   2.799   5.217  10.095  1.2252  0.1536  0.0837
  114OSM   C14S11875   2.820   5.225   9.874 -0.4583  0.1548 -0.1825
  114OSM   H14S11876   2.767   5.128   9.866  2.9804 -1.7998 -0.5691
  114OSM   H14T11877   2.910   5.241   9.810  0.0158 -1.5637  0.0192
  114OSM   C15S11878   2.723   5.340   9.839 -0.6470 -0.5871  0.1864
  114OSM   H15S11879   2.755   5.445   9.856  2.4268 -1.4497 -0.0525
  114OSM   H15T11880   2.635   5.335   9.907  0.2664  0.7407  1.5057
  114OSM   C16S11881   2.669   5.346   9.690  0.5558 -0.7733 -0.3050
  114OSM   H16S11882   2.757   5.345   9.623  2.3928 -4.0557  2.0420
  114OSM   H16T11883   2.617   5.442   9.667  0.3503 -0.6122  0.8200
  114OSM   C17S11884   2.587   5.223   9.659  0.6927  0.4034  0.0480
  114OSM   H17S11885   2.487   5.225   9.707 -1.6619 -2.8757 -4.2442
  114OSM   H17T11886   2.644   5.135   9.696 -0.3617 -0.8838 -1.3255
  114OSM   C18S11887   2.559   5.209   9.506 -0.7332 -0.0452 -0.2038
  114OSM   H18S11888   2.645   5.235   9.440 -0.2007 -1.8479 -0.2594
  114OSM   H18T11889   2.469   5.271   9.485 -0.5948 -0.2606 -1.4672
  114OSM   H18U11890   2.536   5.108   9.465 -0.8379 -0.2081  0.2570
  114OSM    C1F11891   3.543   4.866  10.930 -0.4068  0.8096 -0.6601
  114OSM     OF11892   3.497   4.767  10.979 -0.5073  0.3780  0.4068
  114OSM    C2F11893   3.649   4.858  10.829 -0.8819 -0.2584 -0.4411
  114OSM    H2F11894   3.725   4.811  10.895 -2.0811 -1.8671 -0.1617
  114OSM    H2G11895   3.682   4.961  10.805 -0.2847  0.0421  1.6129
  114OSM    C3F11896   3.613   4.783  10.708 -0.4443 -0.2139 -0.2144
  114OSM    H3F11897   3.597   4.677  10.736  1.9027 -0.6690 -0.4543
  114OSM    H3G11898   3.699   4.776  10.637  1.1842  0.6308  1.6238
  114OSM    C4F11899   3.504   4.847  10.627 -0.5628 -0.4969  0.2178
  114OSM    H4F11900   3.547   4.946  10.598 -0.2442 -0.0954  2.0172
  114OSM    H4G11901   3.424   4.880  10.696 -1.8952 -2.3884 -0.3644
  114OSM    C5F11902   3.460   4.773  10.502  0.0753 -0.4425  0.5306
  114OSM    H5F11903   3.397   4.687  10.533  2.0187 -1.7423  0.9598
  114OSM    H5G11904   3.555   4.732  10.461  1.2982  1.5160  1.3265
  114OSM    C6F11905   3.399   4.861  10.396 -0.0740 -0.1878  0.0477
  114OSM    H6F11906   3.463   4.948  10.372 -0.2314 -1.1322 -4.1850
  114OSM    H6G11907   3.304   4.905  10.433  0.1405  0.9184 -0.7057
  114OSM    C7F11908   3.367   4.794  10.264 -0.0820  0.2550  0.6183
  114OSM    H7F11909   3.319   4.695  10.278 -1.9396  0.6650 -2.3152
  114OSM    H7G11910   3.458   4.774  10.204 -0.3273  1.5171 -0.1883
  114OSM    C8F11911   3.258   4.865  10.187 -0.4636  0.4149 -0.2543
  114OSM    H8F11912   3.285   4.971  10.168 -1.3943  0.4286 -1.6059
  114OSM    H8G11913   3.179   4.874  10.264 -0.1580  2.2078 -0.1380
  114OSM    C9F11914   3.206   4.795  10.067 -1.0555 -0.3565 -0.2640
  114OSM    H9F11915   3.171   4.693  10.091  0.7681 -0.4563  2.0556
  114OSM   C10F11916   3.213   4.839   9.935 -0.2436  0.2686 -0.3505
  114OSM   H10F11917   3.179   4.774   9.853  1.4581 -1.9377  0.6416
  114OSM   C11F11918   3.293   4.963   9.898  0.0676  0.5096 -0.5675
  114OSM   H11F11919   3.390   4.979   9.949  0.2283  1.2637 -1.0961
  114OSM   H11G11920   3.246   5.053   9.944  2.1101  1.2311  0.1675
  114OSM   C12F11921   3.305   4.986   9.752 -0.6829  0.4492  0.3589
  114OSM   H12F11922   3.328   4.893   9.696  0.3449  1.0434 -0.2275
  114OSM   H12G11923   3.384   5.059   9.723  1.1953 -1.1997  1.2080
  114OSM   C13F11924   3.188   5.051   9.689  0.3314  0.4749  0.1700
  114OSM   H13F11925   3.168   5.141   9.752  0.5809 -1.8427  3.6907
  114OSM   H13G11926   3.103   4.986   9.719 -0.2335  1.0412 -0.1670
  114OSM   C14F11927   3.195   5.077   9.538  0.2010 -0.6028 -0.1112
  114OSM   H14F11928   3.202   4.980   9.484 -0.4332  0.9850 -3.1157
  114OSM   H14G11929   3.284   5.139   9.515 -0.1716 -0.1075 -0.2193
  114OSM   C15F11930   3.073   5.144   9.476 -0.0827 -0.1525 -0.0308
  114OSM   H15F11931   3.078   5.248   9.515  0.0119 -0.3465  0.4756
  114OSM   H15G11932   2.978   5.111   9.522 -1.0268  1.6502 -0.6522
  114OSM   C16F11933   3.072   5.145   9.323 -0.1316 -0.1992 -0.3756
  114OSM   H16F11934   3.117   5.054   9.276  0.5682  1.0400 -2.1464
  114OSM   H16G11935   3.145   5.216   9.278 -0.1684  1.1192  1.5749
  114OSM   C17F11936   2.929   5.163   9.278  0.7031 -0.5117  0.0372
  114OSM   H17F11937   2.881   5.235   9.347  3.8584  1.5327  0.2333
  114OSM   H17G11938   2.870   5.069   9.280 -2.7829  1.5632 -1.0843
  114OSM   C18F11939   2.895   5.208   9.141  0.4237 -0.5625 -0.0579
  114OSM   H18F11940   2.796   5.169   9.112 -0.7269  0.5491  2.2104
  114OSM   H18G11941   2.966   5.161   9.070  0.1960 -0.5460 -0.2938
  114OSM   H18H11942   2.898   5.319   9.134  1.6169 -0.5327  0.7292
  115OSM      N11943   3.653   2.165   6.319  0.0933 -0.1736 -0.2773
  115OSM    C1511944   3.638   2.242   6.450 -0.0180  0.2817  0.2086
  115OSM   H15A11945   3.612   2.342   6.419  0.3908  0.6368  0.9900
  115OSM   H15B11946   3.731   2.241   6.506 -0.4795 -3.0688  1.0035
  115OSM   H15C11947   3.558   2.195   6.505  2.2489 -2.0972  1.5900
  115OSM    C1411948   3.518   2.158   6.253 -0.5243 -0.0767  0.2504
  115OSM   H14A11949   3.442   2.108   6.311  0.7765 -1.9118  0.4160
  115OSM   H14B11950   3.520   2.098   6.164 -2.2998  0.3995 -0.1400
  115OSM   H14C11951   3.478   2.255   6.226  0.4381  0.3935  0.5052
  115OSM    C1311952   3.739   2.260   6.236  0.6507  0.5759  0.4974
  115OSM   H13A11953   3.752   2.228   6.134 -0.2370  1.3051  0.1534
  115OSM   H13B11954   3.836   2.273   6.282  0.8978  1.2035 -0.1939
  115OSM   H13C11955   3.707   2.362   6.238 -2.2243 -0.2861  0.1094
  115OSM    C1211956   3.713   2.028   6.331 -0.3056  0.0818 -0.0913
  115OSM   H12A11957   3.718   1.986   6.232  0.9219 -2.3765  0.9830
  115OSM   H12B11958   3.648   1.966   6.391  2.7395 -1.7403  1.4751
  115OSM    C1111959   3.851   2.005   6.405  0.3966 -0.3190 -0.1373
  115OSM   H11A11960   3.872   1.895   6.406  1.6106 -0.0959  0.3523
  115OSM   H11B11961   3.844   2.037   6.512  1.9475 -1.7656  0.4312
  115OSM      P11962   4.041   2.037   6.214  0.0783  0.0841  0.0439
  115OSM    O1311963   3.977   1.934   6.128  0.3935 -0.0862 -0.1503
  115OSM    O1411964   4.074   2.163   6.139  0.0821  0.3492 -0.4999
  115OSM    O1111965   4.179   1.978   6.267 -0.5598  0.2885  0.1419
  115OSM    O1211966   3.960   2.074   6.341  0.3807 -0.0631  0.6364
  115OSM    C1S11967   4.265   2.049   6.354  1.0808  0.8602 -0.2965
  115OSM    H1S11968   4.257   2.157   6.332  1.2885  0.8221 -0.5697
  115OSM    H1T11969   4.372   2.023   6.333  0.3628 -1.3077 -1.4822
  115OSM     NF11970   4.336   2.092   6.580 -0.0650  0.0603 -0.5647
  115OSM    HNF11971   4.411   2.042   6.623  1.2715  1.9794 -0.5889
  115OSM    C2S11972   4.241   2.011   6.507 -0.3027  0.6947 -0.0264
  115OSM    H2S11973   4.140   2.042   6.541 -0.7386 -0.6483 -0.0651
  115OSM    C3S11974   4.249   1.854   6.537 -0.2768 -0.4774  0.3570
  115OSM    H3S11975   4.355   1.822   6.525 -0.0041  0.0201  1.3913
  115OSM     O311976   4.160   1.767   6.468 -0.2316  0.2906 -1.3287
  115OSM    HO311977   4.099   1.813   6.411 -1.5132  0.1507 -0.0870
  115OSM    C4S11978   4.237   1.834   6.687  0.1380  0.2150  0.2543
  115OSM    H4S11979   4.337   1.825   6.732  0.6441  0.7352 -0.7234
  115OSM    C5S11980   4.120   1.825   6.763  0.0154  0.1476  0.6289
  115OSM    H5S11981   4.029   1.820   6.702  0.0758  0.6030  0.5002
  115OSM    C6S11982   4.100   1.812   6.907  0.0333  0.8358  0.2279
  115OSM    H6S11983   4.015   1.746   6.935 -0.4364  1.7865  1.0943
  115OSM    H6T11984   4.065   1.911   6.944 -0.2960  0.5473  0.7064
  115OSM    C7S11985   4.207   1.750   6.990 -0.4916 -0.3889  0.7667
  115OSM    H7S11986   4.301   1.807   6.974 -3.3362  4.0346 -1.1761
  115OSM    H7T11987   4.209   1.643   6.959  0.8567  0.1559 -1.1252
  115OSM    C8S11988   4.174   1.753   7.140  0.3168 -0.0672  0.2631
  115OSM    H8S11989   4.247   1.679   7.179  1.5056  1.3374  0.7351
  115OSM    H8T11990   4.071   1.711   7.149  0.5504 -0.4082  1.3896
  115OSM    C9S11991   4.174   1.890   7.200 -0.1371 -0.1231 -0.4267
  115OSM    H9S11992   4.096   1.948   7.145 -1.1435 -1.0877 -0.0204
  115OSM    H9T11993   4.273   1.942   7.200  0.5405 -1.3972 -0.1675
  115OSM   C10S11994   4.129   1.882   7.347 -0.1633 -0.2291  0.6721
  115OSM   H10S11995   4.035   1.824   7.336 -0.9223  0.9194  1.0311
  115OSM   H10T11996   4.105   1.986   7.378  0.2339 -0.6531  2.4956
  115OSM   C11S11997   4.247   1.831   7.434 -0.0533  0.2008  0.5743
  115OSM   H11S11998   4.347   1.858   7.394  0.0920  0.5194  1.1521
  115OSM   H11T11999   4.237   1.720   7.427 -0.3574  0.3579 -2.3463
  115OSM   C12S12000   4.224   1.867   7.581  0.5391  0.1007  0.2126
  115OSM   H12S12001   4.125   1.823   7.606 -0.2292  0.2909 -2.3798
  115OSM   H12T12002   4.213   1.975   7.608  1.7677  0.3759 -0.3918
  115OSM   C13S12003   4.325   1.810   7.680  0.3644 -0.2175  0.1786
  115OSM   H13S12004   4.427   1.846   7.655  0.8948  2.1007  5.0856
  115OSM   H13T12005   4.329   1.699   7.672  1.0519 -0.1641 -0.2593
  115OSM   C14S12006   4.282   1.831   7.828 -0.0171 -0.3516  0.1318
  115OSM   H14S12007   4.188   1.775   7.849 -1.1844  2.4395  2.6588
  115OSM   H14T12008   4.258   1.939   7.841 -4.2133 -1.0859 -0.8065
  115OSM   C15S12009   4.378   1.781   7.927 -0.3585 -0.2333 -0.2531
  115OSM   H15S12010   4.479   1.817   7.899 -0.8907  1.3945 -0.1290
  115OSM   H15T12011   4.377   1.670   7.935 -1.8434 -0.0637  3.0204
  115OSM   C16S12012   4.364   1.847   8.069 -0.7368  0.1195  1.0209
  115OSM   H16S12013   4.403   1.950   8.053 -0.6190  0.1402  1.4412
  115OSM   H16T12014   4.430   1.789   8.136  1.0243 -0.1255 -0.8848
  115OSM   C17S12015   4.219   1.865   8.121  0.6128 -0.3878 -0.1141
  115OSM   H17S12016   4.178   1.764   8.141  1.8387 -1.4018 -2.4390
  115OSM   H17T12017   4.162   1.916   8.040  1.6036 -2.6283 -2.3097
  115OSM   C18S12018   4.219   1.959   8.240 -0.0213  0.2665 -0.3023
  115OSM   H18S12019   4.274   1.914   8.326 -0.7954  1.3523  0.7664
  115OSM   H18T12020   4.113   1.978   8.263  0.3825 -1.8869  3.6486
  115OSM   H18U12021   4.271   2.052   8.209  0.0763 -0.3866 -2.1769
  115OSM    C1F12022   4.330   2.220   6.610  0.0922  0.1632  0.3786
  115OSM     OF12023   4.243   2.294   6.566  0.4537  0.6176 -0.2558
  115OSM    C2F12024   4.433   2.276   6.711  0.2949  0.7190 -0.3155
  115OSM    H2F12025   4.532   2.233   6.685  0.1048 -0.2990  0.6079
  115OSM    H2G12026   4.407   2.239   6.812  1.0327 -0.8919 -0.7011
  115OSM    C3F12027   4.428   2.426   6.714 -0.0073 -0.2462  0.4145
  115OSM    H3F12028   4.324   2.458   6.738  0.3183  1.5467 -0.4983
  115OSM    H3G12029   4.435   2.469   6.612  1.6796  1.9912  1.4222
  115OSM    C4F12030   4.538   2.499   6.792 -0.2370  0.4064 -0.1589
  115OSM    H4F12031   4.546   2.607   6.766  1.2053  0.3515  0.0178
  115OSM    H4G12032   4.638   2.462   6.759  2.8524  4.0370  4.5098
  115OSM    C5F12033   4.540   2.478   6.943 -0.7183  0.2192 -0.7383
  115OSM    H5F12034   4.564   2.377   6.981 -1.8670  1.3208  3.0943
  115OSM    H5G12035   4.443   2.513   6.984  0.7200  4.4714 -0.6865
  115OSM    C6F12036   4.644   2.561   7.011  0.0443 -0.9594 -0.2768
  115OSM    H6F12037   4.627   2.669   6.993 -0.1850 -0.8518  0.5848
  115OSM    H6G12038   4.736   2.533   6.955  0.3897 -1.5845  0.6022
  115OSM    C7F12039   4.663   2.521   7.152 -0.5233  0.2167 -0.1370
  115OSM    H7F12040   4.656   2.410   7.157  1.1294  0.1875  2.6449
  115OSM    H7G12041   4.584   2.559   7.220  0.2844  0.1144  0.8608
  115OSM    C8F12042   4.796   2.549   7.211  0.1587 -0.0983  0.1480
  115OSM    H8F12043   4.864   2.564   7.123 -0.0224 -0.0621  0.0135
  115OSM    H8G12044   4.837   2.456   7.256  0.6600  0.1692  0.2477
  115OSM    C9F12045   4.823   2.664   7.298 -0.3261  0.1031  0.0984
  115OSM    H9F12046   4.874   2.752   7.256 -1.0228 -0.5150 -2.0705
  115OSM   C10F12047   4.778   2.672   7.422  0.3856  0.5955 -0.1572
  115OSM   H10F12048   4.802   2.758   7.486  0.1989  1.3265 -1.0609
  115OSM   C11F12049   4.705   2.565   7.494 -0.1430 -0.2998 -0.3312
  115OSM   H11F12050   4.769   2.474   7.508 -0.6116 -0.6505 -0.4607
  115OSM   H11G12051   4.605   2.542   7.451 -1.4829  2.8364  1.0258
  115OSM   C12F12052   4.682   2.614   7.646 -0.0848  0.0780 -0.3418
  115OSM   H12F12053   4.630   2.711   7.633  1.2749  0.9954  0.8227
  115OSM   H12G12054   4.782   2.637   7.690  0.5681 -2.5679 -0.3488
  115OSM   C13F12055   4.599   2.524   7.729  0.3599  0.8858  0.2047
  115OSM   H13F12056   4.581   2.423   7.685 -1.0831 -0.1247  3.0171
  115OSM   H13G12057   4.499   2.571   7.740  0.1306  0.3600  0.3909
  115OSM   C14F12058   4.671   2.487   7.858  0.5351  0.4286  0.1986
  115OSM   H14F12059   4.673   2.575   7.926  1.5517  0.4361  0.1672
  115OSM   H14G12060   4.774   2.464   7.825  0.8922  3.7232 -1.2067
  115OSM   C15F12061   4.586   2.376   7.926  0.5545  0.2503 -0.0829
  115OSM   H15F12062   4.577   2.285   7.863  2.9502 -0.0189 -0.0815
  115OSM   H15G12063   4.488   2.426   7.939 -0.7694 -1.5122 -2.7285
  115OSM   C16F12064   4.643   2.339   8.063 -0.0201  0.5989  0.0851
  115OSM   H16F12065   4.599   2.408   8.138 -0.8515  1.5056 -1.1965
  115OSM   H16G12066   4.753   2.346   8.066  0.0460 -1.0187  2.6550
  115OSM   C17F12067   4.626   2.185   8.099  0.0130 -0.0788 -0.8985
  115OSM   H17F12068   4.693   2.123   8.036  0.5706  0.3201 -0.6999
  115OSM   H17G12069   4.521   2.158   8.077  0.0580 -1.5525  0.6023
  115OSM   C18F12070   4.645   2.156   8.249 -0.5530 -0.1692 -0.1619
  115OSM   H18F12071   4.747   2.192   8.278 -0.3459 -1.8118  1.2450
  115OSM   H18G12072   4.626   2.047   8.263 -0.1915 -0.4211 -1.5458
  115OSM   H18H12073   4.571   2.215   8.307  1.6823  1.0576  1.5445
  116OSM      N12074   2.845   6.094   5.998 -0.3885  0.3023  0.2817
  116OSM    C1512075   2.948   6.167   5.914 -0.1595  0.6390  0.4540
  116OSM   H15A12076   2.943   6.274   5.909 -1.0116  0.5848  0.1359
  116OSM   H15B12077   2.953   6.119   5.818  0.6389  0.1299  0.7440
  116OSM   H15C12078   3.045   6.145   5.957  0.2261  0.6372 -0.4105
  116OSM    C1412079   2.714   6.151   5.960 -0.4478  0.9009  0.3550
  116OSM   H14A12080   2.700   6.249   6.004 -1.4882  0.9802 -0.1403
  116OSM   H14B12081   2.629   6.093   5.993  1.1883 -1.6270  0.2333
  116OSM   H14C12082   2.713   6.169   5.854 -2.0400  1.5852  0.4684
  116OSM    C1312083   2.862   5.953   5.952  0.1380 -0.2793  0.5020
  116OSM   H13A12084   2.843   5.939   5.847  2.0526  2.2519 -0.2282
  116OSM   H13B12085   2.796   5.888   6.008 -0.7219 -0.2453 -0.4524
  116OSM   H13C12086   2.965   5.930   5.975  0.0038  0.6904  2.1556
  116OSM    C1212087   2.867   6.100   6.148 -0.3164  0.5797 -0.5174
  116OSM   H12A12088   2.965   6.065   6.176 -0.5731  1.4080  1.5264
  116OSM   H12B12089   2.796   6.045   6.208 -0.9893  1.1374 -0.7874
  116OSM    C1112090   2.871   6.247   6.211  0.8748 -0.2897  0.5727
  116OSM   H11A12091   2.867   6.230   6.321 -1.1217 -3.2632  0.0999
  116OSM   H11B12092   2.769   6.289   6.198  1.5751  0.8703 -1.4194
  116OSM      P12093   3.129   6.292   6.207 -0.0116 -0.1803 -0.6225
  116OSM    O1312094   3.128   6.150   6.254 -0.3975 -0.4080  0.0054
  116OSM    O1412095   3.206   6.330   6.088 -0.4540  0.0946 -0.2110
  116OSM    O1112096   3.167   6.390   6.331  0.4148  0.4574 -0.8370
  116OSM    O1212097   2.979   6.336   6.175  0.2739 -0.6090 -0.0491
  116OSM    C1S12098   3.185   6.329   6.460 -0.6861  0.1704 -0.5037
  116OSM    H1S12099   3.287   6.288   6.477  0.0560  2.1530 -0.1328
  116OSM    H1T12100   3.119   6.240   6.470  1.1974 -1.0243  2.1389
  116OSM     NF12101   3.171   6.358   6.702 -0.2807  0.3929  0.2760
  116OSM    HNF12102   3.091   6.313   6.740  1.1146 -2.0738  0.3988
  116OSM    C2S12103   3.155   6.427   6.573 -0.2369 -0.5800 -0.4796
  116OSM    H2S12104   3.242   6.496   6.566  0.0382 -0.8750  0.0535
  116OSM    C3S12105   3.028   6.507   6.554 -0.0205  0.1867  0.3027
  116OSM    H3S12106   2.946   6.439   6.523  1.0981 -0.9099 -0.3071
  116OSM     O312107   3.036   6.613   6.458 -0.6092  0.4270 -0.1750
  116OSM    HO312108   3.095   6.572   6.394  0.3419  2.7843 -0.8767
  116OSM    C4S12109   2.992   6.579   6.683 -0.2885 -0.0114  0.9547
  116OSM    H4S12110   3.060   6.662   6.708  0.7711 -0.5688 -0.0471
  116OSM    C5S12111   2.891   6.544   6.763 -0.6367  0.5291 -0.1048
  116OSM    H5S12112   2.828   6.457   6.741  0.9799 -0.8766  0.8113
  116OSM    C6S12113   2.868   6.626   6.891 -0.7710 -0.0659 -0.3585
  116OSM    H6S12114   2.767   6.670   6.882 -2.2110 -3.1961  0.0202
  116OSM    H6T12115   2.943   6.708   6.905  0.3494 -0.8610 -1.5248
  116OSM    C7S12116   2.878   6.544   7.023  0.5456 -0.0096 -0.1203
  116OSM    H7S12117   2.983   6.510   7.030  0.2275 -0.6100  2.1860
  116OSM    H7T12118   2.805   6.461   7.011 -1.1975  1.4543  0.2106
  116OSM    C8S12119   2.841   6.617   7.147 -0.2108  0.0693 -0.1723
  116OSM    H8S12120   2.797   6.547   7.222  1.5241 -0.4635  0.3847
  116OSM    H8T12121   2.765   6.694   7.124 -0.2503 -0.0773 -0.5394
  116OSM    C9S12122   2.959   6.686   7.213 -0.1665  0.1435 -0.8561
  116OSM    H9S12123   2.977   6.779   7.155 -1.5032  0.2021 -1.2099
  116OSM    H9T12124   3.043   6.615   7.202  0.1337  0.1585  1.1313
  116OSM   C10S12125   2.929   6.730   7.352 -0.2735  0.1878  0.9049
  116OSM   H10S12126   2.832   6.783   7.358 -0.1356  0.2801  2.6793
  116OSM   H10T12127   3.012   6.798   7.380 -1.8529  2.0286  1.1928
  116OSM   C11S12128   2.945   6.618   7.457 -0.7655  0.1396  0.2149
  116OSM   H11S12129   3.042   6.565   7.448 -0.4574  0.8616 -0.8266
  116OSM   H11T12130   2.862   6.543   7.451  0.0360 -0.6286 -2.1696
  116OSM   C12S12131   2.935   6.671   7.596  0.4887 -0.6808 -0.1388
  116OSM   H12S12132   2.847   6.739   7.592  0.8481 -0.2061 -0.0255
  116OSM   H12T12133   3.022   6.738   7.616 -0.0871 -0.5347  2.1011
  116OSM   C13S12134   2.934   6.570   7.707 -0.1337 -0.1998 -0.0950
  116OSM   H13S12135   2.841   6.508   7.707 -0.9034  0.9214 -1.3124
  116OSM   H13T12136   2.932   6.626   7.802  1.0871 -0.5596  0.1496
  116OSM   C14S12137   3.054   6.477   7.697  0.5693  0.8348  0.0444
  116OSM   H14S12138   3.139   6.548   7.687 -0.0937  1.4622 -1.2930
  116OSM   H14T12139   3.074   6.412   7.609  3.8513 -2.7595  3.2598
  116OSM   C15S12140   3.074   6.384   7.819  0.0152  0.1544 -0.7018
  116OSM   H15S12141   2.992   6.309   7.825  1.5234 -1.3316  2.9859
  116OSM   H15T12142   3.064   6.434   7.918 -2.5378 -1.1394 -0.2435
  116OSM   C16S12143   3.207   6.308   7.825  0.1485  0.5793 -0.4370
  116OSM   H16S12144   3.289   6.379   7.800  0.4086  0.1046 -0.9429
  116OSM   H16T12145   3.219   6.239   7.739  2.4698 -0.7837  0.9342
  116OSM   C17S12146   3.241   6.233   7.956  0.5975 -0.0295 -0.0352
  116OSM   H17S12147   3.250   6.309   8.036  1.1429  0.9819 -1.0360
  116OSM   H17T12148   3.337   6.179   7.943  0.6860 -0.0335  0.6552
  116OSM   C18S12149   3.124   6.135   7.996  0.2123 -0.1133  0.5743
  116OSM   H18S12150   3.114   6.047   7.929  2.0610  0.5659 -0.6516
  116OSM   H18T12151   3.029   6.192   8.002 -0.9387 -2.0118  0.6700
  116OSM   H18U12152   3.152   6.091   8.094  0.9687 -2.8999 -0.8541
  116OSM    C1F12153   3.290   6.321   6.746  0.1211  0.4553  0.3150
  116OSM     OF12154   3.394   6.354   6.691 -0.5271  0.1357 -0.1746
  116OSM    C2F12155   3.302   6.232   6.872 -0.0894 -0.8409 -0.8499
  116OSM    H2F12156   3.266   6.129   6.852 -0.8317 -0.5212 -1.2164
  116OSM    H2G12157   3.231   6.273   6.948  0.1607  1.3485 -1.7619
  116OSM    C3F12158   3.448   6.214   6.916  0.5848 -0.2631  0.3183
  116OSM    H3F12159   3.496   6.313   6.923 -0.2122  0.2931 -1.5611
  116OSM    H3G12160   3.503   6.158   6.837  1.5922  1.0772  0.0473
  116OSM    C4F12161   3.462   6.134   7.046  0.0660  0.2030 -0.0945
  116OSM    H4F12162   3.439   6.026   7.039  2.1562 -0.3695  1.4086
  116OSM    H4G12163   3.387   6.183   7.113  2.2401 -0.1845  2.7075
  116OSM    C5F12164   3.605   6.130   7.096 -0.0464  0.1969 -0.5503
  116OSM    H5F12165   3.628   6.236   7.120 -0.9151 -0.2718  2.5505
  116OSM    H5G12166   3.668   6.087   7.015  2.0825 -2.6602  2.5400
  116OSM    C6F12167   3.620   6.037   7.223 -0.3406  0.0118  0.0112
  116OSM    H6F12168   3.712   6.082   7.267 -0.6090 -0.4904  1.0938
  116OSM    H6G12169   3.634   5.928   7.206 -1.7516 -0.2010  0.1997
  116OSM    C7F12170   3.516   6.058   7.330  0.0673  0.0696  1.0280
  116OSM    H7F12171   3.414   6.030   7.295  1.4943 -0.5252 -2.8466
  116OSM    H7G12172   3.525   6.166   7.357 -1.6002  0.5808 -0.3197
  116OSM    C8F12173   3.545   5.976   7.458  0.5936  0.0413  0.3697
  116OSM    H8F12174   3.648   5.990   7.497  0.9402 -0.6768 -0.2596
  116OSM    H8G12175   3.531   5.870   7.428 -2.9762  0.6727 -0.3673
  116OSM    C9F12176   3.449   6.008   7.573  0.0171  0.3057 -0.1694
  116OSM    H9F12177   3.340   6.015   7.558 -0.1647 -0.1116  0.9383
  116OSM   C10F12178   3.477   6.011   7.701 -0.4817  0.3907  0.2031
  116OSM   H10F12179   3.395   6.039   7.768  0.0019 -0.5159  1.1873
  116OSM   C11F12180   3.605   5.975   7.772 -0.2377 -0.2213 -0.0295
  116OSM   H11F12181   3.642   6.064   7.828  0.2595  0.1740 -0.9742
  116OSM   H11G12182   3.673   5.932   7.695 -0.3227 -1.5752  0.6476
  116OSM   C12F12183   3.581   5.860   7.869 -0.4242  0.5498 -0.0461
  116OSM   H12F12184   3.678   5.813   7.899 -0.3677  0.9394  0.3829
  116OSM   H12G12185   3.524   5.779   7.819 -1.9056  1.8393 -0.4584
  116OSM   C13F12186   3.508   5.900   8.004 -0.1051  0.6947  0.3288
  116OSM   H13F12187   3.411   5.948   7.980 -0.3402  1.4349  2.7010
  116OSM   H13G12188   3.573   5.980   8.045 -0.6035  1.0645  0.4002
  116OSM   C14F12189   3.496   5.779   8.103  0.0821 -0.7725  0.1929
  116OSM   H14F12190   3.572   5.699   8.084  0.4559 -0.9640  2.3970
  116OSM   H14G12191   3.403   5.725   8.076  0.3469 -1.9778  1.6225
  116OSM   C15F12192   3.490   5.823   8.251  0.1389  0.0205  0.6668
  116OSM   H15F12193   3.594   5.861   8.266  0.7310 -2.0080  1.9059
  116OSM   H15G12194   3.506   5.740   8.323  0.6665  1.4588  2.2654
  116OSM   C16F12195   3.379   5.919   8.286  0.3475 -0.3997  0.2380
  116OSM   H16F12196   3.288   5.856   8.289  0.0839  0.0170  1.0667
  116OSM   H16G12197   3.366   6.004   8.215 -3.3666  1.7724  3.3166
  116OSM   C17F12198   3.397   5.968   8.436  0.2368 -0.3115 -0.4093
  116OSM   H17F12199   3.503   5.986   8.462  0.0765 -0.2897  0.2162
  116OSM   H17G12200   3.371   5.885   8.505  1.0418  0.3247  0.6550
  116OSM   C18F12201   3.316   6.090   8.475  0.3010  0.2384  0.3502
  116OSM   H18F12202   3.337   6.127   8.578 -1.9663 -1.5503  1.4998
  116OSM   H18G12203   3.208   6.066   8.486  0.8453 -0.7683  4.2899
  116OSM   H18H12204   3.339   6.170   8.401 -2.2079  0.4159 -0.2785
  117OSM      N12205   2.296   2.091   5.848  0.2317 -0.8645 -0.3105
  117OSM    C1512206   2.166   2.132   5.791 -0.7354  0.0268 -0.0755
  117OSM   H15A12207   2.193   2.183   5.699  3.3487 -2.6139 -0.4787
  117OSM   H15B12208   2.111   2.208   5.845  1.7202  0.8229  1.3598
  117OSM   H15C12209   2.105   2.049   5.762  1.6898 -1.2104 -1.8146
  117OSM    C1412210   2.380   2.012   5.752  0.3692 -0.0684  0.3156
  117OSM   H14A12211   2.402   2.082   5.672 -1.8379 -0.4562 -0.6804
  117OSM   H14B12212   2.318   1.933   5.712 -0.0113  0.3740  0.0253
  117OSM   H14C12213   2.467   1.967   5.797  0.7252 -0.8585 -1.1099
  117OSM    C1312214   2.375   2.219   5.867  0.0494 -0.4074 -0.6900
  117OSM   H13A12215   2.316   2.282   5.932 -1.7898  0.1289 -2.8090
  117OSM   H13B12216   2.382   2.279   5.778  0.1054  1.1698  0.3555
  117OSM   H13C12217   2.473   2.216   5.911 -0.4026 -0.2567  0.3505
  117OSM    C1212218   2.286   2.007   5.974 -0.6120  0.6933  0.1946
  117OSM   H12A12219   2.234   1.914   5.952  0.1844  0.1842  0.4275
  117OSM   H12B12220   2.231   2.049   6.057 -1.0573 -0.0051  0.2571
  117OSM    C1112221   2.413   1.959   6.042  0.2785  0.2455  0.7673
  117OSM   H11A12222   2.467   2.051   6.072 -1.1266  0.9261  1.2657
  117OSM   H11B12223   2.480   1.903   5.974  0.4409  0.8052  0.4624
  117OSM      P12224   2.489   1.841   6.260 -0.3836  0.8662 -0.4898
  117OSM    O1312225   2.436   1.747   6.358 -0.9826 -0.3985 -0.3221
  117OSM    O1412226   2.615   1.796   6.194  0.3018  0.7883  0.1919
  117OSM    O1112227   2.522   1.981   6.319  0.5786 -0.2907 -0.0024
  117OSM    O1212228   2.382   1.870   6.152 -0.4589 -0.4156  0.1219
  117OSM    C1S12229   2.425   2.076   6.365 -0.1033 -0.1809  0.2814
  117OSM    H1S12230   2.330   2.056   6.311 -0.5601 -1.2007  1.4257
  117OSM    H1T12231   2.455   2.181   6.348 -1.9906  0.1323 -1.3631
  117OSM     NF12232   2.284   2.139   6.558 -0.1886 -0.4769  0.0478
  117OSM    HNF12233   2.303   2.202   6.633  0.3826 -1.4178  0.7022
  117OSM    C2S12234   2.398   2.062   6.519  0.2267  0.1298  0.3408
  117OSM    H2S12235   2.366   1.957   6.540 -1.3043  0.8538  1.6573
  117OSM    C3S12236   2.525   2.088   6.605  0.4508  0.0884 -0.5631
  117OSM    H3S12237   2.556   2.194   6.608 -1.3187  0.6707 -1.9549
  117OSM     O312238   2.642   2.012   6.560  0.0679  0.3953 -0.0433
  117OSM    HO312239   2.634   2.008   6.465  0.0719  2.1601 -0.1317
  117OSM    C4S12240   2.497   2.047   6.754  0.3694  0.1798  0.1644
  117OSM    H4S12241   2.488   1.938   6.766 -1.0526 -0.0562 -2.6504
  117OSM    C5S12242   2.487   2.131   6.859 -0.6386  0.1846  0.1787
  117OSM    H5S12243   2.496   2.239   6.839  2.6547 -0.5005 -2.4685
  117OSM    C6S12244   2.459   2.082   7.000  0.0455 -0.6834  0.4041
  117OSM    H6S12245   2.443   1.972   7.004 -1.3329 -0.4515  2.0234
  117OSM    H6T12246   2.365   2.130   7.036 -0.7052 -0.8957 -1.2305
  117OSM    C7S12247   2.574   2.112   7.102 -0.1975 -0.5601  0.5854
  117OSM    H7S12248   2.591   2.221   7.088 -1.1712 -0.3421  1.0577
  117OSM    H7T12249   2.668   2.060   7.076 -0.6056 -2.1118  2.1134
  117OSM    C8S12250   2.534   2.100   7.250 -0.6876 -0.2790  0.2919
  117OSM    H8S12251   2.497   1.996   7.266  2.8599 -1.0750  3.9007
  117OSM    H8T12252   2.448   2.168   7.267 -2.7635 -2.1607 -2.2005
  117OSM    C9S12253   2.644   2.130   7.351 -0.2342 -0.3107 -0.7245
  117OSM    H9S12254   2.697   2.221   7.317  1.8616 -1.7311 -1.3956
  117OSM    H9T12255   2.708   2.040   7.362  2.4095  1.6410  0.2969
  117OSM   C10S12256   2.597   2.182   7.492  0.4321  0.7674  0.0649
  117OSM   H10S12257   2.567   2.091   7.548 -3.7570  2.0577  0.1011
  117OSM   H10T12258   2.510   2.252   7.485  0.9731  1.8498  3.3061
  117OSM   C11S12259   2.695   2.251   7.582 -0.0735 -0.7850 -0.3446
  117OSM   H11S12260   2.650   2.251   7.684 -1.9415 -0.0802 -1.1412
  117OSM   H11T12261   2.710   2.356   7.547  0.8152 -1.2392 -1.3479
  117OSM   C12S12262   2.834   2.191   7.583 -0.1353 -0.3389 -0.0461
  117OSM   H12S12263   2.867   2.197   7.477 -1.3530  2.9117 -0.3021
  117OSM   H12T12264   2.823   2.087   7.619  0.7213 -0.1437  0.8218
  117OSM   C13S12265   2.936   2.266   7.666 -0.0187 -0.4766  0.2247
  117OSM   H13S12266   2.910   2.373   7.685  2.6156 -0.0598  1.6645
  117OSM   H13T12267   3.034   2.282   7.617  0.6085  0.2369  1.6852
  117OSM   C14S12268   2.960   2.195   7.801 -0.9272 -0.4324 -0.2584
  117OSM   H14S12269   3.016   2.100   7.788 -1.5112 -1.0982  1.9145
  117OSM   H14T12270   2.869   2.162   7.856 -1.2903  1.2630  0.1654
  117OSM   C15S12271   3.045   2.288   7.886 -0.2520 -0.4975  0.0140
  117OSM   H15S12272   2.988   2.382   7.899  1.7379  1.0401 -1.9513
  117OSM   H15T12273   3.144   2.305   7.838 -0.7587  1.2996 -0.4407
  117OSM   C16S12274   3.069   2.235   8.034 -0.2600 -0.0306  0.0250
  117OSM   H16S12275   3.083   2.125   8.042  2.3134  0.1267 -1.5528
  117OSM   H16T12276   2.988   2.265   8.103  1.4752 -0.8772  2.4931
  117OSM   C17S12277   3.188   2.301   8.086 -0.1224 -0.4905 -0.0775
  117OSM   H17S12278   3.279   2.265   8.034  1.3610  2.0569  0.6541
  117OSM   H17T12279   3.194   2.277   8.194  1.3243  3.3961  0.8008
  117OSM   C18S12280   3.186   2.458   8.079 -0.1576  0.4394  0.6074
  117OSM   H18S12281   3.278   2.490   8.132  1.2541 -1.5003 -0.5892
  117OSM   H18T12282   3.099   2.487   8.142 -0.1400  0.3600  0.6666
  117OSM   H18U12283   3.180   2.494   7.975 -0.1027 -1.2082  0.0129
  117OSM    C1F12284   2.162   2.134   6.511  0.2800 -0.0223  0.6102
  117OSM     OF12285   2.137   2.041   6.432 -0.1247 -0.0901 -0.1473
  117OSM    C2F12286   2.064   2.234   6.566 -0.4300  0.2289  0.6561
  117OSM    H2F12287   2.001   2.263   6.479 -1.3191 -0.4473  1.0683
  117OSM    H2G12288   2.127   2.319   6.600 -2.5217  1.6480  1.0793
  117OSM    C3F12289   1.966   2.187   6.681 -0.2142 -1.0893  0.6833
  117OSM    H3F12290   1.911   2.096   6.651 -2.8271  0.7538 -0.2450
  117OSM    H3G12291   1.893   2.268   6.701  1.6262  0.8795 -0.3128
  117OSM    C4F12292   2.041   2.147   6.807 -0.2679 -0.3377 -0.2265
  117OSM    H4F12293   2.102   2.234   6.838 -0.0999 -1.0868  1.5983
  117OSM    H4G12294   2.118   2.073   6.777  1.0529  0.8342  0.2022
  117OSM    C5F12295   1.955   2.089   6.923 -0.1242 -0.6203  0.6243
  117OSM    H5F12296   1.910   1.994   6.889 -0.7480 -0.9515  2.3363
  117OSM    H5G12297   1.869   2.158   6.932  0.7467  0.3421  1.7817
  117OSM    C6F12298   2.032   2.080   7.055  0.4692  0.7584  0.6734
  117OSM    H6F12299   1.964   2.068   7.141  0.9180  0.4205  0.9850
  117OSM    H6G12300   2.097   2.168   7.072  0.2336  1.3641 -1.3307
  117OSM    C7F12301   2.127   1.957   7.062 -0.1254 -0.0397 -0.0035
  117OSM    H7F12302   2.206   1.970   6.984 -0.1445  0.4280  0.0548
  117OSM    H7G12303   2.070   1.865   7.037  0.5176 -0.6810  0.8441
  117OSM    C8F12304   2.199   1.935   7.196 -0.3373  0.0838 -0.4583
  117OSM    H8F12305   2.251   2.030   7.221 -1.0060  0.5707 -0.8729
  117OSM    H8G12306   2.268   1.850   7.179  2.5702  2.4058 -0.6942
  117OSM    C9F12307   2.113   1.887   7.312  0.3281  0.2136 -0.1329
  117OSM    H9F12308   2.055   1.794   7.302 -1.3030  1.2126 -0.0825
  117OSM   C10F12309   2.117   1.933   7.445 -0.2634  0.1974 -0.1872
  117OSM   H10F12310   2.043   1.892   7.516 -1.4272 -0.3833 -1.7294
  117OSM   C11F12311   2.197   2.051   7.499  0.7488 -0.0669 -0.1429
  117OSM   H11F12312   2.113   2.117   7.527  0.1533 -1.3447  1.1730
  117OSM   H11G12313   2.270   2.097   7.429  1.0407 -1.3703 -0.7120
  117OSM   C12F12314   2.284   2.013   7.628  0.6645  0.2091 -0.3567
  117OSM   H12F12315   2.333   2.106   7.662  0.4955 -0.4353  1.7621
  117OSM   H12G12316   2.364   1.945   7.592  0.1064 -0.5001 -0.2765
  117OSM   C13F12317   2.200   1.954   7.751  0.5231  0.6997 -0.4996
  117OSM   H13F12318   2.164   1.854   7.720 -0.4337  1.0670 -0.5845
  117OSM   H13G12319   2.110   2.015   7.770 -0.5157 -0.6507 -1.0201
  117OSM   C14F12320   2.286   1.929   7.881 -0.0669 -0.5205  0.0220
  117OSM   H14F12321   2.326   2.031   7.902 -0.1144 -0.5505  0.2550
  117OSM   H14G12322   2.369   1.862   7.852 -0.0062 -0.2034 -0.5646
  117OSM   C15F12323   2.212   1.877   8.001  0.7306  0.3793  0.0448
  117OSM   H15F12324   2.166   1.777   7.983  0.8479 -0.4055  3.8417
  117OSM   H15G12325   2.144   1.961   8.027 -0.4130 -0.2087 -0.9478
  117OSM   C16F12326   2.311   1.867   8.118 -0.0960  0.7036  1.0169
  117OSM   H16F12327   2.381   1.953   8.125 -2.4191  2.7524 -0.3807
  117OSM   H16G12328   2.370   1.775   8.098  0.1976  1.2493 -0.6552
  117OSM   C17F12329   2.239   1.846   8.252 -0.2263 -0.6071  0.3491
  117OSM   H17F12330   2.183   1.751   8.262 -1.4462  0.1955  1.1484
  117OSM   H17G12331   2.330   1.832   8.314  0.1339 -1.3412 -0.3368
  117OSM   C18F12332   2.152   1.969   8.306 -0.5134  0.5956 -0.4696
  117OSM   H18F12333   2.128   1.949   8.413  0.8488 -1.4122 -0.5181
  117OSM   H18G12334   2.063   1.981   8.242  0.4546  0.1665 -1.9186
  117OSM   H18H12335   2.205   2.066   8.294  0.6982 -0.1325 -1.1017
  118OSM      N12336   4.329   3.882   5.891 -0.1461 -0.5757  0.0313
  118OSM    C1512337   4.193   3.811   5.893 -0.7845  0.0521  0.2288
  118OSM   H15A12338   4.116   3.885   5.907 -0.2237  0.5315  0.7810
  118OSM   H15B12339   4.199   3.732   5.966  2.0079  2.0523  2.2667
  118OSM   H15C12340   4.179   3.753   5.803 -0.9636 -4.2437  2.9006
  118OSM    C1412341   4.430   3.778   5.855 -0.4015  0.5597  0.0115
  118OSM   H14A12342   4.418   3.707   5.935  0.5781  1.0890  0.6485
  118OSM   H14B12343   4.531   3.817   5.852  0.2058 -0.8788  0.7753
  118OSM   H14C12344   4.396   3.731   5.764  1.0837 -0.0455 -0.2520
  118OSM    C1312345   4.334   3.987   5.777  0.3467  0.2978  0.5493
  118OSM   H13A12346   4.302   3.947   5.682  2.5085 -1.4044  0.5156
  118OSM   H13B12347   4.432   4.028   5.764 -0.1166  1.3154  0.2450
  118OSM   H13C12348   4.276   4.077   5.792 -1.5690 -0.3021 -2.6437
  118OSM    C1212349   4.354   3.946   6.029  0.9691  0.2031  1.0858
  118OSM   H12A12350   4.273   4.012   6.058  0.7427 -0.4510  1.9316
  118OSM   H12B12351   4.447   4.001   6.028 -0.1530  2.1732 -1.5549
  118OSM    C1112352   4.372   3.842   6.139 -0.9351 -0.3044 -0.1854
  118OSM   H11A12353   4.277   3.787   6.155 -2.3705  1.4811 -2.2251
  118OSM   H11B12354   4.380   3.906   6.230 -0.3269 -0.0033 -0.4500
  118OSM      P12355   4.631   3.778   6.175 -0.1132 -0.3976  0.3943
  118OSM    O1312356   4.715   3.670   6.139 -0.0185  0.2777  0.1186
  118OSM    O1412357   4.660   3.911   6.118  0.8372 -0.0642  0.0471
  118OSM    O1112358   4.612   3.788   6.329  0.0639  0.0830 -0.3452
  118OSM    O1212359   4.486   3.747   6.130  0.5102  0.6514 -0.5804
  118OSM    C1S12360   4.586   3.660   6.395 -0.3683 -0.0890 -0.5752
  118OSM    H1S12361   4.656   3.576   6.371  0.1824  0.5127 -1.1209
  118OSM    H1T12362   4.481   3.626   6.384 -0.5727 -0.7535  2.9245
  118OSM     NF12363   4.599   3.523   6.600  0.2509  0.7457 -0.3262
  118OSM    HNF12364   4.506   3.491   6.615  1.1934 -1.6660  0.6153
  118OSM    C2S12365   4.605   3.656   6.553 -0.1812 -0.4878 -0.3134
  118OSM    H2S12366   4.704   3.704   6.571 -0.3118  0.5840 -2.3129
  118OSM    C3S12367   4.505   3.765   6.620 -0.1966 -0.6512  0.2876
  118OSM    H3S12368   4.403   3.726   6.603 -0.8659  1.9685 -2.0650
  118OSM     O312369   4.515   3.892   6.560 -0.2098 -0.4506  0.3653
  118OSM    HO312370   4.564   3.876   6.480  0.5549 -1.6622  1.0635
  118OSM    C4S12371   4.536   3.778   6.770 -0.5881 -0.0293  0.1386
  118OSM    H4S12372   4.614   3.851   6.796 -1.4885  1.7042 -1.9540
  118OSM    C5S12373   4.473   3.705   6.864  0.3556 -0.4589 -0.3567
  118OSM    H5S12374   4.392   3.646   6.820  1.3861 -0.9143 -1.6817
  118OSM    C6S12375   4.488   3.724   7.007 -0.0557 -0.3869 -0.1208
  118OSM    H6S12376   4.389   3.729   7.057 -0.1496 -1.2120 -0.2173
  118OSM    H6T12377   4.533   3.823   7.033 -0.4349 -0.4161  0.6821
  118OSM    C7S12378   4.575   3.618   7.088 -0.0834  0.0802 -0.2155
  118OSM    H7S12379   4.685   3.632   7.073 -0.4425  1.6014 -1.5779
  118OSM    H7T12380   4.545   3.514   7.063  1.7846 -0.3416 -0.8078
  118OSM    C8S12381   4.542   3.614   7.242 -0.2774 -0.1881  0.0397
  118OSM    H8S12382   4.589   3.530   7.297  0.8749  0.3745 -0.0835
  118OSM    H8T12383   4.433   3.623   7.263  0.1614  0.9037  1.9707
  118OSM    C9S12384   4.592   3.741   7.307  0.5777  0.1425 -0.1998
  118OSM    H9S12385   4.544   3.828   7.256 -0.5726  0.2229  0.9907
  118OSM    H9T12386   4.703   3.745   7.303  0.5392  1.0669 -0.5415
  118OSM   C10S12387   4.547   3.759   7.456 -0.2235 -0.2874  0.4686
  118OSM   H10S12388   4.442   3.797   7.455  0.6666  2.3689  2.7934
  118OSM   H10T12389   4.608   3.838   7.504  1.2457 -0.8789 -0.4008
  118OSM   C11S12390   4.552   3.637   7.541  0.3728 -0.8310 -0.1033
  118OSM   H11S12391   4.653   3.592   7.530  0.3542 -0.8607 -0.1548
  118OSM   H11T12392   4.486   3.560   7.497  0.5379 -1.9069  1.5049
  118OSM   C12S12393   4.521   3.658   7.690  0.2443  0.0490  1.5096
  118OSM   H12S12394   4.536   3.555   7.730  0.7755  0.8467  3.3790
  118OSM   H12T12395   4.411   3.674   7.701 -0.0024  0.3285 -1.0584
  118OSM   C13S12396   4.612   3.753   7.764  0.1030 -0.2398  0.9731
  118OSM   H13S12397   4.574   3.857   7.751  2.5593  0.5332 -0.2021
  118OSM   H13T12398   4.716   3.738   7.729 -0.1337 -3.2517  1.4236
  118OSM   C14S12399   4.592   3.732   7.909 -0.0316  0.2010  0.4701
  118OSM   H14S12400   4.622   3.632   7.947 -0.4347 -0.1887 -0.2335
  118OSM   H14T12401   4.485   3.732   7.937  0.2714 -2.4281  1.8286
  118OSM   C15S12402   4.656   3.846   7.992 -0.4258  0.0510 -0.4157
  118OSM   H15S12403   4.642   3.947   7.948 -2.7450 -0.2765 -0.4786
  118OSM   H15T12404   4.765   3.830   8.004 -0.3406 -1.0690 -2.4696
  118OSM   C16S12405   4.604   3.863   8.140  0.5092  0.8171 -0.2607
  118OSM   H16S12406   4.628   3.768   8.193 -0.5675 -0.9812 -2.8435
  118OSM   H16T12407   4.494   3.877   8.137  0.1155 -1.7907  0.7834
  118OSM   C17S12408   4.675   3.975   8.229 -0.1626 -0.3252  0.7900
  118OSM   H17S12409   4.659   4.075   8.183 -0.3742 -0.5508  0.3692
  118OSM   H17T12410   4.781   3.943   8.218  0.0394  0.8357 -0.7398
  118OSM   C18S12411   4.663   3.989   8.380  0.0289 -0.2648  0.0278
  118OSM   H18S12412   4.559   4.013   8.411  0.4535  0.9252  0.5902
  118OSM   H18T12413   4.730   4.067   8.423  0.1989  1.1469 -2.6996
  118OSM   H18U12414   4.687   3.895   8.433 -2.1761 -1.8080 -1.6346
  118OSM    C1F12415   4.703   3.439   6.594 -0.0329  0.2568 -0.7325
  118OSM     OF12416   4.812   3.473   6.545  0.0391 -0.0903 -0.2874
  118OSM    C2F12417   4.671   3.294   6.634  0.0689 -0.0411 -0.6695
  118OSM    H2F12418   4.673   3.239   6.537 -2.2016 -1.0639 -0.1850
  118OSM    H2G12419   4.565   3.288   6.665 -0.2698  1.1468 -1.5652
  118OSM    C3F12420   4.762   3.233   6.737 -0.1131  0.2090  0.1074
  118OSM    H3F12421   4.871   3.248   6.721  0.2317  0.0145  2.2147
  118OSM    H3G12422   4.736   3.125   6.743 -0.9490  0.3699 -0.4704
  118OSM    C4F12423   4.733   3.300   6.870  0.5538  0.1388 -0.1041
  118OSM    H4F12424   4.633   3.257   6.895  0.1709  0.8499 -0.4017
  118OSM    H4G12425   4.726   3.411   6.875  0.0739  0.1001  0.1424
  118OSM    C5F12426   4.819   3.238   6.984 -0.2788  0.0773  0.5153
  118OSM    H5F12427   4.924   3.267   6.966  0.3023 -2.1494  0.1100
  118OSM    H5G12428   4.813   3.127   6.992 -0.1220  0.1206  1.3166
  118OSM    C6F12429   4.780   3.303   7.121  0.1098  0.4303  0.3093
  118OSM    H6F12430   4.689   3.259   7.167  1.3159 -2.4359  0.0842
  118OSM    H6G12431   4.756   3.406   7.086 -2.5209 -0.6505 -1.1961
  118OSM    C7F12432   4.897   3.303   7.218  0.2165  0.9886 -0.0772
  118OSM    H7F12433   4.992   3.322   7.164  0.3601  2.1431  0.5663
  118OSM    H7G12434   4.912   3.207   7.273 -0.4346  0.7296 -0.3537
  118OSM    C8F12435   4.876   3.397   7.330 -0.0380  0.7080  0.5330
  118OSM    H8F12436   4.848   3.499   7.298 -0.4567  0.6849  0.8295
  118OSM    H8G12437   4.976   3.411   7.377  1.4036  0.4568 -2.3066
  118OSM    C9F12438   4.776   3.345   7.432 -1.0927 -0.3141 -0.3164
  118OSM    H9F12439   4.672   3.336   7.397 -1.2826  3.2495 -0.8183
  118OSM   C10F12440   4.798   3.318   7.566  0.4817 -0.5315  0.5255
  118OSM   H10F12441   4.712   3.297   7.630 -0.2981 -0.4564 -0.4861
  118OSM   C11F12442   4.924   3.335   7.639 -0.8407 -0.1609 -0.6705
  118OSM   H11F12443   5.004   3.367   7.569  0.7314 -0.9395  0.7195
  118OSM   H11G12444   4.957   3.243   7.692 -2.9896  0.6929  2.3053
  118OSM   C12F12445   4.906   3.441   7.756  0.0016  0.5660  0.1071
  118OSM   H12F12446   4.816   3.406   7.810  0.1810  0.4711  0.3429
  118OSM   H12G12447   4.882   3.541   7.713 -3.4871  0.7748  2.3949
  118OSM   C13F12448   5.030   3.467   7.848 -0.5919 -0.1786  0.1956
  118OSM   H13F12449   5.116   3.511   7.793 -1.9847  0.8518 -1.1999
  118OSM   H13G12450   5.050   3.366   7.889  0.4278  0.3585  1.0577
  118OSM   C14F12451   4.994   3.552   7.976 -1.1344  0.3064 -0.4925
  118OSM   H14F12452   4.964   3.654   7.945 -0.6274  0.5541 -0.1644
  118OSM   H14G12453   5.095   3.575   8.015 -0.0555 -0.3435 -2.8168
  118OSM   C15F12454   4.899   3.478   8.066 -1.0124  0.4252  0.5502
  118OSM   H15F12455   4.930   3.372   8.083 -1.2405  0.5573  1.7526
  118OSM   H15G12456   4.798   3.472   8.021 -0.1355 -0.6103 -1.3619
  118OSM   C16F12457   4.890   3.565   8.201  0.0475 -0.0183 -0.2992
  118OSM   H16F12458   4.871   3.669   8.166  1.6219  0.7542  1.1293
  118OSM   H16G12459   4.993   3.568   8.241  0.1897  4.0122 -0.7581
  118OSM   C17F12460   4.770   3.537   8.293 -0.0308 -0.2537 -0.0302
  118OSM   H17F12461   4.672   3.555   8.245 -1.7156 -0.3009  3.2365
  118OSM   H17G12462   4.785   3.612   8.374  0.0167 -1.0717  0.7264
  118OSM   C18F12463   4.768   3.406   8.376 -0.7137 -0.9653  0.8643
  118OSM   H18F12464   4.757   3.309   8.322  1.0689 -0.0819 -1.1313
  118OSM   H18G12465   4.697   3.416   8.461 -0.2537 -1.5694  1.3289
  118OSM   H18H12466   4.859   3.390   8.437 -0.5314  1.5148  1.2719
  119OSM      N12467   5.758   3.182   5.656 -0.0784  0.4844  1.0007
  119OSM    C1512468   5.610   3.190   5.643 -0.1896  0.5865 -0.2159
  119OSM   H15A12469   5.580   3.099   5.694 -2.4085  0.8800 -0.9665
  119OSM   H15B12470   5.579   3.182   5.540  0.4250 -0.2297 -0.3484
  119OSM   H15C12471   5.573   3.279   5.690  0.5670  0.1382  1.2612
  119OSM    C1412472   5.829   3.252   5.546 -0.6826  0.5187  0.1500
  119OSM   H14A12473   5.792   3.353   5.556 -2.3188 -0.1217  0.9580
  119OSM   H14B12474   5.816   3.205   5.450 -1.9289 -1.7610  1.3930
  119OSM   H14C12475   5.936   3.253   5.557 -0.6126 -2.1514  0.0333
  119OSM    C1312476   5.802   3.239   5.786 -0.9300  0.0122  0.7266
  119OSM   H13A12477   5.752   3.201   5.874  0.0156 -1.6888  0.5459
  119OSM   H13B12478   5.793   3.347   5.788 -1.8984 -0.0536 -0.1905
  119OSM   H13C12479   5.909   3.221   5.787 -0.8023  0.6888 -0.2761
  119OSM    C1212480   5.794   3.040   5.640  0.1042 -0.5070  0.2016
  119OSM   H12A12481   5.764   3.014   5.539  1.4497  1.3550 -0.7174
  119OSM   H12B12482   5.738   2.970   5.700 -0.1344 -2.0583 -1.7633
  119OSM    C1112483   5.943   3.000   5.661  0.1635 -0.5768  0.6734
  119OSM   H11A12484   6.006   3.070   5.603  2.3534 -4.0295 -1.3196
  119OSM   H11B12485   5.958   2.900   5.615  0.3329  0.5918 -1.8910
  119OSM      P12486   5.962   2.864   5.877  0.0639  0.2475 -0.1258
  119OSM    O1312487   5.826   2.812   5.856 -0.0477 -0.1403 -0.2460
  119OSM    O1412488   6.079   2.778   5.860  0.1109 -0.2203 -0.1301
  119OSM    O1112489   5.970   2.919   6.022 -0.2894  0.2926 -0.0944
  119OSM    O1212490   5.990   2.994   5.794  0.3771 -0.9709  0.5346
  119OSM    C1S12491   5.938   2.832   6.128 -0.3729  0.6133  0.2406
  119OSM    H1S12492   6.013   2.751   6.142 -0.9966  0.0782  0.5156
  119OSM    H1T12493   5.838   2.787   6.111 -1.1490  1.8304  1.4256
  119OSM     NF12494   5.917   2.805   6.377 -0.0770  0.0018 -0.1374
  119OSM    HNF12495   5.825   2.797   6.414 -0.1863  1.3610 -0.0784
  119OSM    C2S12496   5.939   2.904   6.267 -0.0950  0.2022  0.0862
  119OSM    H2S12497   6.039   2.953   6.272  0.4340 -0.8196 -0.4398
  119OSM    C3S12498   5.842   3.025   6.282  0.3812 -0.1886 -0.3024
  119OSM    H3S12499   5.737   2.994   6.302  0.3909 -0.2949 -0.4105
  119OSM     O312500   5.824   3.106   6.164  0.5357  0.2489  0.1203
  119OSM    HO312501   5.880   3.064   6.098  0.2291  2.8712 -1.8979
  119OSM    C4S12502   5.875   3.108   6.396 -0.1227 -0.1857  0.0547
  119OSM    H4S12503   5.974   3.155   6.384  0.6637 -1.8150 -0.0644
  119OSM    C5S12504   5.810   3.118   6.515  0.0499  0.0305  0.1388
  119OSM    H5S12505   5.726   3.050   6.537  0.0167  0.1492  0.3837
  119OSM    C6S12506   5.849   3.196   6.631  0.0933  0.5657 -0.4555
  119OSM    H6S12507   5.774   3.277   6.643  1.3745  1.5727  0.8804
  119OSM    H6T12508   5.951   3.236   6.613  0.4398 -0.0416  0.1733
  119OSM    C7S12509   5.845   3.103   6.754 -0.3148 -0.4628  0.0952
  119OSM    H7S12510   5.917   3.021   6.733 -1.3383 -2.0478  2.5040
  119OSM    H7T12511   5.744   3.057   6.762  0.5718 -2.1171  2.5193
  119OSM    C8S12512   5.889   3.186   6.877  0.0024  0.1170 -0.0328
  119OSM    H8S12513   5.987   3.236   6.859  0.5025 -0.8354 -0.0137
  119OSM    H8T12514   5.908   3.115   6.960 -2.4548 -1.4635 -0.7662
  119OSM    C9S12515   5.773   3.281   6.912 -0.2384  0.1734  0.0326
  119OSM    H9S12516   5.690   3.210   6.924  1.6928 -1.8713  1.6436
  119OSM    H9T12517   5.755   3.351   6.827  1.4397 -0.4658 -0.8729
  119OSM   C10S12518   5.784   3.377   7.036 -0.6816  0.2499 -0.5216
  119OSM   H10S12519   5.704   3.454   7.043  1.1412  2.1022  0.5425
  119OSM   H10T12520   5.872   3.446   7.030 -0.2998 -0.0532  1.3794
  119OSM   C11S12521   5.797   3.307   7.169 -0.5479  0.4138  0.1194
  119OSM   H11S12522   5.876   3.229   7.159 -0.5614  0.1863  1.6339
  119OSM   H11T12523   5.708   3.242   7.184 -0.2267  0.4751  2.4554
  119OSM   C12S12524   5.820   3.403   7.285  0.3022  1.0123 -0.7476
  119OSM   H12S12525   5.733   3.472   7.277 -0.3629 -0.0481 -3.1106
  119OSM   H12T12526   5.921   3.449   7.275 -0.0638  1.6145 -1.6354
  119OSM   C13S12527   5.812   3.337   7.422  0.1194 -0.1255  0.1813
  119OSM   H13S12528   5.897   3.268   7.439 -1.7152 -2.0827  1.6673
  119OSM   H13T12529   5.713   3.292   7.440  0.0301  0.5756  1.5748
  119OSM   C14S12530   5.823   3.451   7.529  0.5819  0.4254 -0.6164
  119OSM   H14S12531   5.745   3.523   7.498 -1.4101 -1.3497  0.0953
  119OSM   H14T12532   5.923   3.500   7.529 -0.2649  2.2372  1.6517
  119OSM   C15S12533   5.812   3.408   7.679 -0.5840 -0.4964  0.2293
  119OSM   H15S12534   5.863   3.315   7.713  1.9568  0.4959 -0.7079
  119OSM   H15T12535   5.707   3.374   7.679 -0.4618 -0.8996 -0.6735
  119OSM   C16S12536   5.842   3.523   7.778 -0.2290  0.7963 -0.8459
  119OSM   H16S12537   5.782   3.612   7.749  0.3770  0.9154 -1.7435
  119OSM   H16T12538   5.947   3.560   7.776  0.1521  0.3454  3.6923
  119OSM   C17S12539   5.807   3.475   7.921 -0.2876 -0.0911 -0.5088
  119OSM   H17S12540   5.876   3.389   7.933 -2.7708 -2.0231  0.3141
  119OSM   H17T12541   5.704   3.432   7.925 -0.1631 -0.3577 -0.1495
  119OSM   C18S12542   5.829   3.584   8.026  0.7002  0.1498  0.5713
  119OSM   H18S12543   5.773   3.672   7.989 -0.0975 -0.8237 -0.5907
  119OSM   H18T12544   5.938   3.605   8.036  0.3867  2.6596 -0.8730
  119OSM   H18U12545   5.796   3.560   8.130  0.5706  2.2349  1.0214
  119OSM    C1F12546   6.001   2.709   6.407 -0.6405 -0.3671  0.6532
  119OSM     OF12547   6.108   2.708   6.351  0.2757 -0.0638  0.4223
  119OSM    C2F12548   5.960   2.599   6.498 -0.0121  0.4094  0.4193
  119OSM    H2F12549   5.932   2.522   6.423  0.4811  0.6517 -0.0155
  119OSM    H2G12550   5.877   2.639   6.559  0.8667  2.5332  0.2685
  119OSM    C3F12551   6.081   2.530   6.580 -0.1479  0.4516 -0.3003
  119OSM    H3F12552   6.141   2.486   6.498 -0.7223 -0.5384 -0.1945
  119OSM    H3G12553   6.043   2.440   6.632 -1.9740  0.1714 -2.0213
  119OSM    C4F12554   6.150   2.627   6.682  0.1853 -0.0525  0.2987
  119OSM    H4F12555   6.165   2.725   6.631  0.7646 -0.0560  0.4543
  119OSM    H4G12556   6.251   2.591   6.708 -0.4379 -0.3113  2.5025
  119OSM    C5F12557   6.075   2.644   6.815 -0.2533  0.1442 -0.8850
  119OSM    H5F12558   6.054   2.544   6.859 -1.6520  0.0738 -1.6542
  119OSM    H5G12559   5.973   2.679   6.788 -0.9074 -2.8871 -2.6314
  119OSM    C6F12560   6.138   2.731   6.929 -0.1952  0.2123  0.7141
  119OSM    H6F12561   6.169   2.824   6.876  1.6231 -0.3884  0.6951
  119OSM    H6G12562   6.233   2.676   6.944  0.5717  0.9903 -1.1165
  119OSM    C7F12563   6.049   2.746   7.056 -0.4638 -0.5882  0.1548
  119OSM    H7F12564   6.043   2.642   7.097 -1.3447  0.6770  3.4191
  119OSM    H7G12565   5.945   2.771   7.025  0.3586  2.5053 -0.2504
  119OSM    C8F12566   6.111   2.858   7.146 -0.9436 -0.5902 -0.4411
  119OSM    H8F12567   6.178   2.925   7.087 -1.3900 -0.6885 -1.0605
  119OSM    H8G12568   6.188   2.801   7.202 -1.4974  0.3023  1.2595
  119OSM    C9F12569   6.017   2.949   7.227  0.0858 -0.0847 -0.3220
  119OSM    H9F12570   5.940   3.006   7.174 -0.3362 -1.2430 -0.9721
  119OSM   C10F12571   6.029   2.965   7.359 -0.1362  0.1950  0.0404
  119OSM   H10F12572   5.956   3.031   7.408 -0.7739 -0.6813  0.2996
  119OSM   C11F12573   6.130   2.906   7.455  0.1841  0.1090  0.3781
  119OSM   H11F12574   6.165   2.978   7.532  0.9239 -0.6099  0.7150
  119OSM   H11G12575   6.217   2.883   7.390  0.2426  1.3698  0.0023
  119OSM   C12F12576   6.086   2.780   7.530  0.6415 -0.8373  0.7510
  119OSM   H12F12577   6.169   2.731   7.585  0.8607 -0.2301  0.9739
  119OSM   H12G12578   6.065   2.708   7.448 -1.1065  1.5956 -1.0022
  119OSM   C13F12579   5.974   2.802   7.635  1.0094  0.0606 -0.1660
  119OSM   H13F12580   5.878   2.830   7.587  0.3720 -2.0971 -0.2033
  119OSM   H13G12581   6.011   2.886   7.697 -0.0594 -0.5713  1.3427
  119OSM   C14F12582   5.955   2.672   7.722 -0.0457 -0.6045  0.1573
  119OSM   H14F12583   6.060   2.665   7.760 -0.3584  0.1827  1.1851
  119OSM   H14G12584   5.936   2.588   7.653  1.5352  0.4348 -1.6141
  119OSM   C15F12585   5.858   2.689   7.849 -0.2036  0.2316  0.0787
  119OSM   H15F12586   5.861   2.593   7.905 -3.1540  0.4448  0.6942
  119OSM   H15G12587   5.754   2.698   7.810 -0.4063 -0.4140  0.4617
  119OSM   C16F12588   5.899   2.793   7.953 -0.3741  0.0537  0.0080
  119OSM   H16F12589   5.895   2.899   7.919 -0.9420 -0.8378 -2.8418
  119OSM   H16G12590   6.007   2.788   7.978 -0.1046  2.1295 -0.6070
  119OSM   C17F12591   5.812   2.779   8.081  0.3247 -0.3390 -0.4250
  119OSM   H17F12592   5.823   2.683   8.134  1.9499  0.4037  0.6316
  119OSM   H17G12593   5.705   2.792   8.054 -0.5097 -2.7326  1.5544
  119OSM   C18F12594   5.849   2.884   8.191  0.1506 -0.3039 -0.3233
  119OSM   H18F12595   5.858   2.986   8.149 -0.2096  0.4335  1.3339
  119OSM   H18G12596   5.946   2.868   8.243  1.5960  0.1243 -2.8154
  119OSM   H18H12597   5.774   2.896   8.273  1.8611 -2.3699  1.6111
  120OSM      N12598   3.073   0.496   6.477 -0.2033 -1.5072 -0.3135
  120OSM    C1512599   3.031   0.598   6.585  0.5443 -0.2508 -0.5501
  120OSM   H15A12600   3.119   0.616   6.646 -1.2813 -1.3804  2.5617
  120OSM   H15B12601   2.956   0.551   6.648 -0.5851 -3.4684 -4.0818
  120OSM   H15C12602   2.987   0.691   6.553 -0.5938 -0.8079 -0.6550
  120OSM    C1412603   2.949   0.467   6.400  0.2704  0.2994  0.6361
  120OSM   H14A12604   2.964   0.420   6.304 -0.6161  0.4786  0.4056
  120OSM   H14B12605   2.891   0.553   6.371  0.4242  0.1233 -0.2087
  120OSM   H14C12606   2.884   0.404   6.460  1.4726  0.3759  2.0399
  120OSM    C1312607   3.167   0.567   6.393 -0.3246  0.5088 -0.3788
  120OSM   H13A12608   3.186   0.506   6.306  0.9134  2.9073 -1.8510
  120OSM   H13B12609   3.251   0.593   6.455 -0.6013  1.3562 -0.3465
  120OSM   H13C12610   3.133   0.662   6.352  0.2474 -0.1854 -2.5570
  120OSM    C1212611   3.131   0.374   6.532  0.0039  0.0353  0.1088
  120OSM   H12A12612   3.150   0.308   6.448 -1.5749  1.1798 -1.1826
  120OSM   H12B12613   3.070   0.310   6.593  0.3916 -1.8557 -1.4351
  120OSM    C1112614   3.272   0.376   6.594  0.0684 -0.2804  0.4444
  120OSM   H11A12615   3.276   0.273   6.637  0.1866  0.9863  3.6318
  120OSM   H11B12616   3.273   0.448   6.679  1.0175 -3.2557  3.0768
  120OSM      P12617   3.415   0.297   6.394  0.4929 -0.0734  0.0655
  120OSM    O1312618   3.304   0.271   6.304  0.2727  0.1504 -0.0112
  120OSM    O1412619   3.539   0.352   6.336 -0.9208  0.4248  0.0611
  120OSM    O1112620   3.449   0.164   6.469 -0.0547 -0.8711 -0.0968
  120OSM    O1212621   3.377   0.409   6.502  0.2279 -0.5969  0.0353
  120OSM    C1S12622   3.526   0.165   6.596 -0.2327  0.6206 -0.1141
  120OSM    H1S12623   3.542   0.268   6.633 -1.4490  1.7169 -2.5181
  120OSM    H1T12624   3.626   0.125   6.568 -0.1850  1.0598 -0.5590
  120OSM     NF12625   3.545   0.088   6.823 -0.2755 -0.0999  0.0903
  120OSM    HNF12626   3.583   0.002   6.856 -0.3910 -0.2716 -0.2235
  120OSM    C2S12627   3.457   0.084   6.708  0.7124 -0.2555 -0.0392
  120OSM    H2S12628   3.360   0.130   6.735  2.2981  3.8449 -0.9399
  120OSM    C3S12629   3.422  -0.068   6.658  0.5294  0.0099 -0.3380
  120OSM    H3S12630   3.514  -0.103   6.608  0.1846  0.9156 -1.6682
  120OSM     O312631   3.314  -0.073   6.562  0.2572 -0.5744  0.4417
  120OSM    HO312632   3.296   0.016   6.532 -1.1872 -0.5611  1.3210
  120OSM    C4S12633   3.393  -0.158   6.779  0.2397  0.5842  0.3509
  120OSM    H4S12634   3.459  -0.246   6.778 -0.3166  0.1671  0.4021
  120OSM    C5S12635   3.316  -0.137   6.886  0.3942 -0.7522 -0.0514
  120OSM    H5S12636   3.260  -0.043   6.891 -2.7295 -2.5713  0.4226
  120OSM    C6S12637   3.294  -0.231   6.997  0.2489  0.1034  0.7087
  120OSM    H6S12638   3.266  -0.328   6.952  0.3067  0.2826  0.2812
  120OSM    H6T12639   3.205  -0.203   7.056  0.7236  0.1016  1.4364
  120OSM    C7S12640   3.402  -0.273   7.104 -0.3402 -0.1905 -0.2923
  120OSM    H7S12641   3.469  -0.187   7.127  1.4204 -0.3837 -4.3116
  120OSM    H7T12642   3.466  -0.355   7.064 -0.8960 -0.2222 -1.1391
  120OSM    C8S12643   3.329  -0.316   7.235 -0.1269  0.5168  0.4412
  120OSM    H8S12644   3.260  -0.399   7.207  2.5546 -1.0694 -1.7379
  120OSM    H8T12645   3.268  -0.226   7.255 -0.6438  0.2461  0.1004
  120OSM    C9S12646   3.416  -0.383   7.339 -0.5171 -0.1915 -0.3505
  120OSM    H9S12647   3.434  -0.487   7.303 -0.2877 -0.6576  1.0590
  120OSM    H9T12648   3.364  -0.384   7.437 -0.6311  0.1474 -0.4099
  120OSM   C10S12649   3.547  -0.309   7.363  0.1042  0.1422  0.1293
  120OSM   H10S12650   3.519  -0.211   7.407 -1.7796 -1.2690  2.1709
  120OSM   H10T12651   3.609  -0.276   7.277  0.6804 -2.5328 -0.5165
  120OSM   C11S12652   3.650  -0.382   7.454  0.1363  0.0561 -0.2288
  120OSM   H11S12653   3.752  -0.338   7.447  0.2534 -0.2336 -0.3605
  120OSM   H11T12654   3.650  -0.488   7.420  1.0199 -1.1703  3.4247
  120OSM   C12S12655   3.619  -0.359   7.603  0.2171 -0.3225  0.0348
  120OSM   H12S12656   3.518  -0.401   7.625 -0.2833  0.8909  0.0960
  120OSM   H12T12657   3.620  -0.249   7.617 -2.2762 -0.3044  0.3312
  120OSM   C13S12658   3.715  -0.435   7.692  1.0825 -0.0650 -0.3381
  120OSM   H13S12659   3.822  -0.404   7.683  1.2350  0.0148  1.4819
  120OSM   H13T12660   3.701  -0.542   7.665 -0.4879 -0.4812  2.0032
  120OSM   C14S12661   3.682  -0.402   7.834 -0.8624 -0.0773 -0.0353
  120OSM   H14S12662   3.578  -0.427   7.864 -1.2295  1.6687  0.2003
  120OSM   H14T12663   3.693  -0.291   7.837 -0.5797 -0.1160  0.3098
  120OSM   C15S12664   3.786  -0.476   7.926  0.7778  0.0598 -0.3792
  120OSM   H15S12665   3.880  -0.431   7.886 -0.6209  2.0022 -1.5278
  120OSM   H15T12666   3.777  -0.582   7.892 -1.3205  0.2084 -0.3377
  120OSM   C16S12667   3.765  -0.447   8.080 -0.2677  0.3203 -0.5395
  120OSM   H16S12668   3.730  -0.342   8.082  1.8415  1.0341  0.9798
  120OSM   H16T12669   3.862  -0.448   8.136  0.3145  2.1020 -1.4780
  120OSM   C17S12670   3.675  -0.556   8.146  0.3489 -0.7407 -0.6994
  120OSM   H17S12671   3.702  -0.661   8.122 -1.4518 -1.7011  1.2582
  120OSM   H17T12672   3.577  -0.540   8.097 -1.2593  2.4156  3.2544
  120OSM   C18S12673   3.659  -0.533   8.299 -0.1586  0.4785 -0.1728
  120OSM   H18S12674   3.753  -0.539   8.358 -0.8771  0.0096  0.9325
  120OSM   H18T12675   3.590  -0.612   8.335  1.9943 -1.8117 -0.9337
  120OSM   H18U12676   3.613  -0.433   8.319 -2.0020 -0.3911  0.0100
  120OSM    C1F12677   3.588   0.206   6.875 -0.6497  0.0812 -0.0723
  120OSM     OF12678   3.542   0.318   6.848 -0.0949  0.2695  0.0448
  120OSM    C2F12679   3.702   0.192   6.967 -0.4794  0.0382 -0.3468
  120OSM    H2F12680   3.779   0.130   6.917 -0.8176 -0.3075 -0.4389
  120OSM    H2G12681   3.680   0.125   7.053 -0.7664  1.5879  0.8181
  120OSM    C3F12682   3.768   0.320   7.017  0.1146  0.4995  0.1990
  120OSM    H3F12683   3.687   0.394   7.031  1.4617  1.8324  1.1296
  120OSM    H3G12684   3.834   0.353   6.934  1.0209 -2.4289 -0.2788
  120OSM    C4F12685   3.849   0.298   7.141 -0.5235 -0.1871 -0.5237
  120OSM    H4F12686   3.929   0.220   7.139  1.4818  1.6684  2.3566
  120OSM    H4G12687   3.782   0.260   7.220  0.0440 -0.2652 -0.0754
  120OSM    C5F12688   3.910   0.432   7.178 -0.2040 -0.4583 -0.4781
  120OSM    H5F12689   3.945   0.483   7.086 -0.4058 -0.9168 -0.8114
  120OSM    H5G12690   3.995   0.424   7.249 -0.1120 -0.6701 -0.6114
  120OSM    C6F12691   3.804   0.524   7.251  0.7695 -0.2452  0.0719
  120OSM    H6F12692   3.708   0.472   7.270  0.2488  0.6637 -0.0217
  120OSM    H6G12693   3.781   0.613   7.189 -1.9860 -1.0770 -0.1341
  120OSM    C7F12694   3.863   0.572   7.386 -0.3725 -0.6319 -0.1723
  120OSM    H7F12695   3.795   0.647   7.430  0.0367 -0.8074  0.7835
  120OSM    H7G12696   3.961   0.621   7.365 -1.3277  0.7840 -1.3979
  120OSM    C8F12697   3.881   0.456   7.491 -0.2039  0.2110  0.5038
  120OSM    H8F12698   3.935   0.375   7.438 -0.9312 -0.9474  1.5164
  120OSM    H8G12699   3.783   0.417   7.524 -1.6788  1.2585 -2.4397
  120OSM    C9F12700   3.959   0.493   7.607 -0.2533  0.3553  0.7937
  120OSM    H9F12701   4.061   0.529   7.585 -0.9517  1.0736 -1.3737
  120OSM   C10F12702   3.923   0.491   7.740 -1.2610  0.6094 -0.1754
  120OSM   H10F12703   3.990   0.537   7.814  0.2512  0.7440 -1.6107
  120OSM   C11F12704   3.791   0.454   7.807 -0.5343 -0.6285 -0.3848
  120OSM   H11F12705   3.793   0.355   7.858 -0.8835  0.2715  1.4227
  120OSM   H11G12706   3.714   0.441   7.728 -0.2883 -0.0764 -0.7145
  120OSM   C12F12707   3.740   0.557   7.914  0.2662  0.3460 -0.1709
  120OSM   H12F12708   3.630   0.562   7.931  0.3680  0.3916  0.4505
  120OSM   H12G12709   3.755   0.664   7.888  2.4254  0.3366  0.9948
  120OSM   C13F12710   3.798   0.534   8.058 -0.1100 -0.3011  0.2554
  120OSM   H13F12711   3.891   0.475   8.057  0.2387  0.2464 -0.3814
  120OSM   H13G12712   3.728   0.475   8.121  0.5009  0.2763  1.4913
  120OSM   C14F12713   3.821   0.671   8.135 -0.3150 -0.2174  0.3038
  120OSM   H14F12714   3.716   0.707   8.147 -1.0227 -1.4994 -1.7494
  120OSM   H14G12715   3.877   0.738   8.066  1.3363 -1.4029  0.4538
  120OSM   C15F12716   3.906   0.658   8.262  0.0407  0.6243  0.2592
  120OSM   H15F12717   4.011   0.653   8.226  0.0978  1.5151  0.2878
  120OSM   H15G12718   3.882   0.563   8.314  0.5807 -2.0791 -4.1737
  120OSM   C16F12719   3.884   0.769   8.365  0.4045  0.0952 -0.1459
  120OSM   H16F12720   3.773   0.776   8.368  0.3951  0.7123 -1.4037
  120OSM   H16G12721   3.919   0.868   8.327 -0.9650  1.2180  1.4523
  120OSM   C17F12722   3.948   0.748   8.505  0.2355 -0.2560  0.6412
  120OSM   H17F12723   3.895   0.664   8.554 -4.1156  1.2743 -1.1540
  120OSM   H17G12724   3.925   0.842   8.560 -1.1382  0.8456 -1.7410
  120OSM   C18F12725   4.102   0.722   8.493  0.4506 -0.1257  0.5945
  120OSM   H18F12726   4.150   0.781   8.412 -1.0482 -2.2797 -1.9155
  120OSM   H18G12727   4.126   0.614   8.499 -1.1443 -0.5551 -0.3324
  120OSM   H18H12728   4.144   0.754   8.591  0.5783 -0.7911  0.7574
  121OSM      N12729   4.884   2.244   5.937 -0.5026  0.4847  0.5285
  121OSM    C1512730   4.896   2.339   5.821  0.5016 -0.1612  0.1100
  121OSM   H15A12731   4.805   2.348   5.762  0.0243  0.8205  0.9791
  121OSM   H15B12732   4.970   2.305   5.750 -0.6498  0.2901 -1.3387
  121OSM   H15C12733   4.921   2.438   5.855 -0.5850 -0.5469  2.1170
  121OSM    C1412734   4.766   2.297   6.014 -0.4620 -0.0853 -0.2627
  121OSM   H14A12735   4.686   2.311   5.943 -3.1100  1.1615  2.8417
  121OSM   H14B12736   4.791   2.389   6.064 -1.4245 -0.3531  0.7256
  121OSM   H14C12737   4.726   2.219   6.077 -0.0943 -2.1984 -2.5464
  121OSM    C1312738   4.858   2.107   5.894 -0.3286 -0.0208  0.2821
  121OSM   H13A12739   4.874   2.041   5.978 -1.9387  1.9057  2.1364
  121OSM   H13B12740   4.928   2.078   5.817 -1.3769  0.2980 -0.7938
  121OSM   H13C12741   4.762   2.093   5.847 -0.2616 -0.4793  0.2708
  121OSM    C1212742   5.011   2.258   6.028  0.5468 -0.3772  0.3904
  121OSM   H12A12743   5.034   2.363   6.034  1.3795 -0.4800 -0.7928
  121OSM   H12B12744   5.090   2.201   5.980 -0.4234 -2.0786  0.7742
  121OSM    C1112745   4.988   2.207   6.169  0.4975 -1.2259 -0.1656
  121OSM   H11A12746   4.917   2.274   6.221 -1.6072 -3.4085 -0.1409
  121OSM   H11B12747   5.085   2.225   6.218 -0.9218  0.8725  1.9779
  121OSM      P12748   5.037   1.944   6.202  0.4722 -0.2237  0.1587
  121OSM    O1312749   4.956   1.835   6.152 -0.9264 -0.0212  0.4987
  121OSM    O1412750   5.168   1.975   6.143 -0.2753 -0.2144  0.3617
  121OSM    O1112751   5.039   1.941   6.354  0.5873  1.0031 -0.3785
  121OSM    O1212752   4.945   2.071   6.181 -0.2061  0.2943  0.4172
  121OSM    C1S12753   5.135   2.004   6.440 -0.0505 -0.3843  0.6133
  121OSM    H1S12754   5.129   2.111   6.410 -0.2615 -1.0652 -1.8781
  121OSM    H1T12755   5.238   1.967   6.419  1.3796  3.0330  1.2609
  121OSM     NF12756   5.191   1.958   6.672  0.5629  0.2199  0.3742
  121OSM    HNF12757   5.185   1.863   6.704  0.0102  0.0090 -0.3373
  121OSM    C2S12758   5.095   2.015   6.590  0.3094  0.2405 -0.1160
  121OSM    H2S12759   5.093   2.123   6.616  1.8058 -0.0232  1.2155
  121OSM    C3S12760   4.951   1.966   6.620  0.0152 -0.2866 -0.0820
  121OSM    H3S12761   4.946   1.855   6.626 -1.0814 -0.1496  2.3705
  121OSM     O312762   4.854   2.004   6.519  0.3839  0.0509 -0.1050
  121OSM    HO312763   4.910   2.024   6.443  1.5694  0.1840  0.7895
  121OSM    C4S12764   4.896   2.014   6.756 -0.7534  0.3732 -0.3960
  121OSM    H4S12765   4.906   1.936   6.833 -2.1124 -0.9062 -1.4830
  121OSM    C5S12766   4.849   2.131   6.792 -0.0796 -0.3631 -0.2077
  121OSM    H5S12767   4.842   2.209   6.715 -0.0939  1.1053  1.2273
  121OSM    C6S12768   4.790   2.166   6.928 -0.7386  0.4011 -0.1817
  121OSM    H6S12769   4.735   2.262   6.918 -0.3765  0.8366  1.7557
  121OSM    H6T12770   4.877   2.176   6.995 -0.6460  0.6456 -0.3410
  121OSM    C7S12771   4.692   2.051   6.982  0.1556 -0.1881  0.5594
  121OSM    H7S12772   4.740   1.951   6.984  1.0351  0.1879 -0.7911
  121OSM    H7T12773   4.596   2.045   6.927 -0.5628  0.8597  1.6820
  121OSM    C8S12774   4.634   2.086   7.121  0.0964  1.3710 -0.5127
  121OSM    H8S12775   4.581   1.993   7.149  1.1766  0.4211 -1.5578
  121OSM    H8T12776   4.561   2.168   7.105  0.3772  1.7928  0.3528
  121OSM    C9S12777   4.742   2.093   7.237  0.1347  0.0384 -0.7283
  121OSM    H9S12778   4.820   2.166   7.206  0.5193  0.2658  0.7484
  121OSM    H9T12779   4.788   1.992   7.235 -4.0707 -1.9383 -2.4444
  121OSM   C10S12780   4.679   2.119   7.378 -0.3181 -0.7077  0.7213
  121OSM   H10S12781   4.621   2.031   7.413 -0.7706 -1.0009 -0.7571
  121OSM   H10T12782   4.614   2.209   7.372  1.0794  0.1598 -2.3600
  121OSM   C11S12783   4.790   2.157   7.472 -0.0825 -0.0146 -0.0487
  121OSM   H11S12784   4.805   2.263   7.443  0.3047  0.0767  0.4688
  121OSM   H11T12785   4.886   2.106   7.449 -0.1121 -0.7994  1.4980
  121OSM   C12S12786   4.760   2.146   7.612 -1.1210 -0.2113  1.2667
  121OSM   H12S12787   4.655   2.173   7.637 -1.3640 -0.1342  0.1592
  121OSM   H12T12788   4.817   2.211   7.682 -0.8269  1.0526 -0.1150
  121OSM   C13S12789   4.785   1.998   7.663 -0.1675 -0.7557  0.4940
  121OSM   H13S12790   4.892   1.975   7.644  0.5125  3.4331 -1.4323
  121OSM   H13T12791   4.728   1.931   7.596  1.1953 -1.2948 -0.1552
  121OSM   C14S12792   4.748   1.981   7.812 -0.5123 -0.0995 -0.1442
  121OSM   H14S12793   4.651   2.032   7.829  1.2424  2.8405  1.3118
  121OSM   H14T12794   4.830   2.036   7.863  0.5715 -1.2705 -0.6002
  121OSM   C15S12795   4.745   1.835   7.850 -0.2140 -0.2541 -0.1832
  121OSM   H15S12796   4.838   1.787   7.813  0.7767 -1.1228  3.2620
  121OSM   H15T12797   4.661   1.778   7.805  0.7494 -1.0994 -0.9466
  121OSM   C16S12798   4.746   1.816   8.003 -0.2986 -0.3707 -0.3644
  121OSM   H16S12799   4.663   1.877   8.045  0.3723 -0.5958  1.3454
  121OSM   H16T12800   4.839   1.865   8.041 -0.2534  1.6903 -2.9906
  121OSM   C17S12801   4.746   1.677   8.047 -0.7451 -0.1359  0.2817
  121OSM   H17S12802   4.839   1.621   8.025 -0.1151  1.2974 -0.7748
  121OSM   H17T12803   4.661   1.631   7.993 -1.0646 -0.4780  1.0706
  121OSM   C18S12804   4.720   1.662   8.195 -0.1814 -0.4831  0.2586
  121OSM   H18S12805   4.624   1.715   8.213  0.5990  0.6259  1.2125
  121OSM   H18T12806   4.802   1.704   8.257 -0.0161  0.9248 -0.8823
  121OSM   H18U12807   4.698   1.557   8.225 -0.1668 -0.3654  0.6844
  121OSM    C1F12808   5.310   2.004   6.671  0.3790  0.1689  0.0215
  121OSM     OF12809   5.337   2.114   6.632  0.0516  0.1208  0.2832
  121OSM    C2F12810   5.419   1.902   6.705  0.5331 -0.2537 -0.1880
  121OSM    H2F12811   5.498   1.920   6.630 -0.8246  3.7830 -0.7692
  121OSM    H2G12812   5.385   1.796   6.695 -0.3436 -0.0473  0.5037
  121OSM    C3F12813   5.473   1.930   6.846 -0.4381 -0.3326 -0.8200
  121OSM    H3F12814   5.510   2.035   6.848  2.3662 -1.1352 -4.1039
  121OSM    H3G12815   5.561   1.866   6.869  1.2957  1.8384 -1.1297
  121OSM    C4F12816   5.390   1.923   6.982 -0.1466  0.5529 -0.1025
  121OSM    H4F12817   5.353   1.820   7.000  1.1216  0.2929  1.0982
  121OSM    H4G12818   5.300   1.984   6.958  0.2332  1.4514  0.7298
  121OSM    C5F12819   5.480   1.971   7.105  0.3997  0.5646  0.4428
  121OSM    H5F12820   5.529   2.065   7.073  1.6476 -0.3648 -0.4513
  121OSM    H5G12821   5.565   1.902   7.125 -1.5748 -1.4507  2.1269
  121OSM    C6F12822   5.390   1.986   7.227  0.1646  0.1902 -0.6348
  121OSM    H6F12823   5.314   1.906   7.237  1.2738 -0.8340 -0.2909
  121OSM    H6G12824   5.333   2.081   7.216 -0.4548 -0.2424 -1.1832
  121OSM    C7F12825   5.457   1.986   7.367  0.5922  0.0079 -0.8386
  121OSM    H7F12826   5.530   2.069   7.378 -1.3096  1.9646 -2.4551
  121OSM    H7G12827   5.513   1.896   7.399  0.5953 -0.2800 -1.6537
  121OSM    C8F12828   5.348   2.013   7.472 -0.1588  0.0253  0.4555
  121OSM    H8F12829   5.268   1.936   7.460  0.0001 -0.1059  0.2311
  121OSM    H8G12830   5.318   2.118   7.446  2.1805  0.5212 -0.3391
  121OSM    C9F12831   5.396   2.024   7.616  0.8809 -0.2698 -0.3688
  121OSM    H9F12832   5.459   2.112   7.638  0.9900  0.0150 -1.7747
  121OSM   C10F12833   5.365   1.933   7.706 -0.0934  0.5853  0.9414
  121OSM   H10F12834   5.402   1.954   7.808  0.4961  2.2520  0.3945
  121OSM   C11F12835   5.290   1.799   7.691  0.3439  0.4492 -0.8340
  121OSM   H11F12836   5.313   1.733   7.777  0.6695  0.8118 -0.6388
  121OSM   H11G12837   5.325   1.761   7.592 -1.2619 -0.2555 -1.1395
  121OSM   C12F12838   5.136   1.805   7.684 -0.2226 -0.8029  0.0598
  121OSM   H12F12839   5.097   1.888   7.620  0.1036  0.5327  1.5551
  121OSM   H12G12840   5.104   1.825   7.789 -0.3765  0.3458 -0.1957
  121OSM   C13F12841   5.077   1.672   7.636 -0.4124  0.4838 -0.1168
  121OSM   H13F12842   4.967   1.663   7.649 -0.5277  2.5423  0.5339
  121OSM   H13G12843   5.130   1.587   7.684 -0.5887  0.2368 -0.3600
  121OSM   C14F12844   5.099   1.667   7.485 -0.0065  0.0911  0.6979
  121OSM   H14F12845   5.164   1.582   7.454 -0.3004 -0.3166  1.1982
  121OSM   H14G12846   5.134   1.762   7.439  1.1358 -0.6867 -0.0459
  121OSM   C15F12847   4.978   1.640   7.392 -0.6492 -0.2939 -0.0102
  121OSM   H15F12848   4.897   1.708   7.425 -0.4993  1.2514 -2.6555
  121OSM   H15G12849   4.936   1.539   7.409  0.3142 -0.6921  0.0278
  121OSM   C16F12850   5.009   1.661   7.238  0.1021  0.4300 -0.3019
  121OSM   H16F12851   4.927   1.612   7.182  0.0431 -0.7426  0.7898
  121OSM   H16G12852   5.101   1.605   7.213 -0.8289 -0.5229 -1.6960
  121OSM   C17F12853   5.012   1.809   7.201 -0.7388 -0.4407  0.4392
  121OSM   H17F12854   5.092   1.861   7.258 -0.4391  0.3932 -0.7309
  121OSM   H17G12855   4.912   1.851   7.226 -0.6385 -0.4943  0.9254
  121OSM   C18F12856   5.041   1.835   7.047 -0.0390  0.1512 -0.1581
  121OSM   H18F12857   5.133   1.777   7.023 -0.1749  0.4715 -1.4647
  121OSM   H18G12858   5.051   1.940   7.011  1.2083  0.4589  1.0275
  121OSM   H18H12859   4.959   1.808   6.977  0.1221  0.9885 -0.6721
  122OSM      N12860   4.670   4.669   5.974 -0.7350  0.7652  0.4829
  122OSM    C1512861   4.752   4.545   5.996  1.0493  0.1691 -0.3861
  122OSM   H15A12862   4.820   4.512   5.919  0.9227  0.3999 -0.5998
  122OSM   H15B12863   4.694   4.463   6.036 -1.9618  2.7299  0.7629
  122OSM   H15C12864   4.821   4.571   6.074 -0.9077 -1.2850  1.9030
  122OSM    C1412865   4.782   4.771   5.939  0.8439  0.4614 -0.4164
  122OSM   H14A12866   4.849   4.789   6.021  0.8127 -1.2423  0.0074
  122OSM   H14B12867   4.736   4.862   5.905 -0.3043 -0.8103 -2.3511
  122OSM   H14C12868   4.843   4.723   5.863 -0.6663 -3.1590  0.5651
  122OSM    C1312869   4.579   4.642   5.858 -0.7096  0.7022 -0.0795
  122OSM   H13A12870   4.511   4.723   5.839 -0.6569  0.6244 -0.6231
  122OSM   H13B12871   4.527   4.554   5.893  0.0225  1.3649  2.7415
  122OSM   H13C12872   4.642   4.608   5.776 -0.5202  1.6360 -0.3286
  122OSM    C1212873   4.596   4.699   6.102 -0.2212  0.2833  0.0227
  122OSM   H12A12874   4.523   4.777   6.087  0.1377  1.0936  2.2142
  122OSM   H12B12875   4.664   4.728   6.181 -1.1620 -2.6745  2.0412
  122OSM    C1112876   4.508   4.582   6.156 -0.1796 -0.2697  0.3310
  122OSM   H11A12877   4.427   4.632   6.214 -1.7906 -0.5175 -1.6545
  122OSM   H11B12878   4.563   4.513   6.223  0.8706 -0.0961 -0.3561
  122OSM      P12879   4.433   4.360   6.060 -0.1448  0.3859  0.3758
  122OSM    O1312880   4.324   4.309   5.975 -0.5246  0.3155 -0.3393
  122OSM    O1412881   4.570   4.312   6.017 -0.3795 -0.0544 -0.1764
  122OSM    O1112882   4.406   4.318   6.209 -0.0590 -0.3852 -0.4362
  122OSM    O1212883   4.428   4.515   6.055 -0.2974 -0.2342  0.3319
  122OSM    C1S12884   4.503   4.245   6.283  0.2568  0.2027 -0.3361
  122OSM    H1S12885   4.592   4.311   6.293  0.6124 -0.3911  0.4025
  122OSM    H1T12886   4.532   4.151   6.231  1.2786 -1.9298  3.8721
  122OSM     NF12887   4.563   4.163   6.509 -0.0303  0.3955 -0.4309
  122OSM    HNF12888   4.560   4.065   6.527 -0.4465  0.3171 -0.9265
  122OSM    C2S12889   4.460   4.217   6.426 -0.3044  0.0965  0.3065
  122OSM    H2S12890   4.448   4.318   6.473 -0.2458  0.3528 -0.2297
  122OSM    C3S12891   4.325   4.136   6.441  0.1986  0.1587  0.3414
  122OSM    H3S12892   4.352   4.031   6.416  0.4532  0.2924  0.0557
  122OSM     O312893   4.219   4.176   6.357 -0.6965 -0.2160  0.3741
  122OSM    HO312894   4.258   4.246   6.306 -1.5630  0.2021  0.2803
  122OSM    C4S12895   4.278   4.146   6.581 -0.4387 -0.1251 -0.6594
  122OSM    H4S12896   4.316   4.065   6.646 -0.9895  0.6454  0.6416
  122OSM    C5S12897   4.196   4.234   6.644  0.1302 -0.1794 -0.6542
  122OSM    H5S12898   4.131   4.291   6.576 -0.3852  0.4888  0.3776
  122OSM    C6S12899   4.158   4.240   6.789  0.3639  0.1391 -0.6306
  122OSM    H6S12900   4.048   4.231   6.794  0.1196  3.0103  0.4423
  122OSM    H6T12901   4.175   4.344   6.825 -0.5868  0.6442 -1.6323
  122OSM    C7S12902   4.230   4.140   6.881 -1.1556 -0.9333 -0.0551
  122OSM    H7S12903   4.340   4.137   6.870 -1.1523  0.0451 -0.3869
  122OSM    H7T12904   4.200   4.038   6.850 -0.3259 -0.8334 -1.1939
  122OSM    C8S12905   4.195   4.177   7.032 -0.4355 -0.1406  0.1440
  122OSM    H8S12906   4.085   4.167   7.040 -0.3152  0.0778  2.5330
  122OSM    H8T12907   4.221   4.281   7.062 -0.0915  0.3808 -1.8947
  122OSM    C9S12908   4.252   4.076   7.139 -0.0905 -0.2441  0.2575
  122OSM    H9S12909   4.363   4.071   7.135  0.0321  0.8956  1.7744
  122OSM    H9T12910   4.207   3.977   7.116  1.6062 -0.5745 -1.8057
  122OSM   C10S12911   4.222   4.124   7.285  0.2193 -0.4745 -0.2202
  122OSM   H10S12912   4.116   4.153   7.300  1.0159  1.2118  2.6938
  122OSM   H10T12913   4.271   4.223   7.296 -1.0496 -0.2262  4.5238
  122OSM   C11S12914   4.285   4.045   7.404 -0.2753  0.7261  0.6358
  122OSM   H11S12915   4.394   4.029   7.387 -0.6037 -0.6409 -0.2821
  122OSM   H11T12916   4.228   3.951   7.387  1.2098  0.2645 -2.0310
  122OSM   C12S12917   4.251   4.107   7.535  0.2156 -0.1861  0.2581
  122OSM   H12S12918   4.141   4.100   7.546  0.4728 -1.1913  2.5556
  122OSM   H12T12919   4.278   4.214   7.535  0.6451 -0.2603 -2.1544
  122OSM   C13S12920   4.327   4.053   7.658 -0.0999 -0.3166 -0.0175
  122OSM   H13S12921   4.435   4.059   7.634  0.2975  0.8116  1.9385
  122OSM   H13T12922   4.302   3.949   7.686  0.2281 -0.1981  0.7129
  122OSM   C14S12923   4.293   4.137   7.784  0.5287 -0.2865  0.1141
  122OSM   H14S12924   4.182   4.137   7.792  0.3182  2.8471 -1.6536
  122OSM   H14T12925   4.326   4.242   7.768 -0.0010  0.2084  2.1471
  122OSM   C15S12926   4.347   4.081   7.909  0.1242  0.1433  0.0651
  122OSM   H15S12927   4.453   4.073   7.876 -0.1802  0.4470 -0.9941
  122OSM   H15T12928   4.304   3.982   7.934 -0.5964  0.3233 -0.4431
  122OSM   C16S12929   4.334   4.174   8.028 -0.5796  0.0389  0.5260
  122OSM   H16S12930   4.387   4.267   7.997 -1.0097  0.2245  0.3507
  122OSM   H16T12931   4.389   4.133   8.115 -0.0017 -0.3057  0.0075
  122OSM   C17S12932   4.193   4.205   8.074  0.1332  0.1327  0.4785
  122OSM   H17S12933   4.136   4.249   7.989 -1.7138 -1.3489  0.9235
  122OSM   H17T12934   4.215   4.286   8.146 -0.6095  0.0362  0.8121
  122OSM   C18S12935   4.130   4.081   8.130 -0.7689  0.0597 -0.4516
  122OSM   H18S12936   4.029   4.111   8.166 -0.7333  1.4493 -1.4673
  122OSM   H18T12937   4.188   4.041   8.216  0.5121 -1.0008 -1.7727
  122OSM   H18U12938   4.115   3.995   8.061 -0.4561 -0.9774  0.7476
  122OSM    C1F12939   4.670   4.234   6.553  0.5475 -0.4175 -0.7749
  122OSM     OF12940   4.691   4.353   6.528  0.3254 -0.1840 -0.0397
  122OSM    C2F12941   4.763   4.165   6.636 -0.1375  0.2796  0.4490
  122OSM    H2F12942   4.855   4.136   6.580 -2.0030 -0.5319 -2.2899
  122OSM    H2G12943   4.721   4.070   6.675 -0.0242  0.2788  0.5689
  122OSM    C3F12944   4.802   4.260   6.754 -0.4610  1.1131  0.0590
  122OSM    H3F12945   4.816   4.367   6.727 -1.7388  1.4336  0.6470
  122OSM    H3G12946   4.897   4.219   6.795 -1.0447 -0.6046 -0.2502
  122OSM    C4F12947   4.695   4.250   6.870 -0.7996 -0.0310 -0.0725
  122OSM    H4F12948   4.670   4.144   6.888 -1.0965  0.0072 -0.2630
  122OSM    H4G12949   4.611   4.312   6.831  1.3640  2.5770 -0.8339
  122OSM    C5F12950   4.739   4.317   7.000 -0.6935  0.4114  0.4488
  122OSM    H5F12951   4.735   4.428   6.992 -2.8512  0.3383  0.1957
  122OSM    H5G12952   4.842   4.282   7.022  0.8059  4.5209  0.4502
  122OSM    C6F12953   4.643   4.284   7.115 -0.2140  0.2287  0.2278
  122OSM    H6F12954   4.641   4.174   7.128 -0.2110  0.5166  3.1585
  122OSM    H6G12955   4.544   4.325   7.087  0.7992  1.4108 -1.7151
  122OSM    C7F12956   4.686   4.354   7.252 -0.3250  0.6336  1.0048
  122OSM    H7F12957   4.680   4.464   7.236  0.3018  0.8034  1.8712
  122OSM    H7G12958   4.791   4.324   7.273 -0.3968 -0.4418 -0.1141
  122OSM    C8F12959   4.589   4.321   7.367  0.6047 -0.0231  0.1208
  122OSM    H8F12960   4.488   4.320   7.321  0.2575 -1.9958  0.8731
  122OSM    H8G12961   4.597   4.406   7.438  2.4750  1.8070 -2.1757
  122OSM    C9F12962   4.626   4.190   7.428  0.5598 -0.5134 -0.6956
  122OSM    H9F12963   4.609   4.095   7.374 -0.5884 -0.9911  0.4784
  122OSM   C10F12964   4.692   4.171   7.542  0.0929 -0.0472 -0.3864
  122OSM   H10F12965   4.715   4.070   7.577  0.2540 -0.5890 -2.0129
  122OSM   C11F12966   4.746   4.287   7.632  0.2378 -0.2700  0.0391
  122OSM   H11F12967   4.737   4.393   7.601  0.7601  0.2548  1.5995
  122OSM   H11G12968   4.856   4.283   7.649  0.2884 -1.6670 -0.5892
  122OSM   C12F12969   4.672   4.278   7.765  0.0812 -0.4776 -1.3411
  122OSM   H12F12970   4.689   4.176   7.807 -1.1092  0.1962  0.8711
  122OSM   H12G12971   4.563   4.290   7.779  0.3408 -1.6494  2.1672
  122OSM   C13F12972   4.735   4.381   7.858 -0.2508  0.3560 -0.8882
  122OSM   H13F12973   4.710   4.485   7.829 -0.5162  1.0846  1.7426
  122OSM   H13G12974   4.845   4.362   7.856 -0.7128 -2.6271 -0.4953
  122OSM   C14F12975   4.698   4.365   8.003 -0.0272  0.1957 -0.3598
  122OSM   H14F12976   4.700   4.257   8.030 -2.6576 -0.1298 -1.3319
  122OSM   H14G12977   4.590   4.387   8.010 -0.2898 -0.6434 -1.5907
  122OSM   C15F12978   4.772   4.459   8.095 -0.0906 -0.1452 -0.4217
  122OSM   H15F12979   4.758   4.563   8.058 -2.1386 -0.4794 -0.6510
  122OSM   H15G12980   4.878   4.434   8.072  0.1372  1.5064 -1.2504
  122OSM   C16F12981   4.725   4.448   8.243 -0.4391  0.5604  0.1125
  122OSM   H16F12982   4.703   4.341   8.263 -0.7870  0.6312  0.1242
  122OSM   H16G12983   4.626   4.498   8.243  0.0159  1.5103 -1.3398
  122OSM   C17F12984   4.816   4.498   8.350  0.4352  0.0877  0.3616
  122OSM   H17F12985   4.838   4.605   8.330  0.6649  0.1918  1.1634
  122OSM   H17G12986   4.910   4.441   8.340  0.4342  0.3768 -1.4147
  122OSM   C18F12987   4.765   4.491   8.505 -0.4341 -0.4021  0.8179
  122OSM   H18F12988   4.849   4.468   8.574  1.5120  1.4798 -0.8493
  122OSM   H18G12989   4.693   4.407   8.513 -0.4730 -0.6567 -1.8168
  122OSM   H18H12990   4.713   4.584   8.537  0.9011  0.5670  0.2461
  123OSM      N12991   2.720   6.790   6.344  0.0243  0.0577  0.1313
  123OSM    C1512992   2.799   6.847   6.234 -0.0950  0.1941  1.3554
  123OSM   H15A12993   2.780   6.796   6.140 -0.1948  1.9416  0.4040
  123OSM   H15B12994   2.904   6.838   6.255  0.0872  0.6331  0.6730
  123OSM   H15C12995   2.770   6.950   6.219  0.0364  0.1773  0.9586
  123OSM    C1412996   2.740   6.866   6.474 -0.0832 -0.1354 -0.1096
  123OSM   H14A12997   2.711   6.970   6.475 -0.9664 -0.3921  0.5710
  123OSM   H14B12998   2.842   6.852   6.505 -0.0959 -0.2549 -0.1233
  123OSM   H14C12999   2.680   6.824   6.553  1.1713  0.9493  1.4739
  123OSM    C1313000   2.571   6.814   6.311  0.3851  0.0885  0.4276
  123OSM   H13A13001   2.537   6.788   6.212 -0.2579 -1.8270  1.1255
  123OSM   H13B13002   2.551   6.917   6.335  0.2100  0.4943 -1.3886
  123OSM   H13C13003   2.518   6.761   6.389  1.9497 -0.9105  0.8362
  123OSM    C1213004   2.756   6.643   6.371  0.0147  0.8503 -0.0119
  123OSM   H12A13005   2.858   6.653   6.404  0.1661 -5.2227  1.7631
  123OSM   H12B13006   2.761   6.596   6.274  2.3200  0.5752  0.2214
  123OSM    C1113007   2.670   6.562   6.475  0.1086  0.7565 -1.0136
  123OSM   H11A13008   2.670   6.614   6.573 -1.9418 -0.3262 -0.4156
  123OSM   H11B13009   2.711   6.459   6.473  1.8382  1.4295 -3.1262
  123OSM      P13010   2.397   6.549   6.509  0.3040 -0.0994  0.3634
  123OSM    O1313011   2.381   6.682   6.576  0.3863 -0.1994 -0.6341
  123OSM    O1413012   2.304   6.510   6.406  0.0561  0.6533 -0.2630
  123OSM    O1113013   2.423   6.424   6.607  0.9100  0.2396  0.2842
  123OSM    O1213014   2.534   6.552   6.433  0.7794  0.5146  0.3317
  123OSM    C1S13015   2.457   6.440   6.746 -0.0384 -0.2099  0.4855
  123OSM    H1S13016   2.513   6.535   6.761 -1.8844  0.7645  1.2909
  123OSM    H1T13017   2.537   6.367   6.772  1.8091  1.0909 -1.3406
  123OSM     NF13018   2.366   6.467   6.973 -0.4938  0.0630 -0.4851
  123OSM    HNF13019   2.388   6.391   7.034  0.4025  0.1859 -0.6545
  123OSM    C2S13020   2.335   6.425   6.841  0.4854  0.6780  0.0414
  123OSM    H2S13021   2.253   6.492   6.808  0.0525  0.6500  1.0422
  123OSM    C3S13022   2.295   6.269   6.827  0.8136  0.7460  0.1070
  123OSM    H3S13023   2.380   6.214   6.874 -0.8634  0.4497  2.9407
  123OSM     O313024   2.274   6.227   6.696 -0.3242 -0.0134  0.3305
  123OSM    HO313025   2.293   6.307   6.646 -0.9279 -0.5358 -0.7711
  123OSM    C4S13026   2.176   6.241   6.915  0.1087 -0.0581  0.3418
  123OSM    H4S13027   2.101   6.317   6.891  0.6691  0.1915 -0.6385
  123OSM    C5S13028   2.166   6.141   7.000 -0.1276  0.0132  0.3412
  123OSM    H5S13029   2.251   6.073   7.015  0.1296  0.6021  1.6626
  123OSM    C6S13030   2.057   6.130   7.104  0.2433  0.2745  0.3665
  123OSM    H6S13031   2.109   6.122   7.202  2.9796 -1.3681 -1.1680
  123OSM    H6T13032   2.008   6.031   7.091 -0.8420  1.0064 -1.1890
  123OSM    C7S13033   1.963   6.244   7.127 -0.2981  0.0802  0.5692
  123OSM    H7S13034   1.907   6.271   7.035  0.2803  0.0198  0.2008
  123OSM    H7T13035   2.027   6.327   7.163  1.0134 -1.1134  1.0185
  123OSM    C8S13036   1.860   6.224   7.238 -0.0767  0.4218 -0.5365
  123OSM    H8S13037   1.909   6.208   7.337 -0.7229 -0.6291 -0.3715
  123OSM    H8T13038   1.794   6.138   7.212  0.7412 -0.3020 -0.2657
  123OSM    C9S13039   1.766   6.345   7.250 -0.3847 -0.2137 -0.3341
  123OSM    H9S13040   1.701   6.324   7.337  1.8293 -0.4509  1.3171
  123OSM    H9T13041   1.706   6.349   7.157  0.4509  0.9499 -0.8332
  123OSM   C10S13042   1.842   6.476   7.271 -0.1200 -0.1948 -0.6857
  123OSM   H10S13043   1.774   6.562   7.280 -2.5834 -2.1593 -0.0008
  123OSM   H10T13044   1.901   6.499   7.180 -1.4088  0.7897 -1.2825
  123OSM   C11S13045   1.924   6.480   7.404 -0.5991 -0.0640 -0.0144
  123OSM   H11S13046   1.991   6.392   7.413  0.7706  1.1096  1.3907
  123OSM   H11T13047   1.854   6.491   7.489 -1.7239 -1.5983 -0.7096
  123OSM   C12S13048   2.014   6.609   7.405 -0.3313 -0.0100  0.2971
  123OSM   H12S13049   2.064   6.622   7.306 -1.9931 -1.7784 -0.8104
  123OSM   H12T13050   2.084   6.582   7.487 -0.6965 -1.3526  0.1849
  123OSM   C13S13051   1.929   6.733   7.446 -0.4724  0.0834  0.5584
  123OSM   H13S13052   1.918   6.736   7.557  2.2976 -1.8244  0.9206
  123OSM   H13T13053   1.824   6.716   7.414 -0.1007 -1.0859 -0.0516
  123OSM   C14S13054   1.982   6.871   7.400 -0.1345 -0.0136 -0.5274
  123OSM   H14S13055   2.058   6.903   7.474 -0.6879  0.2440 -0.0651
  123OSM   H14T13056   1.896   6.937   7.423  0.2919 -0.4805  2.5110
  123OSM   C15S13057   2.016   6.894   7.243  0.1510 -0.2400  0.6569
  123OSM   H15S13058   1.924   6.877   7.182  0.0023  2.4077  0.0546
  123OSM   H15T13059   2.093   6.823   7.205 -1.0510 -0.4781 -1.4710
  123OSM   C16S13060   2.059   7.033   7.211 -0.7517  0.1228  0.0050
  123OSM   H16S13061   2.108   7.030   7.111 -0.4230 -2.6168  0.2045
  123OSM   H16T13062   2.146   7.056   7.277 -0.3480  1.8375 -1.1221
  123OSM   C17S13063   1.941   7.132   7.201  0.2720  0.4288 -0.3706
  123OSM   H17S13064   1.891   7.139   7.300  0.5364 -0.3140 -0.1848
  123OSM   H17T13065   1.869   7.108   7.120  1.9900 -1.1009 -1.4912
  123OSM   C18S13066   1.990   7.280   7.167 -0.0221  0.0403 -0.6347
  123OSM   H18S13067   2.053   7.324   7.246 -0.5396 -0.9596  0.3476
  123OSM   H18T13068   1.899   7.339   7.144 -1.0353 -0.7357  1.3195
  123OSM   H18U13069   2.059   7.275   7.080  0.8028  0.1949  0.0094
  123OSM    C1F13070   2.383   6.592   7.013  0.3546  0.9798  0.0742
  123OSM     OF13071   2.331   6.675   6.944 -0.0186 -0.7729  0.6461
  123OSM    C2F13072   2.453   6.621   7.137 -0.2570  0.2417  0.3088
  123OSM    H2F13073   2.562   6.613   7.119 -0.0295  1.3490  1.1769
  123OSM    H2G13074   2.422   6.544   7.211 -2.2722 -1.0850 -1.8207
  123OSM    C3F13075   2.433   6.770   7.194  0.2156 -0.8168 -0.1099
  123OSM    H3F13076   2.325   6.798   7.196  0.4784  0.1583  1.4384
  123OSM    H3G13077   2.478   6.845   7.125  0.9078  0.3441  1.5669
  123OSM    C4F13078   2.482   6.791   7.340 -0.2732 -0.4731 -0.5716
  123OSM    H4F13079   2.486   6.899   7.364 -1.9112 -0.6108  0.4227
  123OSM    H4G13080   2.586   6.759   7.362  0.3152  3.5491  3.2408
  123OSM    C5F13081   2.389   6.719   7.440 -0.1958  1.2302 -0.4840
  123OSM    H5F13082   2.390   6.609   7.426 -3.1224  1.2003 -0.7043
  123OSM    H5G13083   2.281   6.743   7.431 -0.8825 -1.4905 -0.0272
  123OSM    C6F13084   2.428   6.759   7.591 -0.2416 -0.3271  0.4835
  123OSM    H6F13085   2.385   6.860   7.601 -3.2909 -1.3494 -1.6798
  123OSM    H6G13086   2.539   6.765   7.595 -0.2058 -0.2569 -0.4411
  123OSM    C7F13087   2.378   6.663   7.693  0.0348 -0.1253 -0.7386
  123OSM    H7F13088   2.432   6.567   7.687 -0.5843 -0.4700 -0.8907
  123OSM    H7G13089   2.273   6.632   7.673 -1.1327  1.2234  2.9023
  123OSM    C8F13090   2.394   6.700   7.840 -0.3090 -0.3537 -0.0965
  123OSM    H8F13091   2.372   6.624   7.919 -1.0936  0.5674  0.5754
  123OSM    H8G13092   2.335   6.791   7.862 -0.4842 -0.0241 -1.8491
  123OSM    C9F13093   2.546   6.723   7.857 -0.4211  0.1606  0.3592
  123OSM    H9F13094   2.608   6.634   7.873  3.5902  2.7389 -0.1611
  123OSM   C10F13095   2.610   6.842   7.873 -0.0359  0.5768  0.4846
  123OSM   H10F13096   2.720   6.844   7.878  0.0162 -1.4877  0.6040
  123OSM   C11F13097   2.540   6.977   7.886  0.5938  0.6180  0.2870
  123OSM   H11F13098   2.437   6.978   7.843  0.9364 -0.5681 -0.5972
  123OSM   H11G13099   2.584   7.060   7.827  3.0794 -0.1707  0.9943
  123OSM   C12F13100   2.545   7.031   8.027  0.7543 -0.2585 -0.5805
  123OSM   H12F13101   2.653   7.025   8.055  0.4184  1.8495  1.2191
  123OSM   H12G13102   2.482   6.974   8.099  2.4468 -0.7358  0.5522
  123OSM   C13F13103   2.504   7.172   8.037 -0.7957 -0.3748 -0.0697
  123OSM   H13F13104   2.409   7.189   7.983 -1.3502 -2.3137  0.2546
  123OSM   H13G13105   2.574   7.234   7.977  1.2325 -3.4671 -0.9846
  123OSM   C14F13106   2.489   7.236   8.175 -0.0462  0.2865  0.6437
  123OSM   H14F13107   2.405   7.188   8.230 -0.8370  1.0422  0.1073
  123OSM   H14G13108   2.452   7.340   8.165 -1.3092 -0.0584  1.5497
  123OSM   C15F13109   2.612   7.240   8.263 -0.1087 -0.3235 -0.9873
  123OSM   H15F13110   2.684   7.304   8.208  0.2732 -1.5731 -1.9561
  123OSM   H15G13111   2.654   7.137   8.269 -1.2182 -0.7965 -1.2172
  123OSM   C16F13112   2.585   7.303   8.405 -0.0862 -0.4598 -0.0599
  123OSM   H16F13113   2.492   7.252   8.438  0.2527 -0.4733  0.9050
  123OSM   H16G13114   2.562   7.410   8.391  0.8703 -0.3785 -1.1311
  123OSM   C17F13115   2.704   7.272   8.505 -0.2463  0.1307 -0.5718
  123OSM   H17F13116   2.700   7.165   8.534  0.0639  0.8745  2.3091
  123OSM   H17G13117   2.686   7.334   8.596 -0.5891 -1.7730  0.6809
  123OSM   C18F13118   2.847   7.307   8.450  0.7506  0.7628 -0.3043
  123OSM   H18F13119   2.900   7.365   8.529  0.4096 -1.0360  1.2731
  123OSM   H18G13120   2.838   7.383   8.369 -0.6168 -1.7884 -2.6024
  123OSM   H18H13121   2.905   7.218   8.416 -0.3079 -0.2398  0.5163
  124OSM      N13122   2.850   2.789   6.080 -0.6966 -0.0444  0.5522
  124OSM    C1513123   2.839   2.937   6.075 -1.4676  0.2619  0.2258
  124OSM   H15A13124   2.837   2.978   5.975  0.3189  0.0811  0.0969
  124OSM   H15B13125   2.927   2.977   6.124 -1.3409 -0.1428  0.3259
  124OSM   H15C13126   2.757   2.984   6.128 -2.7085 -0.6862 -0.8324
  124OSM    C1413127   2.864   2.762   6.230 -0.1149  0.3279 -0.1228
  124OSM   H14A13128   2.868   2.654   6.237 -0.3148  0.1628 -2.2429
  124OSM   H14B13129   2.775   2.792   6.283  1.7213  2.7064  1.7226
  124OSM   H14C13130   2.953   2.808   6.270 -0.5814  0.5717  0.6501
  124OSM    C1313131   2.723   2.721   6.031  0.2278 -0.3507  0.4459
  124OSM   H13A13132   2.708   2.740   5.925  1.9004 -0.4642  0.1731
  124OSM   H13B13133   2.638   2.757   6.086  0.3526 -0.8114  0.9456
  124OSM   H13C13134   2.737   2.614   6.041  0.1096 -0.4219 -0.1150
  124OSM    C1213135   2.966   2.749   5.999  0.6366 -0.1332 -0.1106
  124OSM   H12A13136   3.050   2.814   6.015  0.3607  0.0425  0.6419
  124OSM   H12B13137   2.942   2.757   5.894  0.4613  0.0839 -0.0535
  124OSM    C1113138   3.023   2.606   6.021 -0.0443  0.3809 -0.3492
  124OSM   H11A13139   2.939   2.540   5.994 -2.1088  2.5646  0.5482
  124OSM   H11B13140   3.038   2.572   6.126  0.0809 -3.0087 -1.4093
  124OSM      P13141   3.281   2.636   5.998 -0.2709 -0.2248  0.4029
  124OSM    O1313142   3.384   2.539   5.971 -0.3064  0.4818  0.5405
  124OSM    O1413143   3.292   2.778   5.951 -0.3792  0.2477 -0.2756
  124OSM    O1113144   3.280   2.636   6.153  0.0538  0.2589 -0.6546
  124OSM    O1213145   3.140   2.588   5.947  0.0802 -0.1693  0.0800
  124OSM    C1S13146   3.274   2.751   6.237 -0.6244  0.2625 -0.1375
  124OSM    H1S13147   3.169   2.783   6.254  0.5069  3.1428  1.8003
  124OSM    H1T13148   3.328   2.835   6.189  0.7952 -0.8159 -0.4401
  124OSM     NF13149   3.365   2.862   6.433 -0.4380 -0.2798  0.5940
  124OSM    HNF13150   3.451   2.911   6.420  1.1532 -3.3068 -0.8419
  124OSM    C2S13151   3.350   2.729   6.372 -0.2034 -0.1913 -0.1744
  124OSM    H2S13152   3.285   2.662   6.433  1.4978 -1.8524 -0.1485
  124OSM    C3S13153   3.484   2.646   6.354 -0.8517  0.6391  0.3520
  124OSM    H3S13154   3.565   2.697   6.297  0.8660 -0.9444  1.3130
  124OSM     O313155   3.478   2.517   6.296  0.1844 -0.1627  0.7080
  124OSM    HO313156   3.412   2.528   6.228 -0.3521  0.1944  1.2777
  124OSM    C4S13157   3.538   2.609   6.489 -0.0146  0.4096  0.1809
  124OSM    H4S13158   3.460   2.578   6.559 -1.7480 -1.1223 -2.3424
  124OSM    C5S13159   3.668   2.622   6.516  0.6950  0.5059 -0.1607
  124OSM    H5S13160   3.727   2.657   6.429 -0.2566  1.9058 -0.2585
  124OSM    C6S13161   3.747   2.605   6.646 -0.3066  0.1244  0.4638
  124OSM    H6S13162   3.809   2.696   6.661 -0.7018  0.2905  1.1030
  124OSM    H6T13163   3.822   2.523   6.636 -1.1578 -0.1435 -5.1770
  124OSM    C7S13164   3.660   2.574   6.765  0.0481  0.1182  0.0036
  124OSM    H7S13165   3.597   2.483   6.760 -0.2653  0.3110  0.4213
  124OSM    H7T13166   3.591   2.659   6.781 -0.4518  0.2077 -2.5054
  124OSM    C8S13167   3.736   2.558   6.897  0.6312 -0.3226 -0.1081
  124OSM    H8S13168   3.815   2.630   6.927  0.8359  0.2956 -2.0306
  124OSM    H8T13169   3.791   2.461   6.899  0.0252 -0.6856 -0.6932
  124OSM    C9S13170   3.642   2.544   7.022  0.2443 -0.0522  1.0759
  124OSM    H9S13171   3.577   2.455   7.005  0.8976  0.1486 -2.9143
  124OSM    H9T13172   3.579   2.634   7.036 -1.4517 -0.9506 -0.5644
  124OSM   C10S13173   3.719   2.510   7.150 -0.6785 -0.2775  0.0388
  124OSM   H10S13174   3.805   2.580   7.159 -0.2965 -0.9406  1.7539
  124OSM   H10T13175   3.760   2.407   7.155 -0.8686 -0.3611 -0.1647
  124OSM   C11S13176   3.640   2.526   7.276 -0.3196  0.0405  0.6243
  124OSM   H11S13177   3.538   2.491   7.251 -0.3510  0.0353  0.7583
  124OSM   H11T13178   3.641   2.636   7.290  2.5804  0.0581  0.6073
  124OSM   C12S13179   3.698   2.443   7.390  0.2333 -0.2371 -0.6111
  124OSM   H12S13180   3.802   2.483   7.395  0.2590 -0.5205  1.5183
  124OSM   H12T13181   3.711   2.335   7.368  4.0421  0.2505 -1.1224
  124OSM   C13S13182   3.630   2.473   7.522  0.6431  0.8395  0.1604
  124OSM   H13S13183   3.676   2.407   7.598  0.4714  1.0053  0.4092
  124OSM   H13T13184   3.520   2.458   7.508  1.1619 -0.8085 -2.4892
  124OSM   C14S13185   3.670   2.615   7.573 -0.1495 -0.1139  0.8414
  124OSM   H14S13186   3.602   2.680   7.514 -0.2805 -0.2055  0.8912
  124OSM   H14T13187   3.777   2.639   7.555 -0.0020  0.6435  2.5881
  124OSM   C15S13188   3.648   2.630   7.723 -0.1447  0.3934 -0.3039
  124OSM   H15S13189   3.567   2.562   7.755 -1.5990  2.3619  0.3252
  124OSM   H15T13190   3.626   2.736   7.749 -1.7761 -0.3486  1.3866
  124OSM   C16S13191   3.774   2.585   7.799  0.8524  0.0645  0.1292
  124OSM   H16S13192   3.859   2.650   7.771  0.2466  0.2352 -1.3360
  124OSM   H16T13193   3.803   2.483   7.765  1.6277 -0.1194  1.3054
  124OSM   C17S13194   3.765   2.583   7.952 -0.5812  0.7644  0.5053
  124OSM   H17S13195   3.862   2.544   7.993 -0.3959  0.6199 -0.0719
  124OSM   H17T13196   3.692   2.504   7.979  0.2355 -0.9185 -2.0749
  124OSM   C18S13197   3.733   2.719   8.012 -0.1771 -1.0338 -0.4074
  124OSM   H18S13198   3.827   2.774   8.033 -0.5113  0.2506 -2.1333
  124OSM   H18T13199   3.676   2.723   8.107 -1.2062  3.1329 -1.1012
  124OSM   H18U13200   3.670   2.785   7.947 -1.2139 -0.4074  1.2035
  124OSM    C1F13201   3.270   2.937   6.486 -0.6203  0.1659  0.3315
  124OSM     OF13202   3.158   2.894   6.494  0.1319  0.0154 -0.0149
  124OSM    C2F13203   3.311   3.081   6.523 -0.4766  0.5599 -0.4427
  124OSM    H2F13204   3.308   3.142   6.431  1.9864  1.9532  0.3661
  124OSM    H2G13205   3.417   3.078   6.557 -0.4178 -0.9974 -0.7301
  124OSM    C3F13206   3.222   3.140   6.633 -0.2666 -0.2129 -0.1413
  124OSM    H3F13207   3.114   3.143   6.605 -0.6947 -0.5256  1.3920
  124OSM    H3G13208   3.236   3.250   6.643 -1.0214 -0.0904 -0.4229
  124OSM    C4F13209   3.249   3.080   6.772 -0.1679  0.9169  0.3985
  124OSM    H4F13210   3.352   3.111   6.797  0.3837 -0.5866  0.0387
  124OSM    H4G13211   3.227   2.974   6.749 -0.6123  0.6376  2.0381
  124OSM    C5F13212   3.136   3.142   6.858 -0.0461  0.2699  0.3770
  124OSM    H5F13213   3.036   3.095   6.847  1.0217 -1.6097 -1.8584
  124OSM    H5G13214   3.120   3.249   6.835 -2.0090 -0.4305 -1.6637
  124OSM    C6F13215   3.167   3.129   7.007 -0.2004 -0.6639 -0.8990
  124OSM    H6F13216   3.261   3.179   7.038 -1.2257  1.3375 -0.9418
  124OSM    H6G13217   3.189   3.025   7.041  0.6539 -0.0001  0.6400
  124OSM    C7F13218   3.055   3.196   7.095  0.3529  0.7827 -0.9459
  124OSM    H7F13219   2.951   3.159   7.082  0.4328  0.3443 -0.3760
  124OSM    H7G13220   3.051   3.298   7.051 -1.0343  0.4399 -1.6601
  124OSM    C8F13221   3.098   3.197   7.238  0.2638 -1.0053 -0.1172
  124OSM    H8F13222   3.208   3.212   7.244  0.0776  0.3910 -0.0374
  124OSM    H8G13223   3.069   3.098   7.281  0.3445 -1.0832 -0.2439
  124OSM    C9F13224   3.027   3.314   7.318  0.3915  0.2276  0.0558
  124OSM    H9F13225   3.075   3.413   7.311 -0.9015  0.8680 -0.0624
  124OSM   C10F13226   2.927   3.297   7.407 -0.8000  0.3830 -0.0916
  124OSM   H10F13227   2.897   3.386   7.466 -1.5458 -0.3526  0.6515
  124OSM   C11F13228   2.853   3.172   7.447 -0.4566  0.2187 -0.3119
  124OSM   H11F13229   2.900   3.089   7.389  0.6675 -0.4230  1.4822
  124OSM   H11G13230   2.744   3.189   7.431 -0.4324  1.5813  0.8699
  124OSM   C12F13231   2.854   3.141   7.599 -0.1399  0.2865 -0.3578
  124OSM   H12F13232   2.940   3.071   7.611 -0.6025 -0.0525  1.0331
  124OSM   H12G13233   2.761   3.084   7.619 -0.5074  1.3271  0.9678
  124OSM   C13F13234   2.864   3.260   7.696 -0.5389  0.1025  0.6416
  124OSM   H13F13235   2.812   3.347   7.651 -1.4785 -0.7431  0.0928
  124OSM   H13G13236   2.969   3.294   7.712 -0.8370  1.4537 -0.1637
  124OSM   C14F13237   2.799   3.230   7.827  0.2624  0.6955  0.3927
  124OSM   H14F13238   2.844   3.135   7.864 -1.3496 -0.6185 -0.9541
  124OSM   H14G13239   2.691   3.211   7.813  1.2790 -3.5877 -2.9005
  124OSM   C15F13240   2.832   3.342   7.926 -1.0299 -0.2565  0.0128
  124OSM   H15F13241   2.776   3.437   7.910  2.1006  1.8405  1.0650
  124OSM   H15G13242   2.940   3.363   7.937 -0.4369 -2.7998 -0.6865
  124OSM   C16F13243   2.789   3.290   8.068  0.3219 -0.4036 -0.6483
  124OSM   H16F13244   2.841   3.198   8.102  1.1684  1.1138  2.4007
  124OSM   H16G13245   2.682   3.260   8.068  0.0779  0.3434  1.9700
  124OSM   C17F13246   2.808   3.408   8.176 -0.1386 -0.4065  0.1488
  124OSM   H17F13247   2.759   3.496   8.128 -0.0389 -1.6983 -2.4447
  124OSM   H17G13248   2.915   3.435   8.178  0.0466 -1.1728  0.6747
  124OSM   C18F13249   2.740   3.379   8.314  0.2432  0.2685  0.7010
  124OSM   H18F13250   2.813   3.321   8.373  0.9716  1.2901  0.8278
  124OSM   H18G13251   2.659   3.308   8.288 -0.5526  1.3424  0.2008
  124OSM   H18H13252   2.709   3.478   8.353 -2.0681  0.1448 -0.7272
  125OSM      N13253   5.934   1.731   5.838 -0.3318 -0.1809  0.2596
  125OSM    C1513254   5.942   1.813   5.709  0.4868 -0.9070 -0.0144
  125OSM   H15A13255   6.042   1.828   5.672  0.7089  2.3183  1.6272
  125OSM   H15B13256   5.897   1.911   5.704  2.2595 -0.1088 -0.6712
  125OSM   H15C13257   5.888   1.761   5.632 -0.4272 -2.0686  1.3877
  125OSM    C1413258   5.986   1.594   5.819  0.2737  0.6513 -0.2075
  125OSM   H14A13259   5.988   1.532   5.908  2.1301  0.1583 -0.5689
  125OSM   H14B13260   6.088   1.592   5.782  0.6932 -0.4684  0.9788
  125OSM   H14C13261   5.936   1.542   5.740 -1.1099 -0.7564  1.5426
  125OSM    C1313262   6.018   1.791   5.945 -0.0482  0.4036  0.0182
  125OSM   H13A13263   5.970   1.882   5.978  1.0254 -0.3587  3.8227
  125OSM   H13B13264   6.118   1.810   5.907  0.4480  2.5166  2.2209
  125OSM   H13C13265   6.016   1.726   6.031 -1.1278  1.7759  1.0529
  125OSM    C1213266   5.787   1.730   5.888  0.0011 -0.1981 -0.1058
  125OSM   H12A13267   5.728   1.677   5.815 -1.5366  2.0680 -0.5590
  125OSM   H12B13268   5.756   1.833   5.886 -0.0949 -0.2348 -0.4716
  125OSM    C1113269   5.757   1.669   6.027 -0.0671 -0.4543  0.6240
  125OSM   H11A13270   5.652   1.689   6.056 -0.1052 -1.9127  1.5313
  125OSM   H11B13271   5.828   1.715   6.099  0.8928 -1.5561  0.3931
  125OSM      P13272   5.803   1.437   6.141  0.4618  0.5063 -0.2213
  125OSM    O1313273   5.813   1.295   6.100 -0.3407 -0.0751 -0.2416
  125OSM    O1413274   5.922   1.487   6.199  0.1672 -0.6397 -0.4627
  125OSM    O1113275   5.684   1.459   6.238  0.1855  0.0200  0.0173
  125OSM    O1213276   5.769   1.525   6.010  0.9337 -0.5476 -0.2977
  125OSM    C1S13277   5.691   1.414   6.377  0.2144  0.3426 -0.3203
  125OSM    H1S13278   5.734   1.312   6.390 -0.9411 -0.3266 -1.6219
  125OSM    H1T13279   5.584   1.409   6.407  0.3576  1.8620  0.4604
  125OSM     NF13280   5.760   1.448   6.614 -0.2277  0.1909 -0.3748
  125OSM    HNF13281   5.688   1.479   6.676  1.1814  2.4397  0.1822
  125OSM    C2S13282   5.755   1.515   6.481  0.3090  0.0542  0.0976
  125OSM    H2S13283   5.860   1.540   6.453 -0.6034 -0.3491 -3.8992
  125OSM    C3S13284   5.682   1.657   6.487  0.8950 -0.6448 -0.2766
  125OSM    H3S13285   5.575   1.645   6.516  0.9416  0.4025  0.3863
  125OSM     O313286   5.683   1.725   6.365  0.1795  0.1067 -0.2928
  125OSM    HO313287   5.708   1.657   6.302  1.8973  0.1704  0.2950
  125OSM    C4S13288   5.748   1.736   6.598 -0.8819  0.2152 -0.6301
  125OSM    H4S13289   5.722   1.705   6.700  1.4566 -0.0450 -0.0980
  125OSM    C5S13290   5.832   1.842   6.578 -0.8782  0.9614  1.0811
  125OSM    H5S13291   5.845   1.867   6.471  0.0866 -1.3583  0.6243
  125OSM    C6S13292   5.875   1.923   6.703 -0.2366 -0.4352  0.5253
  125OSM    H6S13293   5.808   2.010   6.716 -0.2954 -0.7172  2.1602
  125OSM    H6T13294   5.978   1.965   6.695  0.0334 -1.0263  0.8233
  125OSM    C7S13295   5.872   1.848   6.839 -0.6159 -0.4780  0.1714
  125OSM    H7S13296   5.947   1.766   6.847 -0.8139 -0.9615 -2.4544
  125OSM    H7T13297   5.770   1.811   6.863 -0.1716 -0.5248  2.0703
  125OSM    C8S13298   5.903   1.949   6.954  0.3673  0.7874  0.0095
  125OSM    H8S13299   5.824   2.028   6.954  0.9017  1.3458  1.3370
  125OSM    H8T13300   6.003   1.998   6.948 -0.1562  1.8610 -0.2141
  125OSM    C9S13301   5.902   1.891   7.098 -0.4862  0.6594 -0.2041
  125OSM    H9S13302   6.001   1.846   7.120 -1.5354 -1.1165  0.9946
  125OSM    H9T13303   5.827   1.810   7.115 -1.2293  0.9769 -1.8465
  125OSM   C10S13304   5.870   1.998   7.198  0.0491 -0.4048  0.6630
  125OSM   H10S13305   5.767   2.036   7.181  0.1295 -0.1246  0.7961
  125OSM   H10T13306   5.935   2.086   7.179  1.1809 -1.1193  1.1720
  125OSM   C11S13307   5.891   1.943   7.339 -0.5666  0.8295 -0.1300
  125OSM   H11S13308   5.998   1.916   7.349 -1.1059 -1.9098 -1.2103
  125OSM   H11T13309   5.830   1.856   7.373 -2.1089  0.9281 -2.5192
  125OSM   C12S13310   5.846   2.050   7.450 -0.1344 -0.7749 -0.5852
  125OSM   H12S13311   5.736   2.060   7.459 -0.0520  2.9324 -2.7256
  125OSM   H12T13312   5.894   2.145   7.418  0.3649 -1.4450 -1.8858
  125OSM   C13S13313   5.897   2.022   7.593 -0.1553  0.0892 -0.2002
  125OSM   H13S13314   5.881   2.111   7.658  1.1117 -0.2366  0.5619
  125OSM   H13T13315   6.008   2.020   7.594 -0.1372 -3.7652  3.2904
  125OSM   C14S13316   5.871   1.889   7.662 -0.2453  0.4172 -0.1086
  125OSM   H14S13317   5.950   1.818   7.630  0.3010  0.5634  0.9138
  125OSM   H14T13318   5.775   1.843   7.632 -0.6996  1.6669 -0.6186
  125OSM   C15S13319   5.879   1.896   7.815 -0.0585  0.2173 -0.0029
  125OSM   H15S13320   5.793   1.961   7.844 -0.2530  0.2587 -0.6566
  125OSM   H15T13321   5.972   1.955   7.824  0.0940 -0.1536  0.9054
  125OSM   C16S13322   5.885   1.750   7.874  0.3830 -0.0732  0.3323
  125OSM   H16S13323   5.918   1.672   7.802 -1.8555  0.0221 -0.8378
  125OSM   H16T13324   5.786   1.725   7.917  0.3133  0.3866  0.4387
  125OSM   C17S13325   5.984   1.746   7.987  0.2479  0.8140 -0.0683
  125OSM   H17S13326   5.962   1.825   8.063  1.1901  0.6542  0.3733
  125OSM   H17T13327   6.082   1.775   7.944 -0.0892  0.0970 -1.3178
  125OSM   C18S13328   6.001   1.614   8.054  0.0891  0.1409 -0.1509
  125OSM   H18S13329   6.044   1.539   7.985 -2.0182 -0.1137 -1.2390
  125OSM   H18T13330   5.896   1.579   8.069  0.0922 -0.3832 -1.3123
  125OSM   H18U13331   6.047   1.632   8.153  1.9035  2.4126 -1.3548
  125OSM    C1F13332   5.830   1.336   6.644  0.1153  0.0780  0.1732
  125OSM     OF13333   5.907   1.292   6.557 -0.1900  0.1363 -0.1814
  125OSM    C2F13334   5.820   1.281   6.784  0.7764 -0.6671 -0.1413
  125OSM    H2F13335   5.719   1.266   6.827  0.0617 -3.6064 -2.6687
  125OSM    H2G13336   5.867   1.353   6.854  1.7892 -1.8423  0.4067
  125OSM    C3F13337   5.873   1.133   6.804 -0.3246  0.8125  0.0570
  125OSM    H3F13338   5.978   1.130   6.769  0.4742  1.4495  2.3380
  125OSM    H3G13339   5.821   1.072   6.726 -0.6711 -0.3217  1.1477
  125OSM    C4F13340   5.845   1.064   6.936 -0.5173  0.9422  0.2927
  125OSM    H4F13341   5.853   0.955   6.914  0.7353  0.9412  0.7134
  125OSM    H4G13342   5.740   1.083   6.965 -1.5391 -2.9324 -0.5822
  125OSM    C5F13343   5.944   1.115   7.040 -0.0819 -0.2910 -0.2846
  125OSM    H5F13344   5.896   1.199   7.095 -1.6559 -1.7007  0.5419
  125OSM    H5G13345   6.046   1.138   7.002 -1.0297  1.5962 -1.7649
  125OSM    C6F13346   5.963   1.009   7.153  0.4955  0.5462 -1.0864
  125OSM    H6F13347   6.061   1.040   7.194 -0.4377  3.2775 -0.8068
  125OSM    H6G13348   5.968   0.904   7.119  0.4682 -0.4781  1.9160
  125OSM    C7F13349   5.850   1.012   7.256 -0.3431 -0.0737  0.3302
  125OSM    H7F13350   5.770   0.948   7.213 -1.1616 -1.1787  3.3583
  125OSM    H7G13351   5.811   1.115   7.252 -2.4480 -0.8684 -0.1567
  125OSM    C8F13352   5.883   0.971   7.400  0.0537 -0.5218 -0.1024
  125OSM    H8F13353   5.906   1.063   7.458 -1.1092  0.3996 -1.0807
  125OSM    H8G13354   5.967   0.900   7.391  0.1017 -0.4207 -0.4703
  125OSM    C9F13355   5.770   0.894   7.460 -0.0759  0.3212 -0.0130
  125OSM    H9F13356   5.684   0.875   7.393  0.5820 -3.6510  0.1668
  125OSM   C10F13357   5.747   0.867   7.589  0.0752  0.0073  0.0359
  125OSM   H10F13358   5.658   0.814   7.627  0.1898  0.2155  0.5983
  125OSM   C11F13359   5.847   0.913   7.697 -1.1801 -0.0043 -0.2201
  125OSM   H11F13360   5.867   1.022   7.702  0.7364 -0.3375 -0.1012
  125OSM   H11G13361   5.950   0.876   7.676 -0.6328  0.3974  1.6835
  125OSM   C12F13362   5.819   0.852   7.835  0.1156  0.9487 -0.2680
  125OSM   H12F13363   5.811   0.742   7.822 -2.3018  0.8811  1.5614
  125OSM   H12G13364   5.723   0.891   7.874  0.4539  0.7619  0.7679
  125OSM   C13F13365   5.929   0.865   7.940 -0.2542 -0.1180  0.3907
  125OSM   H13F13366   5.973   0.968   7.942 -2.3845  0.7810  2.4435
  125OSM   H13G13367   6.014   0.801   7.906 -0.2916  0.7642 -1.4651
  125OSM   C14F13368   5.886   0.832   8.082 -0.3860 -0.8711 -0.1443
  125OSM   H14F13369   5.783   0.871   8.098  0.5613  0.8886  1.8927
  125OSM   H14G13370   5.949   0.866   8.167 -1.2760 -2.8055  1.3246
  125OSM   C15F13371   5.864   0.677   8.103 -0.2905 -0.2158 -0.0692
  125OSM   H15F13372   5.969   0.639   8.110  0.0693  1.0581  2.0419
  125OSM   H15G13373   5.813   0.635   8.014 -1.9483 -0.0931  0.8115
  125OSM   C16F13374   5.781   0.630   8.232 -0.2103 -0.6764  0.2474
  125OSM   H16F13375   5.833   0.694   8.306 -0.5292  1.1221 -1.0349
  125OSM   H16G13376   5.795   0.526   8.269 -0.9484 -0.9665 -0.2651
  125OSM   C17F13377   5.632   0.665   8.231  0.3193 -0.5285  0.1530
  125OSM   H17F13378   5.583   0.596   8.160  0.1336 -0.4172  0.1745
  125OSM   H17G13379   5.605   0.768   8.198 -0.4066 -0.6507  0.3637
  125OSM   C18F13380   5.558   0.651   8.372  0.7550  0.0397  1.3770
  125OSM   H18F13381   5.450   0.665   8.352  0.8198 -0.6305  0.5314
  125OSM   H18G13382   5.596   0.724   8.447 -0.1855 -0.5133  2.4117
  125OSM   H18H13383   5.566   0.545   8.406 -2.0984 -0.9392 -0.8454
  126OSM      N13384   2.799   5.091   6.334  0.3488  0.1002 -0.6940
  126OSM    C1513385   2.812   5.199   6.234  0.1782  0.3028 -0.9773
  126OSM   H15A13386   2.774   5.294   6.269 -1.1063 -1.0758  1.5104
  126OSM   H15B13387   2.763   5.169   6.143  1.4086 -1.6090 -1.0331
  126OSM   H15C13388   2.916   5.221   6.219  1.1208 -2.7134  0.6342
  126OSM    C1413389   2.654   5.071   6.380 -0.2958 -0.0432  0.1632
  126OSM   H14A13390   2.609   5.164   6.412  1.4235  0.6812  0.5246
  126OSM   H14B13391   2.645   4.990   6.451 -1.3793 -0.9697 -1.0096
  126OSM   H14C13392   2.576   5.043   6.310 -1.3752  0.3040  1.2074
  126OSM    C1313393   2.855   4.966   6.269  0.5035 -0.3593 -0.2991
  126OSM   H13A13394   2.869   4.894   6.348 -1.5443  0.3183  0.7058
  126OSM   H13B13395   2.949   4.987   6.221  1.6281 -0.6190  1.7742
  126OSM   H13C13396   2.790   4.914   6.199 -1.3532 -1.9872  2.5127
  126OSM    C1213397   2.879   5.133   6.456 -0.4761 -0.4974 -0.6806
  126OSM   H12A13398   2.983   5.152   6.433 -0.5789 -0.5548 -1.1988
  126OSM   H12B13399   2.875   5.060   6.534  0.5047 -0.8265 -0.9276
  126OSM    C1113400   2.840   5.262   6.532  0.1246 -0.5579 -0.2979
  126OSM   H11A13401   2.854   5.255   6.642 -1.6967  2.8273  0.2324
  126OSM   H11B13402   2.730   5.274   6.524 -0.1581 -2.6846  0.2990
  126OSM      P13403   3.058   5.396   6.502  0.2052  0.0231  0.1491
  126OSM    O1313404   3.121   5.267   6.546  0.2057  0.1670 -0.2119
  126OSM    O1413405   3.125   5.465   6.389 -0.4259  0.3996 -0.4716
  126OSM    O1113406   3.052   5.494   6.624  0.3600 -0.3935  0.1033
  126OSM    O1213407   2.899   5.377   6.472  0.2607  0.6197 -0.2056
  126OSM    C1S13408   2.990   5.443   6.740  0.2185 -1.2202 -0.1754
  126OSM    H1S13409   3.006   5.334   6.753 -1.1817 -0.9604  4.4011
  126OSM    H1T13410   2.880   5.453   6.738  0.2900 -0.4874 -0.4656
  126OSM     NF13411   2.973   5.450   6.982  0.1909  0.2398  0.4426
  126OSM    HNF13412   2.898   5.496   7.030  0.5924  0.5895  0.7339
  126OSM    C2S13413   3.034   5.522   6.871 -0.2652  0.6139  0.6880
  126OSM    H2S13414   3.144   5.526   6.888  0.4450  4.1029 -3.6793
  126OSM    C3S13415   2.996   5.672   6.845 -0.0889  0.2404  0.3073
  126OSM    H3S13416   2.888   5.686   6.825  0.0329  1.6545  0.6090
  126OSM     O313417   3.047   5.725   6.723  0.0249  0.4376 -0.2505
  126OSM    HO313418   3.064   5.643   6.678  0.1087 -1.1193  2.4753
  126OSM    C4S13419   3.050   5.762   6.950  0.1990  0.3127  0.4469
  126OSM    H4S13420   3.159   5.752   6.959 -0.0348 -2.5144  0.6652
  126OSM    C5S13421   2.966   5.838   7.027 -0.0969  0.3624 -0.0327
  126OSM    H5S13422   2.857   5.829   7.020 -0.1546  1.9590 -1.3196
  126OSM    C6S13423   3.018   5.937   7.134  0.4026 -0.1773  0.6880
  126OSM    H6S13424   2.994   6.037   7.092 -0.2508 -0.2119  0.9801
  126OSM    H6T13425   3.127   5.941   7.154  0.5821  2.7019 -0.5224
  126OSM    C7S13426   2.957   5.938   7.270  0.2187  0.3226 -0.7997
  126OSM    H7S13427   2.963   5.833   7.307  4.3543 -0.3760 -3.1722
  126OSM    H7T13428   2.850   5.967   7.256  0.2501 -0.0116 -1.7775
  126OSM    C8S13429   3.029   6.026   7.375 -0.3193  0.2795  0.0289
  126OSM    H8S13430   3.066   6.120   7.328 -1.2815  0.0874 -1.1548
  126OSM    H8T13431   3.120   5.969   7.401  0.0037  0.4524 -0.6920
  126OSM    C9S13432   2.937   6.060   7.494  0.0109 -0.0468  0.1690
  126OSM    H9S13433   2.833   6.083   7.466 -0.2642 -1.9894 -0.4750
  126OSM    H9T13434   2.979   6.141   7.558  4.2617 -0.7413 -1.5236
  126OSM   C10S13435   2.936   5.937   7.580 -0.5655  0.4141 -0.4876
  126OSM   H10S13436   3.037   5.918   7.621 -0.7865  2.1367  0.8831
  126OSM   H10T13437   2.906   5.850   7.517 -1.5595 -0.3765  1.0436
  126OSM   C11S13438   2.859   5.952   7.711 -0.1045  0.6726  0.0199
  126OSM   H11S13439   2.757   5.990   7.684 -0.1650  0.3411 -0.2205
  126OSM   H11T13440   2.909   6.036   7.765  2.8496  0.3446 -2.0900
  126OSM   C12S13441   2.852   5.825   7.788 -0.0101  0.7732  0.8006
  126OSM   H12S13442   2.960   5.804   7.805  0.2690  0.6255 -1.0632
  126OSM   H12T13443   2.807   5.736   7.738  1.3238  1.8595 -2.4809
  126OSM   C13S13444   2.798   5.832   7.933  0.5460  0.1313 -0.1059
  126OSM   H13S13445   2.690   5.854   7.924  0.8089  1.3368 -0.3911
  126OSM   H13T13446   2.840   5.920   7.985 -0.3029  1.2911 -1.3609
  126OSM   C14S13447   2.813   5.708   8.023  0.1401  0.0943  0.3644
  126OSM   H14S13448   2.920   5.689   8.042  0.5391  2.0349  0.1504
  126OSM   H14T13449   2.784   5.621   7.960 -0.0135 -1.0561  1.9863
  126OSM   C15S13450   2.723   5.711   8.148 -0.0119  0.2134  0.6148
  126OSM   H15S13451   2.714   5.607   8.186  0.0304 -0.0760 -0.1698
  126OSM   H15T13452   2.615   5.731   8.129  0.0988 -1.2901 -1.6980
  126OSM   C16S13453   2.778   5.810   8.249 -0.1284 -0.9552  0.7350
  126OSM   H16S13454   2.712   5.810   8.338 -0.8272 -3.1849  0.2482
  126OSM   H16T13455   2.772   5.908   8.197 -1.3962 -1.5333 -0.2444
  126OSM   C17S13456   2.910   5.767   8.320  0.0545 -0.2596 -0.9559
  126OSM   H17S13457   2.999   5.800   8.262  0.3550  2.2635  0.8628
  126OSM   H17T13458   2.910   5.658   8.342 -0.8483 -0.2787 -1.0434
  126OSM   C18S13459   2.920   5.834   8.449  0.1064 -0.1817  0.0363
  126OSM   H18S13460   3.023   5.828   8.491  0.5086  0.3533 -0.8645
  126OSM   H18T13461   2.837   5.800   8.515 -0.5058 -0.8420 -1.0712
  126OSM   H18U13462   2.912   5.944   8.435  3.2451  0.2241  0.9924
  126OSM    C1F13463   3.007   5.325   7.017  0.7807  0.8708 -0.4266
  126OSM     OF13464   3.117   5.274   6.978  0.1624 -0.2877 -0.0862
  126OSM    C2F13465   2.908   5.246   7.090  0.3174  0.5180  0.1985
  126OSM    H2F13466   2.842   5.202   7.012 -3.0482  1.2272  2.5384
  126OSM    H2G13467   2.847   5.315   7.152 -0.4027  0.4067 -0.3772
  126OSM    C3F13468   2.980   5.133   7.167  0.0848 -1.2530  0.3524
  126OSM    H3F13469   3.074   5.174   7.209 -0.1512 -1.4202  1.0401
  126OSM    H3G13470   3.019   5.063   7.089  0.6401 -2.0407  1.3227
  126OSM    C4F13471   2.895   5.057   7.270 -0.4770 -0.3971 -0.2826
  126OSM    H4F13472   2.968   5.003   7.335 -3.0338 -1.3905  1.8552
  126OSM    H4G13473   2.833   4.981   7.218  3.1723 -3.2583 -0.6764
  126OSM    C5F13474   2.817   5.137   7.377  0.4894 -0.1282 -0.3026
  126OSM    H5F13475   2.728   5.189   7.337  0.6421 -0.1453 -0.6612
  126OSM    H5G13476   2.880   5.220   7.417  1.5159 -0.9847 -0.1048
  126OSM    C6F13477   2.760   5.051   7.486  0.0193 -0.1088  0.0257
  126OSM    H6F13478   2.712   5.110   7.567 -4.7662 -3.0801 -0.3673
  126OSM    H6G13479   2.840   5.005   7.547 -1.3238  0.0225  1.9617
  126OSM    C7F13480   2.653   4.938   7.452 -0.0276 -0.0663 -0.9477
  126OSM    H7F13481   2.701   4.890   7.364  0.9142  0.1215 -0.5408
  126OSM    H7G13482   2.560   4.983   7.410 -0.9220  0.0436  1.0800
  126OSM    C8F13483   2.620   4.850   7.575 -0.3362  0.2117  0.0607
  126OSM    H8F13484   2.720   4.818   7.612  1.0812  1.9267 -2.2066
  126OSM    H8G13485   2.570   4.755   7.544  0.1078  0.2222 -0.6951
  126OSM    C9F13486   2.536   4.924   7.671 -0.3835  0.1818 -0.1699
  126OSM    H9F13487   2.481   5.015   7.645  1.5938  2.1619  2.3127
  126OSM   C10F13488   2.537   4.888   7.805 -0.6376  0.4596  0.8421
  126OSM   H10F13489   2.461   4.939   7.867 -0.7771  1.4281 -0.1051
  126OSM   C11F13490   2.615   4.772   7.869  0.1199 -0.5133  0.1225
  126OSM   H11F13491   2.700   4.745   7.802 -1.0618 -1.3543 -1.0590
  126OSM   H11G13492   2.556   4.678   7.866  0.2253 -0.5819  0.2056
  126OSM   C12F13493   2.660   4.804   8.008  0.2682 -0.0053  0.4139
  126OSM   H12F13494   2.716   4.900   8.009 -1.6551  1.1510 -1.1446
  126OSM   H12G13495   2.723   4.714   8.029  0.0683  0.1645  1.7771
  126OSM   C13F13496   2.538   4.822   8.109 -0.5469  0.2544  0.2550
  126OSM   H13F13497   2.451   4.754   8.093 -0.4501  0.0382  0.6332
  126OSM   H13G13498   2.502   4.927   8.101  1.1418  0.7852 -0.5861
  126OSM   C14F13499   2.587   4.798   8.254 -0.2901 -0.3207  1.2991
  126OSM   H14F13500   2.670   4.866   8.280 -0.4572  1.3226 -2.1365
  126OSM   H14G13501   2.611   4.690   8.265 -1.6432 -0.7539  0.2707
  126OSM   C15F13502   2.481   4.840   8.360 -0.4743  0.0955  0.2667
  126OSM   H15F13503   2.381   4.800   8.331 -0.0430 -0.7861 -0.0288
  126OSM   H15G13504   2.471   4.950   8.369  0.5004 -0.0305  3.2794
  126OSM   C16F13505   2.524   4.791   8.493 -0.0893 -0.3115 -0.5718
  126OSM   H16F13506   2.626   4.823   8.522 -0.6992  2.0453 -0.9601
  126OSM   H16G13507   2.521   4.681   8.509 -1.7656 -0.1192  0.6098
  126OSM   C17F13508   2.428   4.846   8.600  0.9872  0.7904 -0.1389
  126OSM   H17F13509   2.332   4.801   8.568  0.6226  1.5216 -0.0806
  126OSM   H17G13510   2.405   4.954   8.589 -0.4270  0.5329  0.1621
  126OSM   C18F13511   2.457   4.817   8.750  0.6682  0.8841  0.0817
  126OSM   H18F13512   2.479   4.709   8.767  2.7802  1.2698 -0.0551
  126OSM   H18G13513   2.371   4.856   8.807 -0.0587  0.8409 -0.9686
  126OSM   H18H13514   2.538   4.887   8.780  0.6115  0.7010  0.6507
  127OSM      N13515   2.011   1.002   6.160  0.4965 -0.4107 -0.1648
  127OSM    C1513516   1.922   1.078   6.067  0.5336  0.5365 -0.2680
  127OSM   H15A13517   1.974   1.101   5.975  0.3219 -2.4649 -1.1721
  127OSM   H15B13518   1.892   1.176   6.102  0.9711  1.0655 -1.3567
  127OSM   H15C13519   1.829   1.027   6.050  1.1437 -0.8547  0.4824
  127OSM    C1413520   2.044   0.874   6.093  0.1497  0.1691 -0.1258
  127OSM   H14A13521   2.122   0.831   6.154  0.1679  2.9255  1.8739
  127OSM   H14B13522   2.085   0.891   5.995  3.5063 -0.4257  1.1045
  127OSM   H14C13523   1.963   0.803   6.085 -1.1517  1.8133 -1.6998
  127OSM    C1313524   2.133   1.087   6.186  0.0939 -0.0797 -0.4119
  127OSM   H13A13525   2.104   1.176   6.239  0.5459 -0.2237  0.0854
  127OSM   H13B13526   2.168   1.130   6.093  1.3691 -1.5170 -0.6110
  127OSM   H13C13527   2.212   1.044   6.245 -1.8711 -1.6726  1.1303
  127OSM    C1213528   1.933   0.982   6.288  0.6725 -0.6722 -0.3064
  127OSM   H12A13529   1.926   1.077   6.338  2.3276 -1.0224  0.6206
  127OSM   H12B13530   1.992   0.921   6.355 -1.5216 -0.4185  1.8790
  127OSM    C1113531   1.791   0.919   6.280  0.0940 -0.0492  0.3482
  127OSM   H11A13532   1.737   0.977   6.201  1.9104 -0.5803 -1.3285
  127OSM   H11B13533   1.735   0.934   6.375 -2.4631  0.2151 -1.1263
  127OSM      P13534   1.860   0.672   6.337 -0.2904  0.1807  0.2175
  127OSM    O1313535   1.822   0.541   6.281 -0.6391  0.1581 -0.3560
  127OSM    O1413536   2.003   0.697   6.367  0.5886 -0.0455 -0.9888
  127OSM    O1113537   1.775   0.697   6.469  0.0536  0.4697  0.0721
  127OSM    O1213538   1.800   0.781   6.243 -0.4803 -0.1804 -0.4223
  127OSM    C1S13539   1.672   0.615   6.515  0.8074 -0.4923  0.1673
  127OSM    H1S13540   1.713   0.512   6.524 -1.4779 -1.5278 -1.0228
  127OSM    H1T13541   1.585   0.602   6.447  0.7822 -1.2026  0.3282
  127OSM     NF13542   1.543   0.554   6.725 -0.7719  0.5414 -0.9531
  127OSM    HNF13543   1.445   0.548   6.709 -0.9714 -2.6449  0.8978
  127OSM    C2S13544   1.630   0.656   6.657 -0.1195 -0.2311  0.3381
  127OSM    H2S13545   1.723   0.669   6.716 -0.1277 -1.3565  0.6126
  127OSM    C3S13546   1.563   0.787   6.643 -0.4207  0.4185  0.1821
  127OSM    H3S13547   1.479   0.781   6.570 -0.5822  0.0892  0.3921
  127OSM     O313548   1.658   0.884   6.604  0.5565  0.4334  0.1958
  127OSM    HO313549   1.733   0.836   6.571 -1.5728 -1.4933 -2.0225
  127OSM    C4S13550   1.496   0.836   6.771  0.1062  0.1881  0.2963
  127OSM    H4S13551   1.581   0.849   6.839 -0.1923  0.9168  0.5295
  127OSM    C5S13552   1.367   0.873   6.804  0.4573  0.5825  0.6576
  127OSM    H5S13553   1.283   0.855   6.735  1.2645 -0.3197 -0.1013
  127OSM    C6S13554   1.315   0.924   6.935 -1.2229  0.5785  0.2577
  127OSM    H6S13555   1.263   0.840   6.985 -2.0432  1.7208  1.3345
  127OSM    H6T13556   1.241   1.003   6.912  0.0612  0.7650 -3.6846
  127OSM    C7S13557   1.406   0.979   7.052 -0.3368 -0.5531  0.9452
  127OSM    H7S13558   1.472   1.054   7.002  0.8175 -2.7134 -0.8703
  127OSM    H7T13559   1.472   0.897   7.085 -0.2889 -1.3488 -1.0320
  127OSM    C8S13560   1.333   1.030   7.178  0.4907 -0.6311 -0.2566
  127OSM    H8S13561   1.256   0.955   7.207 -1.5063  2.1674  1.9114
  127OSM    H8T13562   1.271   1.119   7.158  1.6313  0.8300  2.4030
  127OSM    C9S13563   1.422   1.052   7.298 -0.0136  0.3277  0.3315
  127OSM    H9S13564   1.361   1.114   7.368 -1.9889 -0.8446 -0.3012
  127OSM    H9T13565   1.516   1.106   7.274  1.2473 -1.5705  0.9400
  127OSM   C10S13566   1.450   0.917   7.355 -0.1236  0.0715  1.1020
  127OSM   H10S13567   1.527   0.866   7.293 -0.5162  1.0193 -0.1926
  127OSM   H10T13568   1.360   0.852   7.350  0.2660 -0.4152  0.2363
  127OSM   C11S13569   1.499   0.915   7.498 -1.0698  0.2534  0.0326
  127OSM   H11S13570   1.427   0.970   7.562 -2.5935  0.2445 -1.6337
  127OSM   H11T13571   1.598   0.964   7.491 -1.0321 -0.0848 -2.0070
  127OSM   C12S13572   1.514   0.773   7.539 -0.4783  0.2063 -0.1962
  127OSM   H12S13573   1.580   0.716   7.471  0.9133  1.6026 -0.0458
  127OSM   H12T13574   1.413   0.729   7.547 -0.3309  0.1332  1.4362
  127OSM   C13S13575   1.582   0.771   7.676 -0.0835 -0.4015  0.3922
  127OSM   H13S13576   1.529   0.832   7.751 -0.6744 -2.6896  1.9023
  127OSM   H13T13577   1.683   0.817   7.669 -0.1878 -0.4564 -1.8539
  127OSM   C14S13578   1.595   0.628   7.743 -0.3518  0.0755 -0.3754
  127OSM   H14S13579   1.616   0.549   7.668  0.0303 -0.7925  0.6367
  127OSM   H14T13580   1.494   0.611   7.786  0.3004  0.8071  1.5154
  127OSM   C15S13581   1.695   0.617   7.857  0.3851  0.1376 -0.3946
  127OSM   H15S13582   1.738   0.715   7.886  3.1209 -1.6561  1.8830
  127OSM   H15T13583   1.788   0.558   7.839 -0.5796 -1.5552  0.1053
  127OSM   C16S13584   1.632   0.569   7.989  0.5550  0.2990 -0.2765
  127OSM   H16S13585   1.547   0.633   8.022 -0.1711 -0.0170 -1.4617
  127OSM   H16T13586   1.711   0.581   8.066 -0.6565  0.6238  0.9356
  127OSM   C17S13587   1.579   0.424   7.982 -0.4192  0.4184 -0.6600
  127OSM   H17S13588   1.660   0.351   7.959 -0.7232  0.5513 -2.2308
  127OSM   H17T13589   1.517   0.422   7.889  1.5112 -0.7753 -1.9748
  127OSM   C18S13590   1.487   0.383   8.096 -0.0657  0.2991  0.6132
  127OSM   H18S13591   1.449   0.280   8.085  1.7317 -0.1975 -1.1079
  127OSM   H18T13592   1.403   0.451   8.122  0.5423  0.3232  2.6207
  127OSM   H18U13593   1.540   0.394   8.193  2.3384 -2.2634 -0.3456
  127OSM    C1F13594   1.609   0.440   6.763  0.7260 -0.0083 -1.3666
  127OSM     OF13595   1.731   0.434   6.746  0.1531  0.7450  0.0479
  127OSM    C2F13596   1.524   0.326   6.813  1.1341 -0.0516 -0.1904
  127OSM    H2F13597   1.502   0.269   6.721  1.3837  0.5702 -0.6369
  127OSM    H2G13598   1.430   0.363   6.859  2.1840  1.1896  1.0021
  127OSM    C3F13599   1.598   0.260   6.926 -0.0059 -0.4878 -0.1753
  127OSM    H3F13600   1.630   0.331   7.005 -2.2583  1.6910 -1.1614
  127OSM    H3G13601   1.694   0.215   6.891  1.0291  1.0820  0.6182
  127OSM    C4F13602   1.514   0.145   6.979  0.1336  0.5279 -0.0908
  127OSM    H4F13603   1.485   0.091   6.886 -0.3606 -1.2120  1.0351
  127OSM    H4G13604   1.426   0.189   7.029 -1.2501  0.2634 -2.2156
  127OSM    C5F13605   1.597   0.061   7.083  0.6140 -0.0432 -0.1774
  127OSM    H5F13606   1.609   0.128   7.170  2.0438 -1.2661  0.5861
  127OSM    H5G13607   1.691   0.027   7.034  0.1072  0.2531 -1.3784
  127OSM    C6F13608   1.520  -0.068   7.125 -0.5612  0.4254 -0.4756
  127OSM    H6F13609   1.566  -0.159   7.080 -2.1500 -1.2058  1.0970
  127OSM    H6G13610   1.421  -0.068   7.075 -0.2940 -0.7513 -1.0283
  127OSM    C7F13611   1.524  -0.101   7.270 -0.2996  0.1468 -0.7304
  127OSM    H7F13612   1.463  -0.027   7.327 -1.3359  0.0834 -1.7391
  127OSM    H7G13613   1.629  -0.086   7.304 -0.4394 -1.2951  0.3829
  127OSM    C8F13614   1.493  -0.248   7.312  0.0153  0.3962 -0.1903
  127OSM    H8F13615   1.532  -0.255   7.416 -0.5337 -0.0208 -0.0051
  127OSM    H8G13616   1.540  -0.318   7.240 -0.6359  1.3984 -1.5971
  127OSM    C9F13617   1.344  -0.280   7.307  0.0696  0.4493  0.2482
  127OSM    H9F13618   1.304  -0.334   7.220  0.6156 -0.3978  0.5255
  127OSM   C10F13619   1.255  -0.265   7.409 -0.2469  0.0578  0.1513
  127OSM   H10F13620   1.154  -0.307   7.398  0.2417 -0.8219 -1.1648
  127OSM   C11F13621   1.284  -0.210   7.546  0.0590  0.2079 -0.0533
  127OSM   H11F13622   1.201  -0.146   7.581 -1.2245 -1.6946  0.4506
  127OSM   H11G13623   1.373  -0.144   7.539  0.5662 -0.3619  0.9446
  127OSM   C12F13624   1.312  -0.329   7.641  0.4436 -0.4560 -0.3896
  127OSM   H12F13625   1.384  -0.395   7.590  0.8292 -0.6756  0.4360
  127OSM   H12G13626   1.221  -0.389   7.663  0.2416  0.2035  0.6326
  127OSM   C13F13627   1.364  -0.280   7.778  0.2467 -0.5049 -0.6858
  127OSM   H13F13628   1.313  -0.185   7.805  1.0581 -1.1050  3.1228
  127OSM   H13G13629   1.466  -0.247   7.750 -0.5569  1.3907 -1.5244
  127OSM   C14F13630   1.359  -0.385   7.893  0.0494 -0.0383 -0.0493
  127OSM   H14F13631   1.436  -0.462   7.873 -1.5022 -1.2507 -1.4120
  127OSM   H14G13632   1.260  -0.435   7.890  0.7930 -2.0654  4.6457
  127OSM   C15F13633   1.382  -0.318   8.036 -0.3632 -0.4901  0.3637
  127OSM   H15F13634   1.482  -0.272   8.044 -0.4962 -0.1064 -0.1434
  127OSM   H15G13635   1.375  -0.405   8.105  0.4498 -1.4650 -0.7425
  127OSM   C16F13636   1.273  -0.222   8.071 -0.5910  0.7138  0.7119
  127OSM   H16F13637   1.188  -0.255   8.007  1.4040 -0.2570 -1.5029
  127OSM   H16G13638   1.307  -0.117   8.057  2.0785  0.0648  2.0340
  127OSM   C17F13639   1.214  -0.222   8.208 -0.8269 -0.4872  0.9369
  127OSM   H17F13640   1.140  -0.299   8.239 -0.2654 -0.6560  1.9040
  127OSM   H17G13641   1.146  -0.135   8.199 -1.5282 -1.2631 -1.5226
  127OSM   C18F13642   1.289  -0.187   8.333  0.3832 -0.7553 -0.3889
  127OSM   H18F13643   1.348  -0.092   8.333  0.1578 -0.6000 -2.3944
  127OSM   H18G13644   1.358  -0.271   8.354  0.2500 -0.9775 -0.8405
  127OSM   H18H13645   1.223  -0.170   8.420  0.0132  0.4450 -0.8981
  128OSM      N13646   1.342   3.157   6.015  0.0832 -0.0961 -0.2353
  128OSM    C1513647   1.344   3.131   5.863 -0.2217  0.5145  0.2612
  128OSM   H15A13648   1.406   3.203   5.812 -1.6857  1.4590 -0.2103
  128OSM   H15B13649   1.246   3.123   5.819 -0.5678 -2.0899  1.4185
  128OSM   H15C13650   1.375   3.029   5.848 -0.2192  0.9299 -3.0227
  128OSM    C1413651   1.253   3.060   6.075  0.3862  0.2252 -0.2004
  128OSM   H14A13652   1.152   3.071   6.038  0.7768  0.4487 -1.2043
  128OSM   H14B13653   1.261   3.076   6.182  0.2010  3.5471 -0.6273
  128OSM   H14C13654   1.273   2.956   6.055 -3.7833 -0.1326 -3.2964
  128OSM    C1313655   1.485   3.130   6.052  0.6918 -0.0002 -0.7715
  128OSM   H13A13656   1.497   3.185   6.145 -1.8730  0.0471 -0.4276
  128OSM   H13B13657   1.558   3.170   5.984  0.5562  0.5402 -0.6030
  128OSM   H13C13658   1.517   3.027   6.053  3.7866  0.9121 -0.6970
  128OSM    C1213659   1.316   3.300   6.044  0.1542 -0.1959  0.4670
  128OSM   H12A13660   1.215   3.323   6.013 -0.0570 -1.0641  0.4877
  128OSM   H12B13661   1.384   3.361   5.986  2.0180 -1.3393  1.3787
  128OSM    C1113662   1.331   3.345   6.190  0.7636  0.2604  0.5370
  128OSM   H11A13663   1.278   3.272   6.255  2.4574 -1.3685  0.1595
  128OSM   H11B13664   1.283   3.440   6.220  0.2865  0.4529 -0.8065
  128OSM      P13665   1.562   3.483   6.210  0.5358 -0.4646  0.0932
  128OSM    O1313666   1.701   3.448   6.192  0.0442 -0.5815 -0.0959
  128OSM    O1413667   1.501   3.566   6.105 -0.2574 -0.0716 -0.5062
  128OSM    O1113668   1.552   3.553   6.356 -0.0595  0.3427  0.2601
  128OSM    O1213669   1.470   3.348   6.232  0.4963 -0.1130  0.4211
  128OSM    C1S13670   1.579   3.473   6.470  0.3897 -0.0301  0.2173
  128OSM    H1S13671   1.689   3.469   6.485  0.7111 -0.5759 -1.9906
  128OSM    H1T13672   1.546   3.367   6.457 -0.6358  0.1892  0.9772
  128OSM     NF13673   1.523   3.460   6.721  0.3848  0.3806 -0.2668
  128OSM    HNF13674   1.444   3.424   6.771  0.0597  2.0881  0.4935
  128OSM    C2S13675   1.500   3.530   6.598 -0.1652 -0.3308 -0.5696
  128OSM    H2S13676   1.532   3.636   6.602 -0.8759 -0.1494  0.2876
  128OSM    C3S13677   1.344   3.524   6.568  0.3594 -0.6939 -0.2279
  128OSM    H3S13678   1.321   3.418   6.544 -0.5380 -0.4079 -0.6757
  128OSM     O313679   1.302   3.606   6.463  0.0951 -0.3106 -0.8081
  128OSM    HO313680   1.378   3.605   6.404 -0.6287 -1.5050 -1.7521
  128OSM    C4S13681   1.258   3.565   6.689  0.9003 -0.7855  0.0614
  128OSM    H4S13682   1.282   3.667   6.721  0.8102 -1.0719  1.0642
  128OSM    C5S13683   1.163   3.484   6.739  0.1089  0.0183  0.1602
  128OSM    H5S13684   1.152   3.383   6.698 -0.0173  0.1758 -0.2000
  128OSM    C6S13685   1.079   3.505   6.859 -0.3381 -0.4649 -0.2796
  128OSM    H6S13686   1.060   3.402   6.895 -0.4149 -0.4159 -0.1794
  128OSM    H6T13687   0.983   3.552   6.828  0.9334  1.6734 -1.0536
  128OSM    C7S13688   1.126   3.606   6.959  0.0316  0.9555 -0.1361
  128OSM    H7S13689   1.161   3.698   6.907  1.0334  0.3445 -0.5534
  128OSM    H7T13690   1.214   3.572   7.017 -0.2466  2.7443  1.3709
  128OSM    C8S13691   1.022   3.633   7.064 -1.1150  0.3491 -0.0771
  128OSM    H8S13692   0.981   3.531   7.080 -1.2100  0.0024 -2.3434
  128OSM    H8T13693   0.942   3.699   7.023  0.1722  2.0955  0.1630
  128OSM    C9S13694   1.067   3.691   7.203 -0.2338  0.3142  0.3386
  128OSM    H9S13695   1.101   3.795   7.187  0.5583 -0.3228 -2.5346
  128OSM    H9T13696   1.156   3.641   7.247 -1.7624 -0.5233  2.5326
  128OSM   C10S13697   0.948   3.685   7.296  0.5861 -0.6781 -0.0169
  128OSM   H10S13698   0.938   3.575   7.311  0.4514 -0.7645 -0.7217
  128OSM   H10T13699   0.853   3.722   7.253  0.3693 -0.8590  0.3063
  128OSM   C11S13700   0.979   3.744   7.438 -0.2112 -0.0074  0.0102
  128OSM   H11S13701   1.015   3.848   7.431  0.6575 -0.2192  1.2966
  128OSM   H11T13702   1.066   3.685   7.475 -0.5653 -0.4005  0.2220
  128OSM   C12S13703   0.874   3.723   7.547  0.6614 -0.0255  0.6411
  128OSM   H12S13704   0.915   3.658   7.627 -1.2582 -2.1686 -0.0411
  128OSM   H12T13705   0.793   3.668   7.495  1.8141 -1.5655  0.4364
  128OSM   C13S13706   0.845   3.851   7.622  0.1985 -0.6989 -0.4119
  128OSM   H13S13707   0.931   3.899   7.672  0.3967  0.7160 -2.0676
  128OSM   H13T13708   0.770   3.824   7.699 -0.0267  0.5092 -0.1932
  128OSM   C14S13709   0.778   3.962   7.541  0.5439 -0.1003 -1.2376
  128OSM   H14S13710   0.713   3.899   7.475  2.0475 -1.3059 -1.6073
  128OSM   H14T13711   0.849   4.026   7.485  0.3489  0.4822 -0.8193
  128OSM   C15S13712   0.684   4.049   7.625 -0.3502  0.0376  0.0170
  128OSM   H15S13713   0.742   4.083   7.714 -0.0596  2.3652 -0.9999
  128OSM   H15T13714   0.598   3.988   7.660  0.4209 -0.9184  0.2747
  128OSM   C16S13715   0.642   4.176   7.547 -0.0726  0.0910 -0.2335
  128OSM   H16S13716   0.570   4.139   7.470 -1.2961  2.1245 -0.0891
  128OSM   H16T13717   0.727   4.217   7.489  0.9470 -1.4458  0.1182
  128OSM   C17S13718   0.562   4.276   7.620  0.5538  0.0747 -0.3735
  128OSM   H17S13719   0.539   4.366   7.559 -1.0816  0.2696  0.4854
  128OSM   H17T13720   0.616   4.319   7.707 -2.0750 -1.2289  2.0270
  128OSM   C18S13721   0.424   4.230   7.671 -0.2010 -0.6157 -0.0577
  128OSM   H18S13722   0.371   4.182   7.586 -1.8286 -1.5179  1.4110
  128OSM   H18T13723   0.351   4.297   7.723 -1.9787 -2.4504 -0.1007
  128OSM   H18U13724   0.437   4.159   7.755  0.7465  0.2654  0.5546
  128OSM    C1F13725   1.638   3.439   6.780  0.4899 -0.7490 -0.3481
  128OSM     OF13726   1.735   3.507   6.744  0.1710  0.6498 -0.0586
  128OSM    C2F13727   1.648   3.338   6.892  0.6247  0.1360  0.3044
  128OSM    H2F13728   1.723   3.369   6.967  0.4794  0.9902  0.1074
  128OSM    H2G13729   1.686   3.246   6.842 -0.0102 -0.5629  1.0916
  128OSM    C3F13730   1.513   3.327   6.967  0.2865  0.6514  0.0087
  128OSM    H3F13731   1.434   3.290   6.897 -0.0533  0.4271  0.5036
  128OSM    H3G13732   1.481   3.426   7.005  0.3777  0.5956  0.2285
  128OSM    C4F13733   1.504   3.247   7.096 -0.7651 -0.7920  0.3066
  128OSM    H4F13734   1.536   3.319   7.173  0.9408  1.2495 -2.1978
  128OSM    H4G13735   1.585   3.171   7.106  1.1119  1.3205  1.5819
  128OSM    C5F13736   1.365   3.187   7.113 -0.1673 -1.2962  0.2056
  128OSM    H5F13737   1.374   3.086   7.068  2.9341 -1.2660  0.6183
  128OSM    H5G13738   1.295   3.256   7.060 -0.3569 -0.0267  2.0561
  128OSM    C6F13739   1.323   3.183   7.261  0.6293 -0.4024  0.4108
  128OSM    H6F13740   1.398   3.130   7.324  1.0212  2.2192  2.2538
  128OSM    H6G13741   1.221   3.139   7.265  0.2653  0.5293  1.6548
  128OSM    C7F13742   1.307   3.323   7.326  0.3528  0.2134 -0.2958
  128OSM    H7F13743   1.249   3.381   7.250 -0.7446 -1.4474 -0.7494
  128OSM    H7G13744   1.409   3.363   7.343  1.0788 -1.2221 -1.2093
  128OSM    C8F13745   1.220   3.323   7.459  0.4213 -0.4207  0.2681
  128OSM    H8F13746   1.124   3.269   7.441  0.9071 -0.2228 -3.3271
  128OSM    H8G13747   1.190   3.428   7.481 -0.2539  0.1438 -3.0531
  128OSM    C9F13748   1.293   3.252   7.570  0.4113  0.5220 -0.4720
  128OSM    H9F13749   1.396   3.287   7.579  0.1731  1.0763  0.1556
  128OSM   C10F13750   1.255   3.144   7.643 -0.1167 -0.6397 -0.0076
  128OSM   H10F13751   1.323   3.114   7.724  0.3419  0.5097  0.0415
  128OSM   C11F13752   1.127   3.074   7.628 -0.1341  0.2068  0.2308
  128OSM   H11F13753   1.145   2.971   7.591  2.4271  1.0888 -1.0763
  128OSM   H11G13754   1.051   3.123   7.564 -0.9434 -0.0402  0.9838
  128OSM   C12F13755   1.037   3.085   7.756  0.3481 -0.8241 -0.0017
  128OSM   H12F13756   0.944   3.027   7.738  0.1125 -0.7552  0.9463
  128OSM   H12G13757   1.005   3.191   7.769 -1.3515 -1.2452 -0.6709
  128OSM   C13F13758   1.100   3.010   7.877 -0.3165 -0.0363 -0.6256
  128OSM   H13F13759   1.204   3.042   7.898 -0.6195  1.4991 -1.3621
  128OSM   H13G13760   1.114   2.902   7.856 -1.6172  0.0919 -2.2972
  128OSM   C14F13761   1.027   3.037   8.008 -0.9685 -0.5798 -0.5463
  128OSM   H14F13762   0.917   3.025   7.999 -1.0406 -1.2485  0.9808
  128OSM   H14G13763   1.031   3.144   8.038 -3.7864 -0.9258  1.2528
  128OSM   C15F13764   1.071   2.941   8.120  1.1155  0.6428 -0.1280
  128OSM   H15F13765   1.180   2.956   8.131  1.4869 -1.2726 -1.0794
  128OSM   H15G13766   1.055   2.835   8.091  1.8102 -0.1851  2.3881
  128OSM   C16F13767   0.991   2.965   8.253  0.0761 -0.6622  0.2424
  128OSM   H16F13768   0.881   2.955   8.243  0.0684 -1.5841  1.1992
  128OSM   H16G13769   0.994   3.068   8.293 -2.3261 -0.3149 -0.4075
  128OSM   C17F13770   1.042   2.864   8.352  0.1148  1.3385  0.6848
  128OSM   H17F13771   1.152   2.878   8.367 -0.0261 -0.5536  3.8075
  128OSM   H17G13772   1.022   2.762   8.312 -0.9184  0.5618  3.0706
  128OSM   C18F13773   0.973   2.883   8.494  0.0516  0.9821 -0.0007
  128OSM   H18F13774   0.980   2.785   8.546 -1.7086  0.4752 -0.7176
  128OSM   H18G13775   0.866   2.910   8.483 -1.1830 -2.6285  2.2314
  128OSM   H18H13776   1.026   2.964   8.549  0.5282 -0.2474  1.3750
  129OSM      N13777   6.700   6.432   6.197 -0.0764  0.4376  0.4369
  129OSM    C1513778   6.597   6.320   6.202  0.1032  0.2559  0.1976
  129OSM   H15A13779   6.561   6.301   6.103  0.5142 -1.6831  0.3965
  129OSM   H15B13780   6.509   6.344   6.260 -0.2816  0.0597 -0.3083
  129OSM   H15C13781   6.642   6.227   6.232  1.1857  1.4418  2.4392
  129OSM    C1413782   6.771   6.443   6.329  0.2274 -0.1881 -0.1315
  129OSM   H14A13783   6.708   6.493   6.402 -0.4048 -1.0490 -0.0786
  129OSM   H14B13784   6.858   6.506   6.327 -0.1500  0.3209 -0.7550
  129OSM   H14C13785   6.803   6.348   6.371  2.0909 -0.2545 -1.6294
  129OSM    C1313786   6.799   6.385   6.091  0.4515  0.3108 -0.0900
  129OSM   H13A13787   6.819   6.280   6.107  2.4941 -0.0479 -4.4027
  129OSM   H13B13788   6.884   6.449   6.076  0.3451  0.0973 -1.6815
  129OSM   H13C13789   6.746   6.383   5.997 -0.2035  2.4532  0.2104
  129OSM    C1213790   6.630   6.558   6.156  0.1609 -0.0803 -0.6290
  129OSM   H12A13791   6.589   6.534   6.059 -2.2899 -1.8834  0.8083
  129OSM   H12B13792   6.700   6.637   6.132 -0.0961  0.3846  0.1330
  129OSM    C1113793   6.523   6.618   6.255  0.4648 -0.2915  0.2109
  129OSM   H11A13794   6.487   6.721   6.232 -2.5538 -1.4578 -0.4866
  129OSM   H11B13795   6.577   6.628   6.352  0.6742  0.2708  0.0382
  129OSM      P13796   6.295   6.509   6.175  0.1063  0.2117 -0.3938
  129OSM    O1313797   6.272   6.635   6.104 -0.6064 -0.2260  0.1339
  129OSM    O1413798   6.316   6.388   6.093 -0.2946 -0.5639 -0.2757
  129OSM    O1113799   6.168   6.489   6.273  0.3766  1.0390 -0.3826
  129OSM    O1213800   6.411   6.524   6.279 -0.0153 -0.3169  0.5469
  129OSM    C1S13801   6.153   6.384   6.366 -0.0858  0.1789 -0.3041
  129OSM    H1S13802   6.198   6.289   6.332  0.7736 -0.1138  1.6559
  129OSM    H1T13803   6.049   6.348   6.351 -0.0664 -0.3554  0.8371
  129OSM     NF13804   6.164   6.299   6.592  0.4984 -0.5236  0.0896
  129OSM    HNF13805   6.080   6.287   6.645 -0.1494 -1.3167 -1.0862
  129OSM    C2S13806   6.173   6.417   6.515 -0.8557 -0.8419  0.0219
  129OSM    H2S13807   6.282   6.440   6.518 -0.5939 -2.1842  1.3893
  129OSM    C3S13808   6.076   6.529   6.553  0.5228  0.2972 -0.0904
  129OSM    H3S13809   5.969   6.501   6.541  0.5568 -0.6996  1.7220
  129OSM     O313810   6.087   6.641   6.471  0.1968 -0.2681 -0.6696
  129OSM    HO313811   6.106   6.590   6.392 -0.2398 -0.2361 -0.7971
  129OSM    C4S13812   6.108   6.555   6.700 -0.5659  0.2439 -0.3412
  129OSM    H4S13813   6.030   6.537   6.776 -0.9941  2.3764 -0.2192
  129OSM    C5S13814   6.209   6.634   6.738  0.1148  0.1852 -0.6028
  129OSM    H5S13815   6.274   6.685   6.664 -0.9995  0.0282 -1.7064
  129OSM    C6S13816   6.241   6.657   6.882  0.1442  0.6697 -0.4987
  129OSM    H6S13817   6.212   6.762   6.903 -1.1158  0.4883 -1.2243
  129OSM    H6T13818   6.347   6.636   6.906  0.5861  2.8780 -0.4555
  129OSM    C7S13819   6.176   6.556   6.973  0.4019 -0.8318 -0.2761
  129OSM    H7S13820   6.205   6.451   6.953  0.5621 -0.8132 -0.1397
  129OSM    H7T13821   6.065   6.568   6.968  0.2852 -1.9319 -0.5097
  129OSM    C8S13822   6.233   6.577   7.118 -0.1589 -0.2996  1.0015
  129OSM    H8S13823   6.242   6.684   7.143 -1.5491  1.1166 -3.9003
  129OSM    H8T13824   6.340   6.546   7.112 -0.2032 -0.0215 -1.8414
  129OSM    C9S13825   6.139   6.512   7.217 -0.1308 -0.2052  0.3296
  129OSM    H9S13826   6.087   6.422   7.177 -0.8198 -0.6382  2.1225
  129OSM    H9T13827   6.057   6.580   7.250  1.4912  0.9390  2.1317
  129OSM   C10S13828   6.214   6.486   7.350 -0.3192  0.0324  0.0680
  129OSM   H10S13829   6.246   6.585   7.390  1.3290 -0.5645  0.2503
  129OSM   H10T13830   6.299   6.416   7.339 -0.5855 -0.1653 -0.7361
  129OSM   C11S13831   6.105   6.424   7.437  0.1576 -0.1504 -0.2233
  129OSM   H11S13832   6.048   6.337   7.397 -1.1340  1.5318 -2.1243
  129OSM   H11T13833   6.039   6.507   7.469  0.8441  0.7827 -1.2084
  129OSM   C12S13834   6.156   6.361   7.567  0.2205  0.2223  0.0027
  129OSM   H12S13835   6.230   6.283   7.541 -0.3577  0.0829 -1.2759
  129OSM   H12T13836   6.071   6.317   7.622 -0.5723  2.3659  0.5531
  129OSM   C13S13837   6.227   6.465   7.652  0.0981 -0.1327  0.0647
  129OSM   H13S13838   6.163   6.555   7.655 -1.5885 -1.3192  0.8117
  129OSM   H13T13839   6.324   6.488   7.602  0.6707  1.0735  1.6801
  129OSM   C14S13840   6.236   6.428   7.789  0.0476  0.1242 -0.1866
  129OSM   H14S13841   6.145   6.374   7.823 -1.2241  3.0730  1.2375
  129OSM   H14T13842   6.247   6.519   7.852 -2.7311  1.1563 -1.1077
  129OSM   C15S13843   6.339   6.321   7.824  0.2171  0.0443  0.6233
  129OSM   H15S13844   6.438   6.343   7.778  0.9889 -0.6901  1.8696
  129OSM   H15T13845   6.314   6.220   7.785 -3.8144  2.2574 -2.8286
  129OSM   C16S13846   6.353   6.308   7.972 -0.3724  0.8182 -0.2292
  129OSM   H16S13847   6.250   6.294   8.012 -0.5479  1.7766 -0.3354
  129OSM   H16T13848   6.393   6.397   8.025 -1.2834  0.9385  0.2542
  129OSM   C17S13849   6.440   6.198   8.019 -0.0370 -0.5963 -0.1350
  129OSM   H17S13850   6.546   6.230   8.011  0.2553 -1.4371  0.3821
  129OSM   H17T13851   6.424   6.104   7.963 -0.5402 -0.4214 -0.2834
  129OSM   C18S13852   6.430   6.162   8.170 -0.0203  0.5148  0.5399
  129OSM   H18S13853   6.327   6.151   8.210  0.4695 -0.5772  1.5427
  129OSM   H18T13854   6.493   6.236   8.223  0.3573 -0.5263  1.5887
  129OSM   H18U13855   6.468   6.058   8.184 -2.7265 -0.8399 -1.6115
  129OSM    C1F13856   6.257   6.204   6.581 -0.1840 -0.8802 -0.2682
  129OSM     OF13857   6.364   6.220   6.530 -0.5611  0.4077 -0.1286
  129OSM    C2F13858   6.222   6.082   6.658 -0.0323 -0.3566  0.2085
  129OSM    H2F13859   6.115   6.055   6.641 -0.6568  1.4045  1.2286
  129OSM    H2G13860   6.234   6.083   6.769 -2.2504 -1.6288  0.4964
  129OSM    C3F13861   6.310   5.960   6.613 -1.0882 -0.3043  0.6304
  129OSM    H3F13862   6.415   5.979   6.644 -1.2481  0.9390  0.4169
  129OSM    H3G13863   6.297   5.952   6.503 -1.7600 -2.5670  0.8418
  129OSM    C4F13864   6.262   5.827   6.675  0.1664 -0.2002 -0.2639
  129OSM    H4F13865   6.325   5.745   6.634  0.5097 -0.3161  0.4793
  129OSM    H4G13866   6.157   5.805   6.649 -0.1690  0.8548  0.1488
  129OSM    C5F13867   6.280   5.825   6.827  0.2560  0.3751 -0.6403
  129OSM    H5F13868   6.181   5.853   6.868 -0.2852 -1.3362 -0.7639
  129OSM    H5G13869   6.344   5.907   6.868 -1.9028  0.3389  3.0360
  129OSM    C6F13870   6.348   5.705   6.879 -0.7892  1.3534 -0.4293
  129OSM    H6F13871   6.451   5.700   6.837 -1.4703 -1.0691 -1.8699
  129OSM    H6G13872   6.287   5.615   6.859  2.3378 -0.8215 -0.5732
  129OSM    C7F13873   6.371   5.711   7.035 -0.6385 -0.7637 -0.2425
  129OSM    H7F13874   6.278   5.733   7.093  0.3512  0.3879  0.9421
  129OSM    H7G13875   6.426   5.807   7.047 -1.4828 -0.0554 -1.7762
  129OSM    C8F13876   6.460   5.599   7.102  0.2246 -0.7277 -0.2273
  129OSM    H8F13877   6.497   5.634   7.201 -0.2026  0.2503 -0.4104
  129OSM    H8G13878   6.543   5.569   7.034 -0.6311 -3.3259 -0.1974
  129OSM    C9F13879   6.364   5.493   7.110  0.0013  0.0030 -1.0211
  129OSM    H9F13880   6.356   5.420   7.028 -1.0404 -1.9460  0.7736
  129OSM   C10F13881   6.289   5.468   7.214  0.6635 -0.5791  0.3828
  129OSM   H10F13882   6.224   5.379   7.215 -0.7061  0.4037  0.1440
  129OSM   C11F13883   6.282   5.555   7.338 -0.0505  0.4889  0.4110
  129OSM   H11F13884   6.179   5.593   7.352 -0.3725 -0.9116  1.9732
  129OSM   H11G13885   6.347   5.645   7.344  3.3378 -1.8827  1.2087
  129OSM   C12F13886   6.308   5.470   7.463 -0.4571 -0.4332  0.2095
  129OSM   H12F13887   6.230   5.391   7.462 -0.8441 -0.0525  0.3899
  129OSM   H12G13888   6.288   5.532   7.553  0.0863  1.8884 -1.2428
  129OSM   C13F13889   6.442   5.404   7.499  0.5827 -0.7455 -0.2621
  129OSM   H13F13890   6.520   5.481   7.513 -1.7931  1.3317  1.8823
  129OSM   H13G13891   6.466   5.337   7.413 -1.1230 -0.6171 -0.8589
  129OSM   C14F13892   6.437   5.317   7.629 -0.1547 -0.3572  0.3515
  129OSM   H14F13893   6.505   5.233   7.602 -2.3644 -0.9490 -3.7512
  129OSM   H14G13894   6.333   5.281   7.638 -0.1857 -0.5428 -0.7163
  129OSM   C15F13895   6.476   5.382   7.759 -0.5361  0.2306  0.0582
  129OSM   H15F13896   6.402   5.457   7.794 -0.2626  0.3695  0.3438
  129OSM   H15G13897   6.572   5.436   7.741 -2.6269  3.0273 -3.5539
  129OSM   C16F13898   6.492   5.274   7.861  0.3045 -0.0735  0.7828
  129OSM   H16F13899   6.601   5.265   7.878  0.5069  1.2942  0.3267
  129OSM   H16G13900   6.449   5.181   7.819  1.2215  0.5794 -1.7307
  129OSM   C17F13901   6.426   5.304   7.999  0.0720  0.4627  0.1020
  129OSM   H17F13902   6.424   5.213   8.064 -1.6684 -0.6715 -1.4715
  129OSM   H17G13903   6.318   5.320   7.980  0.0169 -3.0342 -3.0313
  129OSM   C18F13904   6.508   5.415   8.069  0.6052  0.7182  0.0079
  129OSM   H18F13905   6.606   5.376   8.105 -0.0630 -2.1425 -1.1641
  129OSM   H18G13906   6.451   5.441   8.161  0.8679 -0.6597  0.5606
  129OSM   H18H13907   6.517   5.512   8.014 -1.5368  1.6516  1.2339
  130OSM      N13908   6.568   2.426   5.842 -0.3738 -0.3447  0.2868
  130OSM    C1513909   6.528   2.279   5.812  0.8510  0.1673  0.4400
  130OSM   H15A13910   6.422   2.271   5.799  0.8585  0.4755  0.1832
  130OSM   H15B13911   6.570   2.218   5.890 -1.0456 -0.7654  0.7521
  130OSM   H15C13912   6.568   2.257   5.714 -0.9648 -0.8511 -0.1002
  130OSM    C1413913   6.494   2.517   5.755  0.1398 -0.2698 -0.3831
  130OSM   H14A13914   6.394   2.530   5.792  0.3912  3.0220 -0.6918
  130OSM   H14B13915   6.504   2.485   5.652 -0.2732  1.8819 -1.1166
  130OSM   H14C13916   6.545   2.612   5.767 -1.5510  0.8087 -1.4353
  130OSM    C1313917   6.526   2.456   5.980 -0.5037 -0.0805  0.2974
  130OSM   H13A13918   6.424   2.420   5.987 -1.6113  2.4707 -2.0098
  130OSM   H13B13919   6.527   2.562   5.999 -1.4818 -0.1059  0.5140
  130OSM   H13C13920   6.589   2.400   6.047  2.4717 -0.1920 -2.4758
  130OSM    C1213921   6.720   2.447   5.819 -0.3604  0.0357  0.2121
  130OSM   H12A13922   6.751   2.548   5.842 -0.6325  0.4168 -1.0771
  130OSM   H12B13923   6.749   2.433   5.716  1.9205 -0.7844  0.9290
  130OSM    C1113924   6.818   2.353   5.900 -0.4768  0.8664 -0.9847
  130OSM   H11A13925   6.916   2.382   5.856  0.4199 -0.8581 -0.1471
  130OSM   H11B13926   6.806   2.245   5.878 -1.3136  0.2099  2.4407
  130OSM      P13927   6.896   2.307   6.142 -0.1764  0.3166  0.0274
  130OSM    O1313928   6.817   2.189   6.179  0.7794  0.6733  0.3121
  130OSM    O1413929   7.030   2.288   6.083  0.2057  0.3024 -0.1340
  130OSM    O1113930   6.911   2.405   6.261  0.0011 -0.1115 -0.7510
  130OSM    O1213931   6.812   2.386   6.040 -0.4418 -0.1208 -0.1811
  130OSM    C1S13932   6.787   2.456   6.316 -0.1436 -0.0723 -0.5272
  130OSM    H1S13933   6.713   2.375   6.327  1.8328 -1.8734 -0.0618
  130OSM    H1T13934   6.758   2.548   6.261  0.3371 -0.0707 -0.7902
  130OSM     NF13935   6.690   2.530   6.539 -0.1221  0.6815  0.1499
  130OSM    HNF13936   6.666   2.623   6.566 -0.8541 -0.0031  1.8610
  130OSM    C2S13937   6.813   2.501   6.466 -0.1748  0.4559 -0.4419
  130OSM    H2S13938   6.872   2.423   6.519  2.0130  2.0545 -0.4728
  130OSM    C3S13939   6.911   2.628   6.462  0.1381 -0.6615 -0.4572
  130OSM    H3S13940   6.853   2.708   6.412  2.8581  1.1439 -0.8373
  130OSM     O313941   7.023   2.618   6.371  0.1132 -0.2159 -0.4942
  130OSM    HO313942   7.001   2.539   6.322 -0.7780  0.1128 -0.6278
  130OSM    C4S13943   6.952   2.675   6.595  0.7018  0.0967  0.5675
  130OSM    H4S13944   6.885   2.746   6.645 -0.2938 -1.5998  1.7082
  130OSM    C5S13945   7.058   2.628   6.654  0.3367  0.5992 -0.3131
  130OSM    H5S13946   7.129   2.566   6.597 -0.2159  0.1821 -0.5524
  130OSM    C6S13947   7.115   2.655   6.788 -0.0430 -0.6822  0.6333
  130OSM    H6S13948   7.146   2.761   6.800  0.3397 -1.0108  2.7185
  130OSM    H6T13949   7.202   2.588   6.805  1.3936  0.9003 -0.4183
  130OSM    C7S13950   7.010   2.612   6.887  0.1869  0.2846 -0.1562
  130OSM    H7S13951   6.932   2.544   6.845  1.6710  0.3782 -3.1640
  130OSM    H7T13952   6.961   2.708   6.913 -1.3963 -0.6292  0.3366
  130OSM    C8S13953   7.063   2.572   7.026  0.1172  0.1797 -0.8404
  130OSM    H8S13954   7.146   2.643   7.047 -0.5704  0.8535 -0.3874
  130OSM    H8T13955   7.097   2.467   7.039 -1.0890 -0.2353 -1.0283
  130OSM    C9S13956   6.962   2.614   7.140  0.4112 -0.0482 -0.1202
  130OSM    H9S13957   6.868   2.557   7.128 -0.9256  1.8301  1.1005
  130OSM    H9T13958   6.919   2.716   7.125  0.5868  0.2429  1.2920
  130OSM   C10S13959   7.012   2.593   7.287  0.6628  0.3615  0.1992
  130OSM   H10S13960   7.123   2.586   7.297  0.7007 -0.6631 -0.9296
  130OSM   H10T13961   6.972   2.493   7.311 -0.0215  0.6865  0.4303
  130OSM   C11S13962   6.953   2.696   7.385 -0.5193  0.9068  0.2619
  130OSM   H11S13963   6.848   2.723   7.359 -1.2270 -0.7556  1.2890
  130OSM   H11T13964   7.020   2.785   7.390  2.4286 -1.2105 -0.4774
  130OSM   C12S13965   6.942   2.639   7.532 -0.0134 -0.5988 -0.3063
  130OSM   H12S13966   7.031   2.579   7.560  1.3387  0.8316 -1.4380
  130OSM   H12T13967   6.855   2.570   7.533  0.9652 -1.8298  0.9629
  130OSM   C13S13968   6.936   2.749   7.638 -0.6908 -0.0277 -0.0194
  130OSM   H13S13969   6.854   2.819   7.613  0.2853  1.5211  0.9998
  130OSM   H13T13970   7.028   2.812   7.633 -0.0417 -0.7431  2.0883
  130OSM   C14S13971   6.907   2.709   7.784 -0.1647  0.4096  0.0280
  130OSM   H14S13972   6.799   2.692   7.801 -0.2951  1.3578  0.1849
  130OSM   H14T13973   6.944   2.800   7.836  0.5883 -0.5207  1.1631
  130OSM   C15S13974   6.981   2.585   7.838  0.2375  0.3513  0.2805
  130OSM   H15S13975   7.084   2.580   7.796  0.4956 -3.7305  1.2330
  130OSM   H15T13976   6.917   2.502   7.801 -0.4616  0.5201  1.1051
  130OSM   C16S13977   6.973   2.573   7.987 -0.2239  0.4137 -0.8214
  130OSM   H16S13978   6.873   2.544   8.025  0.1018  0.5766  0.1707
  130OSM   H16T13979   6.998   2.675   8.022  1.3969  0.0700 -0.9282
  130OSM   C17S13980   7.076   2.467   8.048 -0.2379  0.3952 -0.5655
  130OSM   H17S13981   7.178   2.511   8.040  0.9100 -2.0659 -0.2292
  130OSM   H17T13982   7.083   2.363   8.009 -0.1472  0.1485  0.1005
  130OSM   C18S13983   7.059   2.467   8.204 -0.1491  0.1246  0.7027
  130OSM   H18S13984   7.154   2.447   8.258  0.3397  2.2420  0.6840
  130OSM   H18T13985   6.988   2.388   8.238  2.1224 -1.9855  0.6162
  130OSM   H18U13986   7.019   2.568   8.225  0.3770  0.5652 -0.3868
  130OSM    C1F13987   6.608   2.426   6.579  0.6908  1.3035 -0.1136
  130OSM     OF13988   6.645   2.312   6.559 -0.0221 -1.2401 -0.2505
  130OSM    C2F13989   6.472   2.451   6.636  0.1120  0.2773 -0.2885
  130OSM    H2F13990   6.395   2.387   6.589  0.2066  0.6138 -0.8980
  130OSM    H2G13991   6.461   2.558   6.608 -0.4795  0.1714 -0.4633
  130OSM    C3F13992   6.473   2.450   6.788  0.4730  0.3105 -0.2554
  130OSM    H3F13993   6.436   2.543   6.836 -1.9701  0.0991 -1.6508
  130OSM    H3G13994   6.574   2.439   6.833  0.3333  2.7251  0.7016
  130OSM    C4F13995   6.375   2.352   6.843  0.7652  0.0359 -0.3921
  130OSM    H4F13996   6.404   2.250   6.810 -1.5430 -1.4860  2.1127
  130OSM    H4G13997   6.282   2.378   6.789  0.6606 -0.6655 -0.5538
  130OSM    C5F13998   6.365   2.358   6.997 -0.0741  0.0223  0.2432
  130OSM    H5F13999   6.381   2.462   7.031  1.3843 -0.3151  0.6349
  130OSM    H5G14000   6.448   2.310   7.054 -2.6782 -2.0493  2.4196
  130OSM    C6F14001   6.234   2.316   7.048 -0.5508 -0.1322  0.4840
  130OSM    H6F14002   6.171   2.244   6.992 -0.3168 -0.1841  0.2886
  130OSM    H6G14003   6.172   2.406   7.070  1.4282  1.2004  0.7079
  130OSM    C7F14004   6.243   2.248   7.181 -0.3798  0.8083 -0.0656
  130OSM    H7F14005   6.316   2.166   7.163 -0.7936  0.5719 -0.6932
  130OSM    H7G14006   6.143   2.206   7.205 -1.2266  3.2403  0.8332
  130OSM    C8F14007   6.279   2.351   7.293 -0.7939 -0.0117  0.0005
  130OSM    H8F14008   6.356   2.427   7.268 -1.2322 -0.2344 -2.1307
  130OSM    H8G14009   6.332   2.288   7.368  0.3020 -1.2099 -1.7456
  130OSM    C9F14010   6.164   2.424   7.345  0.6429 -0.1225 -0.0395
  130OSM    H9F14011   6.112   2.471   7.260  1.5856 -0.9217 -1.0655
  130OSM   C10F14012   6.100   2.415   7.468  0.1758 -0.3430  0.0417
  130OSM   H10F14013   6.003   2.465   7.486  0.3682  1.0679 -2.6624
  130OSM   C11F14014   6.151   2.330   7.577 -0.0984  0.4608 -0.0833
  130OSM   H11F14015   6.240   2.271   7.546 -1.2814 -1.0814 -0.6470
  130OSM   H11G14016   6.078   2.247   7.590 -0.1575  0.4885 -0.2389
  130OSM   C12F14017   6.178   2.403   7.708 -1.0111 -0.0210  0.3668
  130OSM   H12F14018   6.083   2.450   7.742  0.3454  1.7762  1.7155
  130OSM   H12G14019   6.247   2.485   7.680 -1.8287  0.5989  0.1330
  130OSM   C13F14020   6.241   2.316   7.819  0.2325  0.7026  0.2557
  130OSM   H13F14021   6.309   2.239   7.779 -0.1359 -1.0666  2.8985
  130OSM   H13G14022   6.159   2.256   7.864 -0.2280  1.0444 -0.1212
  130OSM   C14F14023   6.321   2.397   7.925  0.3219 -0.7365 -0.3250
  130OSM   H14F14024   6.397   2.469   7.889  0.5757 -0.7971  0.0843
  130OSM   H14G14025   6.366   2.320   7.990 -0.3492 -1.8271 -1.1333
  130OSM   C15F14026   6.218   2.480   8.001 -0.0051  1.1929  0.3527
  130OSM   H15F14027   6.126   2.419   8.006 -0.3355  1.5846 -0.8142
  130OSM   H15G14028   6.194   2.565   7.934  0.2737  2.4611  1.8181
  130OSM   C16F14029   6.258   2.545   8.130 -0.0824 -0.1761  0.0359
  130OSM   H16F14030   6.369   2.551   8.130 -0.1172  0.4851 -0.8470
  130OSM   H16G14031   6.223   2.468   8.202  0.0690 -2.1025 -1.9219
  130OSM   C17F14032   6.191   2.683   8.162 -0.2867  0.5538  0.2079
  130OSM   H17F14033   6.084   2.651   8.167  0.2169 -1.1822  0.4200
  130OSM   H17G14034   6.213   2.751   8.077 -2.3786 -0.3162 -1.0815
  130OSM   C18F14035   6.246   2.753   8.286 -0.0475  0.3118 -0.7531
  130OSM   H18F14036   6.343   2.794   8.254  0.1292 -0.5673 -1.3501
  130OSM   H18G14037   6.254   2.682   8.371 -1.5773 -0.2773 -1.0729
  130OSM   H18H14038   6.181   2.838   8.318  1.2619  1.2765 -0.6437
  131OSM      N14039   0.702   0.670   5.718 -0.1319  0.7825  0.2339
  131OSM    C1514040   0.701   0.757   5.598  0.2208 -0.2146 -0.2705
  131OSM   H15A14041   0.744   0.854   5.620  0.3293  0.0738 -1.7121
  131OSM   H15B14042   0.605   0.774   5.553  0.4591  2.8244  0.2019
  131OSM   H15C14043   0.770   0.718   5.524  1.2134  1.8081 -0.4734
  131OSM    C1414044   0.622   0.557   5.689 -0.5906 -0.4268  0.2239
  131OSM   H14A14045   0.517   0.580   5.681 -0.1057  2.0748  0.7281
  131OSM   H14B14046   0.612   0.487   5.771  0.1997 -1.5829 -0.6361
  131OSM   H14C14047   0.650   0.508   5.597 -0.5590 -0.0255  0.0185
  131OSM    C1314048   0.846   0.629   5.742 -0.4516 -0.0482 -0.3409
  131OSM   H13A14049   0.903   0.717   5.769 -0.4804  0.2422 -1.2150
  131OSM   H13B14050   0.903   0.592   5.659  1.9694  1.5626  0.5577
  131OSM   H13C14051   0.856   0.562   5.826  1.3906 -0.5840 -0.9614
  131OSM    C1214052   0.648   0.737   5.849 -0.4482  0.6370  0.1832
  131OSM   H12A14053   0.541   0.749   5.840 -0.4044 -1.0214 -2.9909
  131OSM   H12B14054   0.699   0.833   5.854  0.5651  0.1606 -0.7523
  131OSM    C1114055   0.652   0.667   5.984  0.1682  0.0927  0.0006
  131OSM   H11A14056   0.610   0.733   6.063  1.7997  3.5157 -1.8757
  131OSM   H11B14057   0.754   0.640   6.019  0.3229 -2.3185 -2.1469
  131OSM      P14058   0.426   0.558   6.021  0.2591 -0.2721  0.1630
  131OSM    O1314059   0.355   0.666   5.951  0.0780  0.2861 -0.3666
  131OSM    O1414060   0.358   0.429   6.004 -0.2508  0.1821 -0.2554
  131OSM    O1114061   0.441   0.589   6.174 -0.4281 -0.1851  0.3920
  131OSM    O1214062   0.574   0.546   5.973 -0.4453 -0.2053 -0.0609
  131OSM    C1S14063   0.517   0.524   6.271  0.3030  0.4530  0.0929
  131OSM    H1S14064   0.625   0.551   6.276  0.5476 -0.2795 -0.9174
  131OSM    H1T14065   0.516   0.415   6.251 -2.5355  0.2097  1.3621
  131OSM     NF14066   0.539   0.527   6.515 -0.5030 -0.1386  0.0511
  131OSM    HNF14067   0.534   0.441   6.566  0.5090  0.3051  0.9159
  131OSM    C2S14068   0.445   0.536   6.407 -0.0042 -0.1228 -0.0283
  131OSM    H2S14069   0.396   0.636   6.417 -1.5953 -0.9271  0.4411
  131OSM    C3S14070   0.326   0.434   6.408 -0.6911 -0.1365  0.5352
  131OSM    H3S14071   0.364   0.331   6.390 -2.5828 -0.7102 -0.2758
  131OSM     O314072   0.248   0.441   6.289 -0.3718  0.0844 -0.8782
  131OSM    HO314073   0.304   0.490   6.228  0.6134  0.2958  0.1738
  131OSM    C4S14074   0.247   0.434   6.532  0.3560 -0.6445 -0.4549
  131OSM    H4S14075   0.295   0.371   6.609  0.7128  2.8631  2.3419
  131OSM    C5S14076   0.134   0.505   6.556  0.4160 -0.1017  0.3461
  131OSM    H5S14077   0.094   0.578   6.485  0.9659  0.6541  0.8089
  131OSM    C6S14078   0.053   0.489   6.680  0.3547 -0.4614  0.0398
  131OSM    H6S14079  -0.044   0.444   6.649 -0.2001 -0.3760  1.5837
  131OSM    H6T14080   0.027   0.585   6.731 -1.7988 -0.6547 -0.6212
  131OSM    C7S14081   0.096   0.398   6.802  0.1543 -0.3967  0.4159
  131OSM    H7S14082   0.203   0.418   6.820  0.3890 -0.5805 -0.7919
  131OSM    H7T14083   0.069   0.291   6.786  0.8645 -0.5511  0.2461
  131OSM    C8S14084   0.017   0.429   6.939  0.1407  0.1916  0.1441
  131OSM    H8S14085  -0.092   0.413   6.925  0.5824  1.2228 -5.9219
  131OSM    H8T14086   0.028   0.540   6.940  1.6606  0.0652 -1.3004
  131OSM    C9S14087   0.065   0.370   7.066  0.7029 -0.4586  0.1254
  131OSM    H9S14088   0.175   0.379   7.080  0.5136  0.0473  1.4375
  131OSM    H9T14089   0.058   0.259   7.063  0.6820 -0.5944  3.0091
  131OSM   C10S14090   0.006   0.436   7.198 -0.2713  0.0479 -0.0824
  131OSM   H10S14091  -0.103   0.434   7.181 -0.3128  0.4121  0.1457
  131OSM   H10T14092   0.035   0.543   7.200  2.6486 -0.6824  0.3273
  131OSM   C11S14093   0.048   0.364   7.326  0.7856 -0.1218  0.3087
  131OSM   H11S14094   0.106   0.271   7.305 -2.5655 -1.8742 -1.5659
  131OSM   H11T14095  -0.041   0.326   7.381 -0.0675 -0.7076 -1.4457
  131OSM   C12S14096   0.140   0.459   7.407  0.3388 -0.2159  0.4989
  131OSM   H12S14097   0.098   0.557   7.441  0.7877  0.3091 -0.4431
  131OSM   H12T14098   0.218   0.485   7.334 -0.5741 -0.7095 -0.6672
  131OSM   C13S14099   0.207   0.389   7.527  0.1383  0.1798 -0.2187
  131OSM   H13S14100   0.300   0.443   7.555  1.6095 -1.7257 -1.3148
  131OSM   H13T14101   0.252   0.292   7.497 -1.5917 -1.1100  1.2878
  131OSM   C14S14102   0.118   0.363   7.646  0.2205  0.1297 -0.8672
  131OSM   H14S14103   0.031   0.302   7.615 -0.0716 -1.4684  2.8477
  131OSM   H14T14104   0.070   0.457   7.681 -1.2924 -1.5152  1.5751
  131OSM   C15S14105   0.198   0.288   7.756  0.5164  0.3285  0.4561
  131OSM   H15S14106   0.278   0.358   7.789  2.4006 -0.8202 -1.5234
  131OSM   H15T14107   0.252   0.207   7.702  0.1018  1.1493 -1.2317
  131OSM   C16S14108   0.114   0.241   7.883 -0.1278  0.3926  0.3862
  131OSM   H16S14109   0.182   0.176   7.941  0.7640  2.1746  1.4048
  131OSM   H16T14110   0.026   0.179   7.856 -0.4973  0.8755  0.4599
  131OSM   C17S14111   0.054   0.353   7.963 -0.5513 -1.0932  0.3791
  131OSM   H17S14112  -0.018   0.401   7.893  2.7354  0.9260 -1.7771
  131OSM   H17T14113   0.123   0.437   7.984 -0.9874 -1.3110  2.8776
  131OSM   C18S14114  -0.006   0.319   8.098  0.3261 -1.1737  0.9368
  131OSM   H18S14115  -0.091   0.253   8.069 -1.3238 -0.2501  3.5579
  131OSM   H18T14116  -0.034   0.413   8.150  0.3588 -0.4795 -0.2751
  131OSM   H18U14117   0.061   0.260   8.164 -1.9878 -2.4942  2.1649
  131OSM    C1F14118   0.625   0.623   6.548  0.3711 -0.0414 -0.5920
  131OSM     OF14119   0.639   0.717   6.471  0.1707 -0.0382 -0.3420
  131OSM    C2F14120   0.696   0.613   6.686  0.0909 -0.1416 -0.5508
  131OSM    H2F14121   0.630   0.665   6.758 -1.9740 -1.5919 -1.3250
  131OSM    H2G14122   0.792   0.669   6.677  1.0321 -1.7491 -0.7417
  131OSM    C3F14123   0.714   0.467   6.738  0.7345  0.2369 -0.2716
  131OSM    H3F14124   0.781   0.404   6.676  1.2584 -2.0876  2.5113
  131OSM    H3G14125   0.616   0.414   6.733 -0.0737  1.6305  0.5640
  131OSM    C4F14126   0.768   0.456   6.889  0.3000 -0.5508 -0.5227
  131OSM    H4F14127   0.759   0.351   6.923 -2.6825 -0.4088 -0.7419
  131OSM    H4G14128   0.708   0.528   6.950 -0.8218 -1.3542 -0.6579
  131OSM    C5F14129   0.913   0.508   6.898  0.0183  0.5860  0.4620
  131OSM    H5F14130   0.925   0.610   6.856  0.4893  0.6238  0.6850
  131OSM    H5G14131   0.971   0.434   6.838 -0.2686  1.8470 -1.3974
  131OSM    C6F14132   0.974   0.508   7.037  0.4519 -0.1786  0.5106
  131OSM    H6F14133   0.972   0.401   7.069 -0.0479 -0.5165 -0.6135
  131OSM    H6G14134   0.908   0.570   7.101 -1.5921 -0.3069 -1.3933
  131OSM    C7F14135   1.127   0.551   7.040 -0.1402 -0.5936  0.0900
  131OSM    H7F14136   1.140   0.652   6.996  1.9169 -0.4299  1.0177
  131OSM    H7G14137   1.169   0.475   6.970 -2.4541 -2.0972  0.2895
  131OSM    C8F14138   1.194   0.537   7.180  0.5383 -0.4200  0.3975
  131OSM    H8F14139   1.183   0.430   7.207  0.5093  0.1242  2.6094
  131OSM    H8G14140   1.135   0.596   7.254  1.0689  0.2655  0.2710
  131OSM    C9F14141   1.335   0.583   7.180  1.3601  0.3181 -0.1153
  131OSM    H9F14142   1.357   0.680   7.133 -0.2526  0.7005 -0.1233
  131OSM   C10F14143   1.441   0.513   7.228 -0.3361  0.5984  0.3150
  131OSM   H10F14144   1.541   0.558   7.225 -1.3504  2.8865 -2.1283
  131OSM   C11F14145   1.443   0.378   7.303  0.3041 -0.8432 -0.2101
  131OSM   H11F14146   1.474   0.298   7.232 -1.5202 -0.6619 -1.2588
  131OSM   H11G14147   1.342   0.366   7.347  0.3626 -2.1925 -0.4257
  131OSM   C12F14148   1.527   0.370   7.428  0.5318 -0.1799 -0.0040
  131OSM   H12F14149   1.495   0.442   7.506  1.7959 -0.4181  0.7558
  131OSM   H12G14150   1.632   0.397   7.403  0.3332 -0.9185 -1.7513
  131OSM   C13F14151   1.526   0.223   7.491  0.2932 -0.1627  0.0052
  131OSM   H13F14152   1.589   0.158   7.426  0.6357 -0.3162  0.4888
  131OSM   H13G14153   1.422   0.186   7.502 -0.0826  0.1918 -2.0548
  131OSM   C14F14154   1.590   0.223   7.635 -0.2186 -0.2748  0.7726
  131OSM   H14F14155   1.511   0.247   7.709 -0.4580 -0.4625  0.5781
  131OSM   H14G14156   1.669   0.301   7.625 -0.9811  0.2599 -1.3367
  131OSM   C15F14157   1.666   0.093   7.670 -0.3940 -0.4616 -0.5500
  131OSM   H15F14158   1.766   0.099   7.622 -0.6164 -0.0165 -0.9565
  131OSM   H15G14159   1.611   0.005   7.629  0.1006 -2.2238  2.3954
  131OSM   C16F14160   1.699   0.076   7.817 -0.0753  0.3027 -0.0380
  131OSM   H16F14161   1.745   0.173   7.845  1.5041 -0.5394  0.3413
  131OSM   H16G14162   1.771  -0.006   7.836 -1.0597 -0.8702 -1.2435
  131OSM   C17F14163   1.581   0.054   7.915 -0.3386 -0.0500  0.1100
  131OSM   H17F14164   1.528  -0.033   7.872 -3.2432  0.8389  1.7670
  131OSM   H17G14165   1.507   0.136   7.910 -0.7954 -0.4569  0.2265
  131OSM   C18F14166   1.609   0.016   8.066 -0.7700  0.5580 -1.0824
  131OSM   H18F14167   1.522  -0.009   8.131  2.0011 -1.0476  2.1392
  131OSM   H18G14168   1.639   0.106   8.124 -0.4001  0.0836 -0.5370
  131OSM   H18H14169   1.696  -0.052   8.068 -1.0526  0.1349 -2.6917
  132OSM      N14170   2.166   4.770   6.096  0.3687 -0.4491  0.1758
  132OSM    C1514171   2.112   4.903   6.049 -0.2251  0.3419 -0.1738
  132OSM   H15A14172   2.196   4.971   6.048 -0.2592  0.4189  0.9636
  132OSM   H15B14173   2.032   4.936   6.113 -1.6445 -2.9566 -0.1215
  132OSM   H15C14174   2.081   4.901   5.946 -0.6805  1.5305 -0.0652
  132OSM    C1414175   2.047   4.680   6.118 -0.0930 -0.6418 -0.4264
  132OSM   H14A14176   2.077   4.587   6.164  1.7617 -0.7632 -1.8353
  132OSM   H14B14177   1.986   4.662   6.031 -0.5689  0.4619 -0.3273
  132OSM   H14C14178   1.974   4.724   6.185 -0.6988 -1.1073 -0.7759
  132OSM    C1314179   2.255   4.703   5.988 -0.6619  0.4897 -0.3162
  132OSM   H13A14180   2.206   4.691   5.893  1.5354  0.3383 -1.4517
  132OSM   H13B14181   2.297   4.607   6.013 -4.0857 -1.3231 -1.1905
  132OSM   H13C14182   2.344   4.762   5.969 -2.0630  2.3047 -1.4651
  132OSM    C1214183   2.230   4.788   6.228  0.8017  0.3081 -0.7134
  132OSM   H12A14184   2.156   4.832   6.292 -0.4773 -1.3959 -0.9904
  132OSM   H12B14185   2.314   4.857   6.222  0.3038  0.9420 -0.4351
  132OSM    C1114186   2.285   4.658   6.287 -0.2205 -0.2755  0.3492
  132OSM   H11A14187   2.228   4.565   6.267  1.9101 -1.5314 -0.0851
  132OSM   H11B14188   2.289   4.661   6.398 -0.5329 -0.9907  0.3835
  132OSM      P14189   2.546   4.681   6.310 -0.1109 -0.2563 -0.1556
  132OSM    O1314190   2.659   4.611   6.231  0.6786 -0.3616  0.1788
  132OSM    O1414191   2.543   4.825   6.303 -0.3231  0.2107  0.1869
  132OSM    O1114192   2.544   4.631   6.462 -0.1115  0.2507 -0.1422
  132OSM    O1214193   2.418   4.628   6.238 -0.2657  0.7903 -0.1269
  132OSM    C1S14194   2.549   4.487   6.485 -0.1355  0.5809  0.9958
  132OSM    H1S14195   2.644   4.450   6.440  1.3716  2.8164  2.2188
  132OSM    H1T14196   2.470   4.427   6.436  0.4099  0.4815  0.2361
  132OSM     NF14197   2.540   4.303   6.658 -0.1459 -0.1111 -0.5823
  132OSM    HNF14198   2.450   4.271   6.686 -0.3776  0.9027 -0.1382
  132OSM    C2S14199   2.548   4.447   6.639 -0.2395 -0.7576  0.3298
  132OSM    H2S14200   2.639   4.489   6.686  0.2978 -1.8305  0.2666
  132OSM    C3S14201   2.426   4.529   6.708 -0.1587 -0.7628 -0.2099
  132OSM    H3S14202   2.337   4.503   6.647 -0.1832 -0.7098 -0.1964
  132OSM     O314203   2.442   4.667   6.694 -0.1256 -0.0337 -0.8716
  132OSM    HO314204   2.476   4.670   6.604  0.9652 -3.6078 -0.6394
  132OSM    C4S14205   2.405   4.493   6.854 -0.2856  0.4879  0.6178
  132OSM    H4S14206   2.466   4.532   6.936  1.1532 -0.7186  0.1457
  132OSM    C5S14207   2.296   4.414   6.890 -1.0662  0.1290  0.7312
  132OSM    H5S14208   2.228   4.383   6.809 -0.7148 -0.1030  0.5236
  132OSM    C6S14209   2.257   4.356   7.027  0.0997  0.2443  0.5580
  132OSM    H6S14210   2.298   4.255   7.047 -0.5009 -0.3765 -1.2550
  132OSM    H6T14211   2.146   4.357   7.031  0.0318  0.4229 -0.9948
  132OSM    C7S14212   2.293   4.451   7.149  0.2798 -0.1487 -0.0351
  132OSM    H7S14213   2.222   4.537   7.148  1.2446  0.6610  0.8117
  132OSM    H7T14214   2.400   4.477   7.135  0.9281 -2.8623 -0.3374
  132OSM    C8S14215   2.260   4.381   7.289 -0.1090 -0.7504 -0.4263
  132OSM    H8S14216   2.309   4.282   7.276 -1.0765 -1.4057  0.7783
  132OSM    H8T14217   2.150   4.367   7.282 -0.0225 -0.6028 -2.5557
  132OSM    C9S14218   2.308   4.452   7.415  0.1450 -0.1642 -0.3561
  132OSM    H9S14219   2.283   4.558   7.397 -2.0601 -1.0933 -3.0004
  132OSM    H9T14220   2.419   4.446   7.426  0.0992 -0.6436 -0.1427
  132OSM   C10S14221   2.244   4.402   7.545  0.2920  0.3495  0.3730
  132OSM   H10S14222   2.274   4.297   7.568 -0.5338  0.5177  2.3524
  132OSM   H10T14223   2.134   4.389   7.539  0.2829  0.5949  0.0201
  132OSM   C11S14224   2.277   4.485   7.672  0.6524  0.1731 -1.0286
  132OSM   H11S14225   2.236   4.587   7.654 -1.6917 -0.8584 -1.7136
  132OSM   H11T14226   2.384   4.496   7.697  0.3191 -0.1129  0.6347
  132OSM   C12S14227   2.202   4.434   7.795 -0.1213  0.2358 -0.2474
  132OSM   H12S14228   2.256   4.340   7.822  2.1811  1.9640  1.3364
  132OSM   H12T14229   2.094   4.412   7.782  0.1557 -1.1824 -0.2596
  132OSM   C13S14230   2.236   4.518   7.920 -0.6653  0.0525  0.2854
  132OSM   H13S14231   2.216   4.627   7.905  0.5559  0.4027  1.1388
  132OSM   H13T14232   2.345   4.519   7.939 -0.9864  2.4347  2.3099
  132OSM   C14S14233   2.158   4.475   8.042 -0.1093 -0.3136  0.1493
  132OSM   H14S14234   2.166   4.367   8.063 -0.5198 -0.5919 -1.1156
  132OSM   H14T14235   2.052   4.506   8.031 -0.5067 -2.1284 -1.3452
  132OSM   C15S14236   2.198   4.554   8.168 -0.3582  0.1001  0.1879
  132OSM   H15S14237   2.194   4.664   8.157  2.5742  0.2889  0.6814
  132OSM   H15T14238   2.303   4.520   8.183 -0.6825 -0.9778  0.0713
  132OSM   C16S14239   2.116   4.517   8.287  0.4914  0.2774  0.9256
  132OSM   H16S14240   2.092   4.409   8.277  0.5084  0.3327  0.2316
  132OSM   H16T14241   2.016   4.566   8.289 -0.1870 -0.7965 -2.6293
  132OSM   C17S14242   2.188   4.526   8.423 -0.5256  0.7424 -0.2637
  132OSM   H17S14243   2.222   4.630   8.442 -0.0868  0.2215  1.9218
  132OSM   H17T14244   2.289   4.480   8.414 -0.8007  0.0667  0.0775
  132OSM   C18S14245   2.110   4.475   8.541 -0.0329 -0.2757  0.1990
  132OSM   H18S14246   2.173   4.483   8.632  1.7391 -0.9857 -0.9464
  132OSM   H18T14247   2.064   4.375   8.529 -1.2803  0.3450 -0.3136
  132OSM   H18U14248   2.029   4.550   8.558 -0.3025 -0.4229 -0.4073
  132OSM    C1F14249   2.647   4.224   6.633 -0.1258 -0.7557  0.1988
  132OSM     OF14250   2.751   4.275   6.591 -0.0951 -0.1020 -0.1278
  132OSM    C2F14251   2.642   4.076   6.670  0.4090  0.0246  0.0303
  132OSM    H2F14252   2.747   4.051   6.695  1.1720  3.5815  0.6624
  132OSM    H2G14253   2.608   4.025   6.577  0.3379  0.1065  0.0112
  132OSM    C3F14254   2.537   4.035   6.776 -0.8859  0.0078 -0.4437
  132OSM    H3F14255   2.439   4.066   6.736 -0.0158  1.2857 -1.6227
  132OSM    H3G14256   2.564   4.109   6.855 -0.0255  0.9808 -1.6287
  132OSM    C4F14257   2.532   3.900   6.830  0.4874  0.4704 -0.3149
  132OSM    H4F14258   2.629   3.856   6.859  0.0204 -1.0996 -1.0866
  132OSM    H4G14259   2.511   3.822   6.753 -0.7306  1.4205 -0.9644
  132OSM    C5F14260   2.424   3.898   6.937 -0.8494 -0.6316  0.3680
  132OSM    H5F14261   2.383   3.795   6.946 -0.2629 -1.1254 -2.1433
  132OSM    H5G14262   2.341   3.964   6.904 -0.1542  0.4225  0.7069
  132OSM    C6F14263   2.466   3.956   7.074 -0.6438  0.0828  0.5299
  132OSM    H6F14264   2.506   4.059   7.064  0.6673 -0.5005 -0.3876
  132OSM    H6G14265   2.541   3.887   7.117 -2.0686 -1.5750  0.4370
  132OSM    C7F14266   2.338   3.969   7.171 -0.7808 -0.1210 -0.1682
  132OSM    H7F14267   2.280   3.875   7.183 -0.2647 -0.3091  0.9115
  132OSM    H7G14268   2.267   4.045   7.132 -1.6791 -1.1157 -0.4707
  132OSM    C8F14269   2.361   4.023   7.320 -0.0933 -0.3932 -0.1237
  132OSM    H8F14270   2.264   4.062   7.359 -0.1333 -0.2323 -0.3810
  132OSM    H8G14271   2.428   4.110   7.338 -2.2641  1.5839 -1.1888
  132OSM    C9F14272   2.400   3.904   7.402  0.2103  0.3543  0.3737
  132OSM    H9F14273   2.438   3.820   7.343 -1.4938 -0.0468 -0.1819
  132OSM   C10F14274   2.374   3.892   7.533 -0.2620 -0.0638 -1.4583
  132OSM   H10F14275   2.395   3.796   7.582 -1.3664  0.3891 -0.0980
  132OSM   C11F14276   2.306   3.991   7.623  0.2479 -0.1619  0.5171
  132OSM   H11F14277   2.225   4.040   7.564 -0.7951 -1.8692  0.4947
  132OSM   H11G14278   2.378   4.068   7.660  0.9989 -0.2308 -0.7797
  132OSM   C12F14279   2.252   3.914   7.749 -0.4469 -0.4140 -0.3999
  132OSM   H12F14280   2.334   3.862   7.802  0.2532  1.4626  0.4221
  132OSM   H12G14281   2.188   3.835   7.706  1.4147 -0.0619 -4.0542
  132OSM   C13F14282   2.187   4.018   7.848  0.1803  0.2815 -0.9113
  132OSM   H13F14283   2.105   4.077   7.802  0.2629  0.0808 -1.3285
  132OSM   H13G14284   2.273   4.079   7.883  0.6972 -1.1631  0.3843
  132OSM   C14F14285   2.122   3.942   7.973  0.8391  0.1466  0.1956
  132OSM   H14F14286   2.190   3.867   8.018  0.0455  0.3884  1.8050
  132OSM   H14G14287   2.022   3.906   7.942  1.8339 -3.8036  1.3537
  132OSM   C15F14288   2.090   4.039   8.087 -0.1832 -0.2091  0.6608
  132OSM   H15F14289   2.022   4.115   8.042  1.1535  1.1816  0.9546
  132OSM   H15G14290   2.183   4.083   8.127  0.3494 -1.3097  0.6594
  132OSM   C16F14291   2.011   3.964   8.194  0.1837  0.0961 -0.7069
  132OSM   H16F14292   2.072   3.878   8.228  0.8347  1.5353  1.8871
  132OSM   H16G14293   1.922   3.937   8.133  0.0482 -2.8295  0.7117
  132OSM   C17F14294   1.991   4.063   8.308 -0.3288 -0.0706  0.1846
  132OSM   H17F14295   1.956   4.159   8.265  1.2671 -0.1537 -1.3439
  132OSM   H17G14296   2.087   4.082   8.361 -0.4908  0.6375  0.2169
  132OSM   C18F14297   1.901   4.008   8.415 -0.5863 -0.0649  0.4740
  132OSM   H18F14298   1.928   4.057   8.511  1.2088 -1.7250  0.8495
  132OSM   H18G14299   1.933   3.905   8.440  0.8861  0.4469  0.7448
  132OSM   H18H14300   1.791   4.012   8.398 -0.4433  1.7345 -0.1934
  133SAPE     N14301   5.472   1.661  10.566 -0.9096 -1.1210 -0.4679
  133SAPE   HN114302   5.547   1.590  10.551 -0.1111 -0.1350 -1.1301
  133SAPE   HN214303   5.504   1.743  10.512 -1.2622 -1.1095 -0.6589
  133SAPE   HN314304   5.465   1.694  10.665  0.9807  0.6497 -0.9073
  133SAPE   C1214305   5.338   1.627  10.514 -0.7214  0.6432 -0.0678
  133SAPE  H12A14306   5.303   1.530  10.554  1.1445 -0.5127 -1.1941
  133SAPE  H12B14307   5.348   1.607  10.406  1.7268 -1.1573  0.4618
  133SAPE   C1114308   5.241   1.747  10.535  0.2884 -0.5511  0.6208
  133SAPE  H11A14309   5.147   1.720  10.482  0.1614 -0.3527  0.7424
  133SAPE  H11B14310   5.283   1.840  10.490 -0.6488  0.3736  1.6350
  133SAPE     P14311   5.146   1.680  10.770  0.2318 -0.2237  0.1268
  133SAPE   O1314312   5.221   1.553  10.765  0.2872  0.9259  0.7546
  133SAPE   O1414313   5.136   1.754  10.894 -0.0049 -0.1386 -0.4534
  133SAPE   O1214314   5.217   1.777  10.671 -0.1311  0.0545  0.4248
  133SAPE   O1114315   5.006   1.662  10.705  0.1173 -0.0256 -0.2028
  133SAPE    C114316   4.906   1.756  10.701 -0.4097 -0.0279 -0.3622
  133SAPE    HA14317   4.863   1.761  10.804 -1.7098  0.2405 -0.9055
  133SAPE    HB14318   4.946   1.855  10.673  3.0928 -1.1585  0.4470
  133SAPE    C214319   4.785   1.704  10.611 -1.2365 -0.2251 -0.3452
  133SAPE    HS14320   4.732   1.621  10.662  2.8176 -3.4062 -1.0446
  133SAPE   O2114321   4.840   1.678  10.480  0.0714  0.7427 -0.2487
  133SAPE   C2114322   4.868   1.549  10.456 -0.7035 -0.2125 -0.3066
  133SAPE   O2214323   4.859   1.462  10.541  0.0191  0.7495 -0.8918
  133SAPE   C2214324   4.891   1.514  10.307  0.9180  0.0181  0.4276
  133SAPE   H2R14325   4.926   1.409  10.303  1.3991  0.1896  0.2047
  133SAPE   H2S14326   4.789   1.512  10.262  0.7280 -0.8014  0.8795
  133SAPE    C314327   4.673   1.818  10.598 -0.0033  0.1279  0.3308
  133SAPE    HX14328   4.729   1.913  10.586  1.1886 -0.6633 -0.5070
  133SAPE    HY14329   4.613   1.811  10.691 -2.3673 -1.4700 -1.2490
  133SAPE   O3114330   4.598   1.781  10.482 -0.0095 -0.1692 -0.1335
  133SAPE   C3114331   4.504   1.681  10.503 -0.9028  0.2694 -0.0942
  133SAPE   O3214332   4.491   1.621  10.607  0.1984  0.5478 -0.4143
  133SAPE   C3214333   4.410   1.671  10.386 -0.0481  0.6499 -0.3945
  133SAPE   H2X14334   4.371   1.773  10.365  0.3447  0.7989 -0.3974
  133SAPE   H2Y14335   4.323   1.607  10.413  0.5544 -0.3151 -0.6936
  133SAPE   C2314336   4.969   1.607  10.221  0.4532 -0.0737  0.6555
  133SAPE   H3R14337   5.079   1.599  10.235  0.8403  1.2304 -1.4298
  133SAPE   H3S14338   4.947   1.712  10.253 -0.2196  0.9096 -2.7732
  133SAPE   C2414339   4.933   1.602  10.067  0.3163 -0.1199  0.2324
  133SAPE   H4R14340   4.991   1.673  10.005  0.6385  0.8220  1.6011
  133SAPE   H4S14341   4.826   1.630  10.057  0.4646  0.7479  1.0715
  133SAPE   C2514342   4.955   1.467  10.003 -0.0795  0.6330 -0.1893
  133SAPE   H5R14343   5.003   1.390  10.065 -2.1765  0.0739  0.7587
  133SAPE   C2614344   4.917   1.429   9.879  0.1192  0.5668  0.0693
  133SAPE   H6R14345   4.935   1.322   9.859  1.1666  0.7766 -0.1384
  133SAPE   C2714346   4.855   1.511   9.773 -0.4753  0.2247 -0.3936
  133SAPE   H7R14347   4.798   1.594   9.820 -0.3097  0.4069 -0.5068
  133SAPE   H7S14348   4.791   1.436   9.722  1.7197 -2.0694  0.1281
  133SAPE   C2814349   4.957   1.573   9.679  0.3744 -0.5740  0.2197
  133SAPE   H8R14350   5.046   1.605   9.734  0.3991 -0.9253  0.3858
  133SAPE   C2914351   4.952   1.580   9.546  0.2668  0.4109  0.3496
  133SAPE   H9R14352   5.018   1.654   9.499  2.3462  0.2203  2.8380
  133SAPE  C21014353   4.833   1.543   9.452 -0.1607  0.5310 -0.5079
  133SAPE  H10R14354   4.793   1.623   9.386 -0.4895 -0.6540 -1.7905
  133SAPE  H10S14355   4.746   1.503   9.507 -1.6021  1.7291 -1.8749
  133SAPE  C21114356   4.883   1.431   9.356  0.2774 -0.0411 -0.5047
  133SAPE  H11R14357   4.892   1.335   9.409  2.9534  0.5765  0.2413
  133SAPE  C21214358   4.920   1.432   9.224  0.0267  0.2654  0.4548
  133SAPE  H12R14359   4.939   1.332   9.181  0.6817 -0.4435  2.3151
  133SAPE  C21314360   4.922   1.538   9.126  0.1972  0.4688 -0.5863
  133SAPE  H13R14361   4.861   1.622   9.165 -0.8821 -1.5849  2.3156
  133SAPE  H13S14362   4.861   1.509   9.037  1.2100 -1.3982 -0.6845
  133SAPE  C21414363   5.051   1.597   9.080  0.7865 -0.0610  0.6665
  133SAPE  H14R14364   5.095   1.678   9.140 -2.7436  0.2081  3.0506
  133SAPE  C21514365   5.123   1.543   8.977  0.0085 -0.2206  0.0705
  133SAPE  H15R14366   5.221   1.591   8.961 -0.0834  0.1662  0.6352
  133SAPE  C21614367   5.097   1.430   8.881 -0.1959  0.3575 -0.2125
  133SAPE  H16R14368   5.015   1.371   8.927 -1.2220  3.4086  2.0058
  133SAPE  H16S14369   5.190   1.370   8.889 -0.9437 -0.6811  0.9215
  133SAPE  C21714370   5.064   1.442   8.729 -0.3693  0.1836 -0.0431
  133SAPE  H17R14371   5.151   1.484   8.674 -0.4667  0.7982  0.2643
  133SAPE  H17S14372   4.981   1.514   8.711 -0.2523  0.1576 -0.6950
  133SAPE  C21814373   5.027   1.312   8.658  0.2382 -0.1807 -0.0073
  133SAPE  H18R14374   5.105   1.244   8.697 -0.0434  0.3973  1.6348
  133SAPE  H18S14375   5.031   1.326   8.548 -2.8475  1.2714 -0.0037
  133SAPE  C21914376   4.891   1.255   8.694 -0.3953 -0.6339 -0.8335
  133SAPE  H19R14377   4.878   1.276   8.802  1.1907  0.3467 -0.8093
  133SAPE  H19S14378   4.895   1.145   8.678 -2.3117 -0.7843 -0.3246
  133SAPE  C22014379   4.769   1.315   8.619 -0.0177 -0.7530  0.4181
  133SAPE  H20R14380   4.756   1.271   8.518  0.0870  0.9667 -0.3631
  133SAPE  H20S14381   4.778   1.426   8.610  0.7534 -0.8212  0.3590
  133SAPE  H20T14382   4.678   1.300   8.681 -1.9253  1.5805 -1.7100
  133SAPE   C3314383   4.467   1.576  10.273 -0.6415 -0.1295  0.1268
  133SAPE   H3X14384   4.484   1.470  10.302 -1.3974  0.2225  1.9136
  133SAPE   H3Y14385   4.564   1.620  10.242 -0.2658  0.2107  1.7393
  133SAPE   C3414386   4.370   1.570  10.155  0.1704  0.3588 -0.8950
  133SAPE   H4X14387   4.345   1.670  10.114  2.1277  0.8836 -0.8579
  133SAPE   H4Y14388   4.277   1.520  10.191  1.3440 -2.0458 -1.0728
  133SAPE   C3514389   4.426   1.500  10.030  0.6017 -0.2728  0.1458
  133SAPE   H5X14390   4.425   1.390  10.041 -0.1579 -0.7687 -4.0589
  133SAPE   H5Y14391   4.535   1.520  10.014  0.5359  0.1224  0.1711
  133SAPE   C3614392   4.351   1.540   9.907 -0.3379  0.4905  0.4690
  133SAPE   H6X14393   4.341   1.651   9.908  0.7242  0.6009  0.3492
  133SAPE   H6Y14394   4.255   1.485   9.906 -1.9204  3.1509  0.3818
  133SAPE   C3714395   4.415   1.500   9.769 -0.1309 -0.2434  0.2922
  133SAPE   H7X14396   4.520   1.537   9.760 -0.3101  0.5155  1.3128
  133SAPE   H7Y14397   4.365   1.531   9.675 -0.3007 -1.3434  0.0134
  133SAPE   C3814398   4.446   1.350   9.747 -0.0425  0.3770 -0.4124
  133SAPE   H8X14399   4.354   1.288   9.759  0.9774 -0.7792  1.8366
  133SAPE   H8Y14400   4.503   1.312   9.835 -1.4132  0.3356  0.4783
  133SAPE   C3914401   4.525   1.319   9.616  0.4468 -0.7202 -0.0739
  133SAPE   H9X14402   4.552   1.211   9.622  3.0494 -0.1934 -1.6863
  133SAPE   H9Y14403   4.623   1.371   9.624  1.0695 -1.6247 -1.6486
  133SAPE  C31014404   4.442   1.363   9.498 -0.3324  0.2573  0.0475
  133SAPE  H10X14405   4.385   1.458   9.501 -0.5081  0.1718 -0.6171
  133SAPE  H10Y14406   4.372   1.285   9.461  2.0560 -1.8937 -0.0827
  133SAPE  C31114407   4.530   1.370   9.367  0.8845 -0.0720  0.0190
  133SAPE  H11X14408   4.601   1.284   9.366 -1.4486 -2.0643  0.5791
  133SAPE  H11Y14409   4.595   1.460   9.375  0.0621  0.6025 -0.8015
  133SAPE  C31214410   4.442   1.362   9.241 -0.0881 -0.2355  0.1424
  133SAPE  H12X14411   4.396   1.463   9.230 -1.9515 -1.0907 -0.1528
  133SAPE  H12Y14412   4.356   1.292   9.241  0.3704 -0.8728  3.1497
  133SAPE  C31314413   4.521   1.324   9.109  0.2393 -0.9236  0.6187
  133SAPE  H13X14414   4.531   1.214   9.122  1.6228 -0.9161 -0.2978
  133SAPE  H13Y14415   4.623   1.368   9.100 -0.7093  0.9803 -1.2527
  133SAPE  C31414416   4.439   1.362   8.988 -0.5820 -0.0890  0.1623
  133SAPE  H14X14417   4.512   1.354   8.905 -1.6234  1.4708 -0.9268
  133SAPE  H14Y14418   4.400   1.465   9.004  0.6054  0.5459 -0.9169
  133SAPE  C31514419   4.314   1.276   8.981 -0.9632 -0.1149 -0.2895
  133SAPE  H15X14420   4.236   1.332   9.038  1.2194  2.0157  0.6751
  133SAPE  H15Y14421   4.339   1.173   9.013  1.9523  0.0196 -1.9431
  133SAPE  C31614422   4.273   1.264   8.832 -0.3530  0.4328  0.1927
  133SAPE  H16X14423   4.366   1.251   8.772  1.1145  0.3491  2.4134
  133SAPE  H16Y14424   4.221   1.356   8.798 -0.4857  0.7339  1.1889
  133SAPE  C31714425   4.189   1.139   8.799 -0.4630 -0.1151  0.3494
  133SAPE  H17X14426   4.096   1.158   8.858 -0.5678 -0.3763  0.2704
  133SAPE  H17Y14427   4.237   1.050   8.845  0.7835 -0.3245 -1.2885
  133SAPE  C31814428   4.162   1.094   8.651 -0.1816 -0.0660  0.8222
  133SAPE  H18X14429   4.254   1.053   8.604 -1.6089 -0.8194 -1.3702
  133SAPE  H18Y14430   4.138   1.180   8.585  0.3098 -2.0864 -2.0785
  133SAPE  H18Z14431   4.088   1.010   8.648  2.2378 -2.3050  1.8384
  134SAPE     N14432   0.414   2.832  10.893 -0.1899  0.2071 -0.0230
  134SAPE   HN114433   0.409   2.846  10.996  2.2928  2.7149 -0.2117
  134SAPE   HN214434   0.502   2.781  10.870 -0.8998 -0.7878 -0.5829
  134SAPE   HN314435   0.430   2.928  10.857 -1.4455  0.6459  0.5605
  134SAPE   C1214436   0.297   2.766  10.822 -0.1377 -0.4915  0.4910
  134SAPE  H12A14437   0.213   2.839  10.816 -0.3167 -0.7337 -0.0056
  134SAPE  H12B14438   0.274   2.678  10.885 -1.2217  1.0875  2.3423
  134SAPE   C1114439   0.339   2.721  10.684 -0.6093 -0.1825  0.0735
  134SAPE  H11A14440   0.374   2.810  10.627  0.8440 -0.1420  0.9869
  134SAPE  H11B14441   0.261   2.675  10.621  0.8428 -2.4269 -0.1392
  134SAPE     P14442   0.437   2.483  10.729  0.2204 -0.4474  0.1651
  134SAPE   O1314443   0.478   2.471  10.872 -0.1469 -0.0541  0.3673
  134SAPE   O1414444   0.302   2.427  10.709  0.0589 -0.2689  0.4245
  134SAPE   O1214445   0.452   2.637  10.696 -0.1870 -0.0898  0.0328
  134SAPE   O1114446   0.536   2.411  10.636 -0.0256  0.1363 -0.0821
  134SAPE    C114447   0.681   2.411  10.659  0.0112 -0.4169 -0.4495
  134SAPE    HA14448   0.726   2.490  10.595 -1.7702  1.4346  0.5169
  134SAPE    HB14449   0.705   2.430  10.766 -1.0658 -0.7472 -0.1332
  134SAPE    C214450   0.727   2.274  10.612 -0.3933 -0.0145 -0.9562
  134SAPE    HS14451   0.831   2.269  10.649 -1.4931 -0.8046  2.1677
  134SAPE   O2114452   0.699   2.252  10.472  0.1322  0.3443 -0.4049
  134SAPE   C2114453   0.781   2.316  10.392 -0.3994  0.2783  0.1509
  134SAPE   O2214454   0.867   2.393  10.433 -0.4690 -0.4141 -0.0011
  134SAPE   C2214455   0.756   2.274  10.241 -0.5197  0.5504 -0.2842
  134SAPE   H2R14456   0.785   2.168  10.231  0.6558  0.6702  1.6740
  134SAPE   H2S14457   0.648   2.293  10.222 -0.8083 -1.0656 -0.3564
  134SAPE    C314458   0.648   2.166  10.689  0.3842  0.6355  0.0241
  134SAPE    HX14459   0.543   2.200  10.685 -0.1411 -0.5855  2.5359
  134SAPE    HY14460   0.674   2.165  10.797  0.5483 -2.6218  0.0010
  134SAPE   O3114461   0.668   2.037  10.629 -0.1949  0.8152 -0.0876
  134SAPE   C3114462   0.781   1.973  10.657  0.4583 -0.2025 -1.1190
  134SAPE   O3214463   0.865   2.007  10.734 -0.8191 -0.5335  0.3575
  134SAPE   C3214464   0.798   1.850  10.557  0.0052  0.1072  0.1437
  134SAPE   H2X14465   0.731   1.770  10.594  0.5665 -0.8857 -0.9906
  134SAPE   H2Y14466   0.900   1.815  10.582 -0.1067  0.1639  0.6932
  134SAPE   C2314467   0.846   2.361  10.139  0.5451  0.4388 -0.3131
  134SAPE   H3R14468   0.876   2.303  10.049  0.2532  0.4553 -0.4221
  134SAPE   H3S14469   0.936   2.402  10.188 -0.0539  0.1492  1.0471
  134SAPE   C2414470   0.782   2.485  10.073  0.2132 -0.1384  0.3119
  134SAPE   H4R14471   0.757   2.552  10.159  0.3805  1.1939 -0.6501
  134SAPE   H4S14472   0.687   2.456  10.023  0.7236 -0.0415 -0.7124
  134SAPE   C2514473   0.881   2.560   9.987 -0.3484  0.1233 -0.3371
  134SAPE   H5R14474   0.971   2.585  10.044  1.2980 -0.2984 -2.6650
  134SAPE   C2614475   0.880   2.583   9.852 -0.1575 -0.4213 -0.8948
  134SAPE   H6R14476   0.960   2.639   9.800  1.7727 -0.1067  2.2827
  134SAPE   C2714477   0.781   2.532   9.745 -0.4563  0.5536  0.5292
  134SAPE   H7R14478   0.710   2.613   9.717  0.6993  1.5488  0.4399
  134SAPE   H7S14479   0.716   2.455   9.791 -0.8078  0.2241 -0.5105
  134SAPE   C2814480   0.834   2.479   9.613  0.4418  0.6074  0.2528
  134SAPE   H8R14481   0.897   2.390   9.627 -1.0560 -0.4806  0.2390
  134SAPE   C2914482   0.817   2.516   9.486 -0.0546  0.7046  0.2296
  134SAPE   H9R14483   0.878   2.464   9.410 -0.1425 -0.0953  0.7025
  134SAPE  C21014484   0.735   2.633   9.439  0.4512  0.1643  0.3719
  134SAPE  H10R14485   0.802   2.693   9.373  0.3418  0.6061  0.6554
  134SAPE  H10S14486   0.703   2.699   9.522  1.7806  1.5042 -0.1379
  134SAPE  C21114487   0.610   2.581   9.375  0.3686 -0.3944  0.6171
  134SAPE  H11R14488   0.539   2.531   9.442  0.0284 -1.4454 -0.5153
  134SAPE  C21214489   0.567   2.588   9.245  1.4762 -0.7163  0.1066
  134SAPE  H12R14490   0.473   2.538   9.217  1.8721 -0.5739 -1.5038
  134SAPE  C21314491   0.639   2.643   9.130  0.2539  0.3762 -0.2174
  134SAPE  H13R14492   0.737   2.687   9.160  1.1912 -2.6665  1.4881
  134SAPE  H13S14493   0.576   2.712   9.070  0.1979  1.1204  0.6863
  134SAPE  C21414494   0.660   2.524   9.033 -0.2079  0.5141  0.3686
  134SAPE  H14R14495   0.571   2.464   9.013 -1.1022  0.6964  3.5126
  134SAPE  C21514496   0.779   2.469   8.990  0.5251 -0.3914 -0.5026
  134SAPE  H15R14497   0.777   2.381   8.924  1.6595 -0.8466  0.0739
  134SAPE  C21614498   0.919   2.508   9.027 -0.4184  0.6597  0.2119
  134SAPE  H16R14499   0.927   2.591   9.100 -0.2017  1.6102 -0.8844
  134SAPE  H16S14500   0.966   2.561   8.941 -0.5451 -0.3965 -0.5248
  134SAPE  C21714501   1.002   2.381   9.056 -0.0738  0.2558  0.4694
  134SAPE  H17R14502   1.110   2.406   9.069  0.6975 -2.9127  0.5945
  134SAPE  H17S14503   0.998   2.316   8.967  1.1474  0.7549  0.0404
  134SAPE  C21814504   0.960   2.322   9.193 -0.6455  0.1858  0.2714
  134SAPE  H18R14505   0.849   2.325   9.199 -0.6527  0.0902  0.1737
  134SAPE  H18S14506   0.993   2.379   9.283  0.6785 -0.0720 -0.0417
  134SAPE  C21914507   1.012   2.178   9.229 -0.1345  0.3847 -0.2936
  134SAPE  H19R14508   1.121   2.180   9.209 -0.2915  5.1201 -1.4260
  134SAPE  H19S14509   0.941   2.122   9.165 -0.8336 -1.0572  1.7018
  134SAPE  C22014510   0.978   2.135   9.369  0.1739  0.2726 -0.7308
  134SAPE  H20R14511   0.873   2.097   9.371  0.4473 -0.4112  1.5908
  134SAPE  H20S14512   0.984   2.215   9.446 -3.3515  1.7904 -1.9092
  134SAPE  H20T14513   1.041   2.053   9.408 -0.0443  0.2038 -0.5241
  134SAPE   C3314514   0.773   1.869  10.407 -0.7821  0.0862 -0.0842
  134SAPE   H3X14515   0.772   1.976  10.377 -2.1150  0.1754  0.2583
  134SAPE   H3Y14516   0.671   1.830  10.385 -1.1111 -0.3033  2.0475
  134SAPE   C3414517   0.893   1.804  10.332  0.4542 -0.4096  0.6574
  134SAPE   H4X14518   0.885   1.694  10.340 -0.8664 -0.4237 -0.6636
  134SAPE   H4Y14519   0.992   1.829  10.376  1.2302  0.9773 -1.7355
  134SAPE   C3514520   0.903   1.856  10.187 -0.3984  0.5156 -0.6102
  134SAPE   H5X14521   0.979   1.806  10.123  0.9136 -0.7425  1.8622
  134SAPE   H5Y14522   0.935   1.962  10.191 -2.3173  1.0784  0.5840
  134SAPE   C3614523   0.773   1.859  10.105 -0.2551 -0.0015  0.3778
  134SAPE   H6X14524   0.701   1.929  10.153 -1.1432 -0.1304 -0.7412
  134SAPE   H6Y14525   0.727   1.758  10.104 -2.8647  1.1460  1.0801
  134SAPE   C3714526   0.800   1.915   9.963 -0.7361  0.1091  0.1472
  134SAPE   H7X14527   0.864   2.005   9.957 -0.7246  0.0763 -0.2235
  134SAPE   H7Y14528   0.697   1.941   9.928 -0.8781 -0.9208 -0.2414
  134SAPE   C3814529   0.855   1.812   9.865  0.2088  0.2171 -0.4982
  134SAPE   H8X14530   0.806   1.713   9.868 -2.3110  1.4556  0.8262
  134SAPE   H8Y14531   0.959   1.783   9.890  0.2462  0.4037 -0.4379
  134SAPE   C3914532   0.837   1.862   9.718  0.4820  0.3186 -0.3609
  134SAPE   H9X14533   0.881   1.964   9.718  0.3831  0.3603  0.1988
  134SAPE   H9Y14534   0.728   1.864   9.697  0.4484 -2.6522 -0.7019
  134SAPE  C31014535   0.890   1.771   9.620 -0.7847 -0.6571  0.5833
  134SAPE  H10X14536   0.992   1.731   9.638  0.6767  1.6557 -1.9893
  134SAPE  H10Y14537   0.894   1.825   9.523 -0.5367 -2.7420 -0.6003
  134SAPE  C31114538   0.806   1.637   9.602  0.1550 -0.5494  0.1291
  134SAPE  H11X14539   0.698   1.660   9.612  0.6886  2.1814  0.1154
  134SAPE  H11Y14540   0.841   1.558   9.672 -0.4946 -0.7468  0.2320
  134SAPE  C31214541   0.840   1.592   9.460  0.8777  0.0943 -0.1339
  134SAPE  H12X14542   0.824   1.482   9.459 -2.7408  0.5006  2.3560
  134SAPE  H12Y14543   0.945   1.618   9.437  1.2347  0.5653  1.9546
  134SAPE  C31314544   0.748   1.653   9.349  0.4338 -0.4533 -0.3724
  134SAPE  H13X14545   0.747   1.763   9.332  1.8050 -0.2597  0.8171
  134SAPE  H13Y14546   0.645   1.637   9.388  0.2573 -1.6734 -1.2782
  134SAPE  C31414547   0.754   1.576   9.213  0.3587 -0.3806  0.3979
  134SAPE  H14X14548   0.670   1.610   9.148  1.2064  1.9058  0.4596
  134SAPE  H14Y14549   0.727   1.471   9.238  0.6303 -0.3906  0.6497
  134SAPE  C31514550   0.891   1.599   9.140  0.4888 -0.2726 -0.0777
  134SAPE  H15X14551   0.872   1.557   9.039 -0.1053  0.8276 -0.4257
  134SAPE  H15Y14552   0.971   1.538   9.187  1.1860 -0.3678 -1.3546
  134SAPE  C31614553   0.923   1.746   9.108  0.2963 -0.5646  0.3967
  134SAPE  H16X14554   0.918   1.807   9.201  0.4889  1.5999 -0.9758
  134SAPE  H16Y14555   0.834   1.776   9.049  0.9899  1.1571  0.1908
  134SAPE  C31714556   1.043   1.774   9.014 -0.0809  0.1814  0.0406
  134SAPE  H17X14557   1.138   1.741   9.061 -0.8102  0.4902  1.7510
  134SAPE  H17Y14558   1.063   1.882   9.002  0.5212 -0.2453 -3.3055
  134SAPE  C31814559   1.036   1.704   8.878 -0.2420 -0.1826 -0.2339
  134SAPE  H18X14560   1.102   1.753   8.803  0.5697  0.0431  0.6074
  134SAPE  H18Y14561   0.935   1.700   8.834 -0.6290 -2.5142  0.7625
  134SAPE  H18Z14562   1.063   1.597   8.892  0.8227  0.2050  0.7703
  135SAPE     N14563   6.782   0.408  10.795 -0.5497 -0.1076  0.2422
  135SAPE   HN114564   6.797   0.354  10.707 -2.6597 -2.0438  1.0181
  135SAPE   HN214565   6.684   0.399  10.825 -1.3268 -1.5346 -2.5084
  135SAPE   HN314566   6.782   0.510  10.774 -2.7905 -0.1570 -0.0633
  135SAPE   C1214567   6.883   0.361  10.899  0.4329 -0.4869  0.9182
  135SAPE  H12A14568   6.853   0.260  10.934 -0.2801  0.2509  2.4595
  135SAPE  H12B14569   6.886   0.437  10.980 -0.2878  0.9671 -0.3899
  135SAPE   C1114570   7.025   0.346  10.839  0.0096  0.1559 -0.4330
  135SAPE  H11A14571   7.087   0.300  10.919  0.9110  2.7775  0.4279
  135SAPE  H11B14572   7.068   0.447  10.821  0.9266 -0.2442 -0.4740
  135SAPE     P14573   7.161   0.267  10.635  0.4435  0.1637  0.4120
  135SAPE   O1314574   7.208   0.405  10.595  0.3880 -0.0630 -0.6643
  135SAPE   O1414575   7.246   0.183  10.719 -0.0224 -0.3938 -0.1545
  135SAPE   O1214576   7.023   0.273  10.718 -0.3215  0.1110 -0.3224
  135SAPE   O1114577   7.122   0.187  10.506  0.2137  0.1389  0.0557
  135SAPE    C114578   6.998   0.104  10.498 -0.0292  0.2101  0.2919
  135SAPE    HA14579   7.024  -0.000  10.526  0.7569  0.0485 -1.0288
  135SAPE    HB14580   6.923   0.143  10.570  0.6249 -3.1118  2.9024
  135SAPE    C214581   6.940   0.109  10.358  0.7088 -1.0678  0.5724
  135SAPE    HS14582   6.835   0.073  10.358  1.2784 -2.8101  1.1965
  135SAPE   O2114583   7.012   0.027  10.267  0.5776 -0.6093  0.5931
  135SAPE   C2114584   6.996  -0.104  10.287 -0.0844 -0.2132 -0.1747
  135SAPE   O2214585   6.916  -0.149  10.367  0.0453  0.1688 -0.0435
  135SAPE   C2214586   7.082  -0.184  10.183  0.2928 -0.1414  0.3988
  135SAPE   H2R14587   7.181  -0.167  10.230  0.7082 -1.3293 -0.0380
  135SAPE   H2S14588   7.054  -0.292  10.185  1.1348 -0.3900 -0.6942
  135SAPE    C314589   6.934   0.254  10.298  0.1540 -0.5163  0.6600
  135SAPE    HX14590   7.036   0.299  10.293  0.6516 -1.3714  2.5530
  135SAPE    HY14591   6.869   0.323  10.356  2.2519  1.6420  0.5029
  135SAPE   O3114592   6.884   0.252  10.160 -0.2879 -0.1953 -0.2326
  135SAPE   C3114593   6.874   0.371  10.109 -0.1198  0.2405 -1.1479
  135SAPE   O3214594   6.895   0.480  10.165 -0.2255  0.2033 -0.1119
  135SAPE   C3214595   6.807   0.366   9.970  0.9280  0.0755  0.8906
  135SAPE   H2X14596   6.800   0.466   9.922 -0.6091 -0.4198  0.0402
  135SAPE   H2Y14597   6.705   0.329   9.994  0.6939  0.9669  1.2781
  135SAPE   C2314598   7.070  -0.134  10.035  0.1310  0.2873 -0.7173
  135SAPE   H3R14599   7.080  -0.024  10.044  0.7849  0.1846 -0.1707
  135SAPE   H3S14600   6.964  -0.153  10.007 -0.6234 -0.0348  2.1917
  135SAPE   C2414601   7.183  -0.172   9.945  0.3118 -0.4708 -0.1018
  135SAPE   H4R14602   7.278  -0.165  10.001  1.2665  0.0629 -1.7641
  135SAPE   H4S14603   7.186  -0.103   9.858  0.7051  3.3575  2.8133
  135SAPE   C2514604   7.179  -0.317   9.902 -0.1653 -0.0397  0.2185
  135SAPE   H5R14605   7.237  -0.390   9.959 -0.0752 -0.8030 -0.8469
  135SAPE   C2614606   7.123  -0.365   9.790 -0.0126  0.3548 -0.7053
  135SAPE   H6R14607   7.143  -0.472   9.772  1.5074  0.1153  2.0782
  135SAPE   C2714608   7.057  -0.291   9.678  0.1694 -0.3683  0.6365
  135SAPE   H7R14609   6.997  -0.203   9.711  0.5921  0.1246  0.1069
  135SAPE   H7S14610   6.975  -0.351   9.632  0.4297 -1.7397  1.9433
  135SAPE   C2814611   7.149  -0.233   9.578  0.1542 -0.6127  0.3575
  135SAPE   H8R14612   7.226  -0.166   9.620 -0.2750 -0.2999  0.6517
  135SAPE   C2914613   7.166  -0.267   9.451 -0.4978 -0.0276 -0.4315
  135SAPE   H9R14614   7.234  -0.203   9.392 -0.8761  2.1082  1.3658
  135SAPE  C21014615   7.102  -0.379   9.370  0.7053  0.5009  0.4551
  135SAPE  H10R14616   7.083  -0.450   9.453  0.7153 -1.2437 -1.0057
  135SAPE  H10S14617   7.168  -0.432   9.299 -1.9165 -2.3226  0.0318
  135SAPE  C21114618   6.983  -0.341   9.295  0.5798 -0.6182 -0.5541
  135SAPE  H11R14619   6.891  -0.362   9.351 -0.5202  0.1955 -2.0200
  135SAPE  C21214620   6.980  -0.296   9.166 -0.2901  0.5188  0.1605
  135SAPE  H12R14621   6.889  -0.246   9.129  0.7669  1.9714 -0.4808
  135SAPE  C21314622   7.100  -0.268   9.077  0.2462 -0.0303 -0.3680
  135SAPE  H13R14623   7.191  -0.317   9.118 -1.9085 -2.4844  1.6310
  135SAPE  H13S14624   7.131  -0.161   9.070  0.4719 -0.1083 -0.5434
  135SAPE  C21414625   7.070  -0.307   8.937  0.4765  0.6208  0.0621
  135SAPE  H14R14626   6.976  -0.363   8.937  1.2242 -0.6641 -0.4941
  135SAPE  C21514627   7.121  -0.274   8.817 -0.1722  0.2967  0.4375
  135SAPE  H15R14628   7.071  -0.294   8.720 -0.9289 -0.9209  1.0668
  135SAPE  C21614629   7.239  -0.176   8.803 -0.1942 -0.0908 -0.1922
  135SAPE  H16R14630   7.283  -0.219   8.710 -2.0740 -0.3336 -1.0026
  135SAPE  H16S14631   7.315  -0.197   8.881  1.0880  0.4413 -1.2668
  135SAPE  C21714632   7.204  -0.039   8.764  0.1769 -0.3202  0.7190
  135SAPE  H17R14633   7.140  -0.024   8.674  0.6137 -2.7672 -0.0445
  135SAPE  H17S14634   7.294   0.007   8.720  0.7334 -1.5452  0.5658
  135SAPE  C21814635   7.149   0.055   8.885  0.2956  0.5615 -0.4281
  135SAPE  H18R14636   7.213   0.032   8.973  0.2979 -2.1778 -1.0819
  135SAPE  H18S14637   7.045   0.024   8.910  0.6725  0.1434  0.6556
  135SAPE  C21914638   7.146   0.201   8.847  0.1006  1.4439  0.2797
  135SAPE  H19R14639   7.102   0.214   8.746  1.0934  2.9606  0.0234
  135SAPE  H19S14640   7.251   0.236   8.855  1.1508 -1.6562  0.7601
  135SAPE  C22014641   7.076   0.291   8.942 -0.7339  0.7292  0.4089
  135SAPE  H20R14642   6.968   0.267   8.950 -0.7837  0.8567  0.1357
  135SAPE  H20S14643   7.094   0.393   8.901  1.5165  0.5015  0.7623
  135SAPE  H20T14644   7.116   0.283   9.045 -1.8590 -2.5038  0.6540
  135SAPE   C3314645   6.866   0.250   9.877 -0.2519  0.1198 -0.6411
  135SAPE   H3X14646   6.804   0.255   9.785 -0.9291 -3.4015 -0.4551
  135SAPE   H3Y14647   6.859   0.145   9.914 -0.3368  0.8418  1.4775
  135SAPE   C3414648   7.015   0.268   9.858  0.4215  0.3353  0.1259
  135SAPE   H4X14649   7.067   0.248   9.954  2.3428  3.0150 -0.3002
  135SAPE   H4Y14650   7.039   0.367   9.813  0.0414 -0.2518 -1.3914
  135SAPE   C3514651   7.041   0.173   9.741  0.0229  0.5549 -0.6892
  135SAPE   H5X14652   6.968   0.192   9.660  1.1985 -1.7311 -2.3243
  135SAPE   H5Y14653   7.027   0.069   9.777  1.0298  0.8429  0.6024
  135SAPE   C3614654   7.184   0.198   9.678 -0.1006 -0.0925  0.6712
  135SAPE   H6X14655   7.267   0.155   9.738  0.0675 -1.0494 -0.2406
  135SAPE   H6Y14656   7.202   0.307   9.671 -4.0932  0.7108  1.4656
  135SAPE   C3714657   7.189   0.142   9.538  0.8693 -0.5250  0.1312
  135SAPE   H7X14658   7.129   0.209   9.474 -0.6216 -2.3313 -0.3971
  135SAPE   H7Y14659   7.155   0.037   9.539  2.1881 -1.0289 -2.2782
  135SAPE   C3814660   7.335   0.148   9.479  0.5645  0.1817 -0.3203
  135SAPE   H8X14661   7.394   0.074   9.538  2.8919  1.7618 -0.6001
  135SAPE   H8Y14662   7.366   0.253   9.498 -2.1210  0.9613 -0.1102
  135SAPE   C3914663   7.321   0.130   9.329  0.1125  0.0179 -0.0296
  135SAPE   H9X14664   7.261   0.215   9.290 -2.7986 -1.4299  1.1655
  135SAPE   H9Y14665   7.269   0.032   9.320 -2.0789  1.0918  0.6202
  135SAPE  C31014666   7.461   0.120   9.253  0.6687 -0.4293  0.0124
  135SAPE  H10X14667   7.528   0.060   9.318 -0.0667 -1.4219 -0.1301
  135SAPE  H10Y14668   7.512   0.216   9.229  0.6679 -0.5587 -0.5196
  135SAPE  C31114669   7.452   0.055   9.106 -0.1199 -0.8660  0.5213
  135SAPE  H11X14670   7.390   0.113   9.034  1.0284 -0.4171 -0.1053
  135SAPE  H11Y14671   7.400  -0.043   9.116  1.3006 -1.3897  3.3169
  135SAPE  C31214672   7.587   0.030   9.038  0.2777  0.6877  0.8067
  135SAPE  H12X14673   7.645  -0.046   9.094  2.4604 -0.3273 -2.6919
  135SAPE  H12Y14674   7.664   0.110   9.049 -1.3829  2.5634 -0.7442
  135SAPE  C31314675   7.576  -0.016   8.892  0.5595  0.1705  0.6526
  135SAPE  H13X14676   7.527   0.067   8.838  1.5430 -1.0226 -2.1563
  135SAPE  H13Y14677   7.498  -0.095   8.890 -0.5449  1.2712 -0.7287
  135SAPE  C31414678   7.713  -0.055   8.830 -0.3144 -0.0933 -0.1072
  135SAPE  H14X14679   7.739  -0.156   8.867  0.0654 -0.3387 -1.0194
  135SAPE  H14Y14680   7.794   0.010   8.870 -0.9344  0.6240 -0.0083
  135SAPE  C31514681   7.729  -0.058   8.677  0.3899 -0.1709 -0.1630
  135SAPE  H15X14682   7.830  -0.079   8.638 -0.0184 -0.8414 -0.8815
  135SAPE  H15Y14683   7.729   0.052   8.664  0.6170  0.2056  2.6741
  135SAPE  C31614684   7.630  -0.142   8.600 -0.3546 -0.6828  0.7889
  135SAPE  H16X14685   7.521  -0.131   8.616 -0.5809 -1.3478 -0.2420
  135SAPE  H16Y14686   7.653  -0.246   8.632  0.5566 -0.3779  1.1446
  135SAPE  C31714687   7.649  -0.138   8.445  0.2744 -0.7712  0.5595
  135SAPE  H17X14688   7.568  -0.200   8.401  0.6756 -0.3150 -0.8583
  135SAPE  H17Y14689   7.742  -0.191   8.416 -0.0605 -0.5184 -1.0634
  135SAPE  C31814690   7.636   0.004   8.390  0.3926  0.3950  0.5011
  135SAPE  H18X14691   7.638  -0.004   8.279  0.5976 -0.5723  0.5666
  135SAPE  H18Y14692   7.729   0.059   8.414  0.8779  0.2444 -0.9688
  135SAPE  H18Z14693   7.545   0.058   8.425 -0.1690 -0.2431  0.0584
  136SAPE     N14694   2.472   1.452  10.751 -0.3196 -0.1763  0.4041
  136SAPE   HN114695   2.438   1.544  10.786 -0.3698 -0.3717  0.8641
  136SAPE   HN214696   2.416   1.442  10.663 -2.0662  0.9752  1.3503
  136SAPE   HN314697   2.451   1.371  10.813  0.3235 -1.0212 -0.4772
  136SAPE   C1214698   2.617   1.453  10.713  0.5324 -0.3518  0.3702
  136SAPE  H12A14699   2.636   1.547  10.656 -0.7820  1.7769  3.3177
  136SAPE  H12B14700   2.647   1.361  10.659  2.0385  0.0586  0.4874
  136SAPE   C1114701   2.709   1.445  10.831 -0.0715 -0.2263 -0.4483
  136SAPE  H11A14702   2.705   1.541  10.887 -0.3435 -0.7266  0.4008
  136SAPE  H11B14703   2.818   1.428  10.815 -0.1721 -0.2007 -1.1618
  136SAPE     P14704   2.723   1.212  10.941 -0.2792  0.2350 -0.0082
  136SAPE   O1314705   2.836   1.224  11.036  0.3832  0.2291  0.1318
  136SAPE   O1414706   2.617   1.121  10.976  0.4714 -0.2428 -0.3745
  136SAPE   O1214707   2.657   1.347  10.923  0.6559  0.4370  0.2793
  136SAPE   O1114708   2.781   1.181  10.805 -0.7936 -0.2131 -0.1926
  136SAPE    C114709   2.912   1.165  10.759 -0.0642 -0.7349  0.1383
  136SAPE    HA14710   2.936   1.265  10.717 -1.3224 -1.0762 -1.4319
  136SAPE    HB14711   2.984   1.154  10.843  0.7727  0.8504 -0.3560
  136SAPE    C214712   2.925   1.044  10.662 -0.2581  0.3370 -0.1617
  136SAPE    HS14713   3.034   1.022  10.651 -0.0796  1.5016 -0.7579
  136SAPE   O2114714   2.877   1.072  10.528  0.4147  0.1434  0.7547
  136SAPE   C2114715   2.950   1.165  10.467  0.4217 -0.5671  0.3455
  136SAPE   O2214716   3.059   1.207  10.503 -0.1627 -0.7036 -0.9618
  136SAPE   C2214717   2.889   1.219  10.343 -0.4229 -0.0182  0.1976
  136SAPE   H2R14718   2.895   1.138  10.267 -0.5625 -0.5297  0.7258
  136SAPE   H2S14719   2.784   1.236  10.375 -0.0297  0.1540  1.4153
  136SAPE    C314720   2.876   0.909  10.727 -0.8429  1.4367 -0.6529
  136SAPE    HX14721   2.767   0.925  10.740 -0.9989 -1.2225  1.6892
  136SAPE    HY14722   2.918   0.901  10.829  0.9070  1.0178 -1.3656
  136SAPE   O3114723   2.907   0.784  10.657  0.0666 -0.1057 -0.1743
  136SAPE   C3114724   2.950   0.672  10.719 -0.0821 -0.0890  0.6912
  136SAPE   O3214725   2.954   0.656  10.840  0.6251  0.4801  0.3830
  136SAPE   C3214726   3.002   0.569  10.621  0.0617  0.0290 -0.0491
  136SAPE   H2X14727   3.026   0.470  10.665 -2.5539  0.6436  2.8436
  136SAPE   H2Y14728   3.099   0.611  10.586 -0.6021  0.8960 -0.8705
  136SAPE   C2314729   2.940   1.357  10.300  1.3128  0.3453  0.2655
  136SAPE   H3R14730   2.946   1.435  10.379  0.0012 -1.8010  2.5497
  136SAPE   H3S14731   2.863   1.395  10.230 -1.1103 -2.2856  1.4242
  136SAPE   C2414732   3.069   1.344  10.210  0.2054  0.1411  0.3315
  136SAPE   H4R14733   3.158   1.314  10.270  0.9652  0.0040 -0.8529
  136SAPE   H4S14734   3.090   1.449  10.179 -0.2202  0.0259 -0.3495
  136SAPE   C2514735   3.040   1.255  10.095 -0.1316  0.6076  0.3460
  136SAPE   H5R14736   2.972   1.299  10.021  1.3862 -0.8874 -2.0259
  136SAPE   C2614737   3.087   1.125  10.081 -0.8425 -0.5570 -0.7685
  136SAPE   H6R14738   3.074   1.087   9.979 -0.5453 -2.0590 -0.2661
  136SAPE   C2714739   3.179   1.048  10.176  0.0109  0.0325  0.2069
  136SAPE   H7R14740   3.227   1.120  10.245 -2.5787  1.7166  0.3205
  136SAPE   H7S14741   3.265   1.013  10.115 -0.6194 -0.3416 -0.4822
  136SAPE   C2814742   3.129   0.913  10.232  0.6306  0.0629  0.2998
  136SAPE   H8R14743   3.044   0.871  10.176 -0.0758  0.8595  0.7614
  136SAPE   C2914744   3.181   0.859  10.344  0.8974  0.0529  0.9014
  136SAPE   H9R14745   3.157   0.756  10.372 -1.2181  0.1556 -0.4643
  136SAPE  C21014746   3.293   0.925  10.422  0.1310  0.7244 -0.3815
  136SAPE  H10R14747   3.269   1.031  10.446  0.0417  0.6605 -0.1891
  136SAPE  H10S14748   3.390   0.936  10.368 -0.0648 -1.3731 -1.2420
  136SAPE  C21114749   3.325   0.856  10.557  0.2800  0.6371 -0.2290
  136SAPE  H11R14750   3.279   0.916  10.637 -1.5179 -0.4091 -0.4397
  136SAPE  C21214751   3.387   0.737  10.587 -0.4555 -0.9060  0.3738
  136SAPE  H12R14752   3.394   0.697  10.689  2.8196  0.1094  0.5850
  136SAPE  C21314753   3.436   0.643  10.482 -0.6583 -0.4796  0.3032
  136SAPE  H13R14754   3.529   0.591  10.513 -1.9472 -1.5011  2.6122
  136SAPE  H13S14755   3.459   0.708  10.395 -0.1515 -0.4977  0.4184
  136SAPE  C21414756   3.346   0.526  10.447 -0.1276 -0.0881 -0.1255
  136SAPE  H14R14757   3.338   0.456  10.532 -0.5263 -0.9253 -0.8429
  136SAPE  C21514758   3.299   0.492  10.333 -0.1143 -0.1888 -0.4493
  136SAPE  H15R14759   3.239   0.402  10.315 -0.3287  0.0819 -1.1131
  136SAPE  C21614760   3.319   0.570  10.202 -0.0106 -0.6839 -0.0667
  136SAPE  H16R14761   3.379   0.661  10.223  1.3723 -2.0280  1.9786
  136SAPE  H16S14762   3.223   0.613  10.165  0.0677  1.6212  2.2600
  136SAPE  C21714763   3.397   0.481  10.105  0.2664  0.0608 -0.1917
  136SAPE  H17R14764   3.355   0.378  10.097  0.8179 -0.0449 -2.1487
  136SAPE  H17S14765   3.501   0.463  10.139  1.4377 -0.0677 -3.6049
  136SAPE  C21814766   3.423   0.539   9.967 -0.2806 -0.7110  0.9487
  136SAPE  H18R14767   3.479   0.634   9.975 -1.2882  0.0091 -0.3976
  136SAPE  H18S14768   3.321   0.564   9.931  0.0854  1.4717  1.3445
  136SAPE  C21914769   3.484   0.440   9.860 -0.4461  1.3006  0.0858
  136SAPE  H19R14770   3.441   0.478   9.765  0.9262  0.2845 -0.9585
  136SAPE  H19S14771   3.437   0.340   9.870 -0.2210  1.0853 -0.9893
  136SAPE  C22014772   3.633   0.443   9.875 -0.0278  0.5797  0.1363
  136SAPE  H20R14773   3.672   0.395   9.967  1.3201  0.5047 -0.4636
  136SAPE  H20S14774   3.677   0.544   9.881  0.6205  0.2791  0.4347
  136SAPE  H20T14775   3.682   0.382   9.796 -0.4476 -2.1422  1.8868
  136SAPE   C3314776   2.897   0.545  10.510  0.1431  0.5876 -0.2581
  136SAPE   H3X14777   2.902   0.633  10.443  0.2057 -1.6184 -3.2215
  136SAPE   H3Y14778   2.795   0.531  10.550  0.2260 -0.6272 -0.4464
  136SAPE   C3414779   2.923   0.423  10.420 -0.0306  0.2140 -0.5803
  136SAPE   H4X14780   2.847   0.345  10.440  0.7036 -0.2742  0.3179
  136SAPE   H4Y14781   3.032   0.404  10.435 -0.5565 -1.7023  0.8779
  136SAPE   C3514782   2.903   0.445  10.270 -0.1940  0.4302  0.9228
  136SAPE   H5X14783   2.955   0.539  10.242  2.5086 -1.9763 -2.5824
  136SAPE   H5Y14784   2.796   0.456  10.242  0.1045  1.4548  0.1516
  136SAPE   C3614785   2.968   0.338  10.179  0.0091  0.0665 -0.0316
  136SAPE   H6X14786   2.902   0.249  10.175  0.9212 -0.5403 -1.7717
  136SAPE   H6Y14787   3.060   0.308  10.232 -1.3195  0.8115  2.8158
  136SAPE   C3714788   3.006   0.388  10.038  0.4089  0.2075 -0.1902
  136SAPE   H7X14789   3.082   0.462  10.071 -0.6063 -0.0953  3.0072
  136SAPE   H7Y14790   2.915   0.439   9.999  0.0111 -0.9496 -0.7673
  136SAPE   C3814791   3.069   0.295   9.944 -0.0291 -0.1596  0.8544
  136SAPE   H8X14792   2.991   0.216   9.928 -0.0307 -0.3422  1.7551
  136SAPE   H8Y14793   3.156   0.241   9.986  2.9220  1.0342 -3.4139
  136SAPE   C3914794   3.110   0.359   9.807  0.0783 -0.6392 -0.0184
  136SAPE   H9X14795   3.184   0.438   9.830 -0.8123  0.4787 -0.8789
  136SAPE   H9Y14796   3.025   0.407   9.754 -0.0562  0.4351  1.1493
  136SAPE  C31014797   3.182   0.255   9.724  0.0162  0.4316  0.3477
  136SAPE  H10X14798   3.100   0.181   9.714  0.0307  0.4407  0.1463
  136SAPE  H10Y14799   3.268   0.211   9.778 -1.1845 -2.3153  0.0964
  136SAPE  C31114800   3.235   0.310   9.589  0.6204 -0.2366 -0.5015
  136SAPE  H11X14801   3.288   0.234   9.527 -1.7746 -0.9362 -1.7411
  136SAPE  H11Y14802   3.312   0.390   9.595  0.1921  0.2131 -0.9867
  136SAPE  C31214803   3.120   0.366   9.499  0.2582 -0.2270  0.4187
  136SAPE  H12X14804   3.092   0.464   9.543 -2.2307 -0.4950 -0.5237
  136SAPE  H12Y14805   3.035   0.295   9.496 -0.8571  1.1372 -2.5545
  136SAPE  C31314806   3.130   0.380   9.342 -0.6770  0.1408  0.5509
  136SAPE  H13X14807   3.201   0.463   9.321  0.4549 -0.8888  0.2216
  136SAPE  H13Y14808   3.031   0.404   9.298  1.1314  1.9807 -2.7466
  136SAPE  C31414809   3.168   0.245   9.277 -0.6543 -0.3202 -0.3027
  136SAPE  H14X14810   3.092   0.168   9.303  0.8381 -0.7141  3.1091
  136SAPE  H14Y14811   3.262   0.216   9.327 -0.5292 -0.7503 -0.7775
  136SAPE  C31514812   3.192   0.249   9.121 -0.4617  0.1466 -0.2123
  136SAPE  H15X14813   3.181   0.354   9.086 -1.1430  1.3723  3.4992
  136SAPE  H15Y14814   3.115   0.188   9.069  2.7977 -3.0365 -1.4861
  136SAPE  C31614815   3.334   0.198   9.085  0.6091  0.4319 -0.4955
  136SAPE  H16X14816   3.349   0.097   9.128  1.8756  0.2662 -1.3179
  136SAPE  H16Y14817   3.401   0.267   9.140 -0.1544  0.9380 -0.1897
  136SAPE  C31714818   3.376   0.203   8.938 -0.1725  0.7976 -0.1225
  136SAPE  H17X14819   3.486   0.208   8.922 -0.0252  0.6470  0.8065
  136SAPE  H17Y14820   3.330   0.288   8.882 -2.0159  0.2302  0.5039
  136SAPE  C31814821   3.325   0.073   8.874  0.1387  0.3365 -0.5572
  136SAPE  H18X14822   3.379  -0.017   8.909 -0.3756  0.7207  1.3016
  136SAPE  H18Y14823   3.346   0.086   8.766  1.6549  1.5038 -0.1443
  136SAPE  H18Z14824   3.218   0.068   8.902 -0.1646  3.6083 -0.8858
  137SAPE     N14825   1.348   3.321  10.776  0.9871 -0.9889  0.6807
  137SAPE   HN114826   1.270   3.350  10.838 -1.2729 -0.1292 -2.4404
  137SAPE   HN214827   1.397   3.405  10.740  1.1247 -0.8572  1.1668
  137SAPE   HN314828   1.303   3.279  10.692 -1.1116  2.0100  0.2558
  137SAPE   C1214829   1.461   3.241  10.838  0.0734  0.2131 -0.4468
  137SAPE  H12A14830   1.507   3.192  10.749  0.1073 -0.2814 -0.1585
  137SAPE  H12B14831   1.421   3.163  10.906  0.3222 -1.0660 -1.7165
  137SAPE   C1114832   1.564   3.331  10.918 -0.7813  0.2985  0.5626
  137SAPE  H11A14833   1.630   3.393  10.854 -1.3033 -0.3960 -0.6656
  137SAPE  H11B14834   1.635   3.261  10.968  0.2344  1.5729  0.9322
  137SAPE     P14835   1.459   3.556  11.007 -0.3308  0.2584  0.1614
  137SAPE   O1314836   1.342   3.585  11.085 -0.2303 -0.8562  0.0695
  137SAPE   O1414837   1.583   3.623  11.033  0.4913  0.1576  0.0672
  137SAPE   O1214838   1.498   3.404  11.020  1.4241  0.2388 -0.4194
  137SAPE   O1114839   1.425   3.562  10.855  0.2708  0.1005 -0.3636
  137SAPE    C114840   1.413   3.686  10.791 -0.4018  0.2442  0.1616
  137SAPE    HA14841   1.323   3.740  10.829  1.0783  0.8823  2.8424
  137SAPE    HB14842   1.500   3.753  10.800 -0.0511 -0.1565 -0.2212
  137SAPE    C214843   1.393   3.663  10.637  0.3468 -1.0826 -1.3730
  137SAPE    HS14844   1.378   3.764  10.593  1.0857  1.3198  3.5570
  137SAPE   O2114845   1.278   3.579  10.614  0.3337 -0.1265  0.2192
  137SAPE   C2114846   1.161   3.645  10.616 -0.4995  0.1161  0.1044
  137SAPE   O2214847   1.150   3.771  10.628  0.0537  0.7706  0.0582
  137SAPE   C2214848   1.045   3.546  10.634 -0.0648  0.0710  0.4089
  137SAPE   H2R14849   1.088   3.444  10.629  1.8158  0.9315 -1.4288
  137SAPE   H2S14850   1.012   3.552  10.740  0.0081 -2.3585  0.5992
  137SAPE    C314851   1.523   3.609  10.574  0.0551  0.2759 -0.0538
  137SAPE    HX14852   1.570   3.527  10.632  2.0774  1.6040  0.2268
  137SAPE    HY14853   1.605   3.684  10.568  0.2760 -0.0875 -1.6319
  137SAPE   O3114854   1.500   3.566  10.440  0.5668  0.0168 -0.1423
  137SAPE   C3114855   1.466   3.442  10.420  0.4349 -0.2784 -0.6597
  137SAPE   O3214856   1.460   3.349  10.498  0.0307  0.4191  0.4759
  137SAPE   C3214857   1.408   3.422  10.284 -0.0622  0.3616  0.4798
  137SAPE   H2X14858   1.313   3.366  10.296 -0.3536  0.9925  1.1474
  137SAPE   H2Y14859   1.482   3.347  10.248 -2.3519 -1.3448 -0.7626
  137SAPE   C2314860   0.934   3.575  10.534  0.1446 -0.6201  0.2054
  137SAPE   H3R14861   0.923   3.683  10.509  0.9771  0.0379  2.5816
  137SAPE   H3S14862   0.832   3.538  10.555 -1.7430  2.8284 -2.3484
  137SAPE   C2414863   0.963   3.506  10.404  0.2744 -0.3618  0.1098
  137SAPE   H4R14864   1.036   3.571  10.352  0.2045 -1.7722 -1.8072
  137SAPE   H4S14865   0.874   3.517  10.338  1.7310  1.1463 -1.6719
  137SAPE   C2514866   0.982   3.351  10.413  0.8637  0.4272  0.0328
  137SAPE   H5R14867   1.034   3.316  10.503 -1.1877  1.1414  1.5323
  137SAPE   C2614868   0.941   3.266  10.320  0.2566  0.1460  0.0295
  137SAPE   H6R14869   0.956   3.158  10.335  0.2839  0.5073  2.8724
  137SAPE   C2714870   0.878   3.301  10.181  0.4984  0.4780 -0.0338
  137SAPE   H7R14871   0.963   3.328  10.115  0.8785  4.7536  2.0498
  137SAPE   H7S14872   0.823   3.396  10.197  2.4952  1.2007  3.1542
  137SAPE   C2814873   0.785   3.198  10.117  0.1071  0.2645 -0.0698
  137SAPE   H8R14874   0.769   3.107  10.178  1.8504  1.0110  1.5506
  137SAPE   C2914875   0.754   3.201   9.987 -1.1910 -1.1523  0.1196
  137SAPE   H9R14876   0.686   3.121   9.953 -2.7874 -0.2445  1.1138
  137SAPE  C21014877   0.794   3.311   9.894  0.4351 -0.0066  0.0182
  137SAPE  H10R14878   0.902   3.337   9.895  0.1853  1.0573  2.0619
  137SAPE  H10S14879   0.755   3.408   9.931  0.1295  0.2969 -1.0763
  137SAPE  C21114880   0.745   3.287   9.753 -0.7682 -0.3638  0.3504
  137SAPE  H11R14881   0.652   3.229   9.744  0.6741 -2.3782 -2.1274
  137SAPE  C21214882   0.811   3.313   9.638  0.8382 -0.1371 -0.7054
  137SAPE  H12R14883   0.766   3.271   9.546  1.5989  0.3994 -1.3322
  137SAPE  C21314884   0.949   3.380   9.626 -0.0551  0.4173 -0.4895
  137SAPE  H13R14885   0.970   3.436   9.720  1.7191  0.3361 -0.8100
  137SAPE  H13S14886   0.953   3.452   9.541 -0.6547 -1.5127 -2.1930
  137SAPE  C21414887   1.063   3.290   9.611 -0.4228  0.4611 -0.6133
  137SAPE  H14R14888   1.130   3.287   9.699  1.8365 -1.6487 -2.3258
  137SAPE  C21514889   1.085   3.204   9.511  0.4433  1.2065 -0.4379
  137SAPE  H15R14890   1.173   3.138   9.511 -1.1557 -0.9765  0.3094
  137SAPE  C21614891   1.006   3.186   9.382 -0.2645 -0.5893  0.7552
  137SAPE  H16R14892   0.927   3.258   9.352 -0.9203 -2.4629 -2.2381
  137SAPE  H16S14893   0.967   3.082   9.371  1.8905 -1.2803 -0.6993
  137SAPE  C21714894   1.095   3.203   9.259  0.1672  0.2379 -0.7016
  137SAPE  H17R14895   1.186   3.141   9.272 -1.0491 -1.8545 -1.9207
  137SAPE  H17S14896   1.131   3.308   9.261  1.4436 -0.2240  1.0245
  137SAPE  C21814897   1.045   3.151   9.127  0.5017 -0.8638  0.1520
  137SAPE  H18R14898   0.971   3.222   9.083 -0.0041  0.2036  2.6448
  137SAPE  H18S14899   0.991   3.055   9.144 -1.3395 -0.0120 -0.7101
  137SAPE  C21914900   1.150   3.123   9.019  0.6631 -0.2770 -0.5139
  137SAPE  H19R14901   1.227   3.057   9.064 -0.2237  0.4013  2.0525
  137SAPE  H19S14902   1.195   3.221   8.991  0.5141 -0.6143 -1.9635
  137SAPE  C22014903   1.101   3.049   8.892 -0.0467 -0.2785 -0.5637
  137SAPE  H20R14904   1.009   3.095   8.850 -0.7971  0.5581  1.9118
  137SAPE  H20S14905   1.060   2.951   8.926  0.7667 -0.8088 -1.0828
  137SAPE  H20T14906   1.186   3.043   8.820 -0.9747 -0.0750 -1.6907
  137SAPE   C3314907   1.392   3.543  10.180 -0.2854  0.3421 -0.3980
  137SAPE   H3X14908   1.495   3.584  10.173 -0.0226 -0.2240  0.1756
  137SAPE   H3Y14909   1.320   3.615  10.225  0.1884  0.0523  0.8342
  137SAPE   C3414910   1.333   3.491  10.048  0.4328 -0.0359 -0.8436
  137SAPE   H4X14911   1.321   3.582   9.985  1.2980  0.5046 -0.2312
  137SAPE   H4Y14912   1.230   3.451  10.065  0.7230  0.5118  2.5274
  137SAPE   C3514913   1.421   3.390   9.977 -0.4155 -0.6720  0.2671
  137SAPE   H5X14914   1.413   3.297  10.038 -0.5290 -0.8858 -0.0752
  137SAPE   H5Y14915   1.522   3.435   9.967 -0.4498 -0.8463 -0.9338
  137SAPE   C3614916   1.387   3.364   9.831  0.1668 -0.0276  0.1727
  137SAPE   H6X14917   1.390   3.458   9.773  2.2364 -0.7838 -0.9791
  137SAPE   H6Y14918   1.289   3.315   9.811 -0.5300  1.0487  0.8714
  137SAPE   C3714919   1.498   3.276   9.761 -1.0057  0.7567  0.4549
  137SAPE   H7X14920   1.515   3.185   9.822 -0.2200  1.6384  1.5891
  137SAPE   H7Y14921   1.592   3.335   9.764 -2.1160  2.4769  2.4357
  137SAPE   C3814922   1.472   3.245   9.611  0.6407  0.1396 -0.3616
  137SAPE   H8X14923   1.365   3.215   9.608  0.7585 -0.2113 -1.3503
  137SAPE   H8Y14924   1.527   3.153   9.582  1.1311  0.5781 -0.8322
  137SAPE   C3914925   1.501   3.354   9.509 -0.1530 -0.5736 -0.0936
  137SAPE   H9X14926   1.603   3.397   9.514 -0.8145  1.1022 -0.6175
  137SAPE   H9Y14927   1.420   3.430   9.525 -1.1520 -1.3438 -1.4310
  137SAPE  C31014928   1.488   3.301   9.367  0.1267 -0.3438 -0.7542
  137SAPE  H10X14929   1.404   3.231   9.348  1.5641 -1.9641 -1.3069
  137SAPE  H10Y14930   1.584   3.254   9.333  1.2726  1.0638  0.4829
  137SAPE  C31114931   1.468   3.422   9.267 -0.5978  1.3862 -0.1708
  137SAPE  H11X14932   1.551   3.492   9.288 -0.4578  0.6616  1.8020
  137SAPE  H11Y14933   1.369   3.465   9.292 -0.0489  1.3855  2.0798
  137SAPE  C31214934   1.461   3.378   9.117 -0.5178  0.9903 -0.1978
  137SAPE  H12X14935   1.453   3.477   9.067 -0.7254  0.2775 -1.6206
  137SAPE  H12Y14936   1.369   3.317   9.107 -0.0368 -0.0435  1.4899
  137SAPE  C31314937   1.585   3.298   9.062 -0.1218 -0.1090  0.1864
  137SAPE  H13X14938   1.580   3.199   9.111 -1.0808 -0.8570 -1.3740
  137SAPE  H13Y14939   1.683   3.330   9.102 -0.7043  0.6079  1.0791
  137SAPE  C31414940   1.595   3.302   8.906 -0.2742 -0.3077 -0.1001
  137SAPE  H14X14941   1.577   3.403   8.863 -1.2408  0.3934  1.8849
  137SAPE  H14Y14942   1.509   3.245   8.866 -1.7616  1.3717  0.6276
  137SAPE  C31514943   1.729   3.248   8.851 -0.5675  0.5194  0.0837
  137SAPE  H15X14944   1.812   3.317   8.877  2.1907 -3.2826  1.7705
  137SAPE  H15Y14945   1.712   3.250   8.741 -0.8098  0.3128  0.1178
  137SAPE  C31614946   1.760   3.106   8.904 -0.0980  0.2185 -0.6048
  137SAPE  H16X14947   1.795   3.115   9.009  2.4203 -1.0559 -1.3032
  137SAPE  H16Y14948   1.839   3.064   8.839  0.4124  1.9975 -1.1364
  137SAPE  C31714949   1.648   3.003   8.898  0.6415  0.1596  0.6555
  137SAPE  H17X14950   1.593   3.017   8.802  0.3476  1.1882  0.9631
  137SAPE  H17Y14951   1.576   3.016   8.982 -0.1755  1.5283 -0.2397
  137SAPE  C31814952   1.700   2.857   8.896  0.0139  0.0914 -0.4411
  137SAPE  H18X14953   1.613   2.788   8.899  1.6790 -2.0444  0.1575
  137SAPE  H18Y14954   1.750   2.825   8.990 -0.1714  0.1060 -0.3366
  137SAPE  H18Z14955   1.770   2.844   8.811  0.9054  0.3410  0.2492
  138SAPE     N14956   5.509   4.438  11.024 -0.1937  0.0865  0.1103
  138SAPE   HN114957   5.576   4.462  10.948 -0.5366 -0.2973 -0.3174
  138SAPE   HN214958   5.445   4.519  11.040  1.1833  2.1845 -4.2361
  138SAPE   HN314959   5.563   4.406  11.107  0.0864 -0.9793 -0.4750
  138SAPE   C1214960   5.429   4.328  10.969 -0.0280  0.5850 -0.6196
  138SAPE  H12A14961   5.361   4.289  11.048  0.6150  0.0873 -0.3069
  138SAPE  H12B14962   5.508   4.252  10.949 -0.8464 -0.3733 -0.2380
  138SAPE   C1114963   5.346   4.367  10.850 -0.1199  0.0257 -0.2208
  138SAPE  H11A14964   5.410   4.392  10.762 -0.0652  0.4959 -0.0498
  138SAPE  H11B14965   5.283   4.453  10.882  0.1472  0.0692  0.1889
  138SAPE     P14966   5.286   4.135  10.735 -0.1014 -0.0260  0.0196
  138SAPE   O1314967   5.425   4.102  10.749  0.4744 -0.3399  0.1763
  138SAPE   O1414968   5.183   4.027  10.759  0.2351 -0.3100 -0.0635
  138SAPE   O1214969   5.251   4.265  10.819 -0.6243  0.9437 -0.3514
  138SAPE   O1114970   5.268   4.178  10.588  0.2378  0.4862  0.0489
  138SAPE    C114971   5.159   4.259  10.535  0.4801 -0.1200 -0.0249
  138SAPE    HA14972   5.154   4.357  10.586  1.0910  0.6330 -1.3641
  138SAPE    HB14973   5.186   4.289  10.431 -0.7631  1.6040  0.1199
  138SAPE    C214974   5.025   4.193  10.522  0.3350 -0.2880 -0.6629
  138SAPE    HS14975   4.989   4.163  10.623 -0.3949 -1.7863 -1.3600
  138SAPE   O2114976   5.042   4.079  10.439  0.7672 -0.4240 -0.0393
  138SAPE   C2114977   4.942   3.989  10.449  0.6171  0.5057 -0.3142
  138SAPE   O2214978   4.850   3.998  10.526  0.0713 -0.0042 -0.4849
  138SAPE   C2214979   4.965   3.881  10.341 -0.5992 -0.1612 -0.2046
  138SAPE   H2R14980   5.042   3.921  10.272 -0.5180 -0.8919 -0.5421
  138SAPE   H2S14981   4.997   3.786  10.389 -3.3012 -0.8957  0.2535
  138SAPE    C314982   4.922   4.290  10.463  0.1698 -0.3368 -0.2704
  138SAPE    HX14983   4.925   4.388  10.516 -0.4128 -0.5099  0.0859
  138SAPE    HY14984   4.823   4.241  10.479  0.6645 -0.5267  2.4403
  138SAPE   O3114985   4.961   4.314  10.321  0.3726  0.3920  0.5796
  138SAPE   C3114986   4.863   4.319  10.227  0.3136  0.0338  0.1828
  138SAPE   O3214987   4.749   4.319  10.255 -0.2365 -0.3448  0.7996
  138SAPE   C3214988   4.928   4.304  10.087  0.3761 -0.6829 -0.4894
  138SAPE   H2X14989   4.997   4.218  10.078  2.7646  1.2873 -1.6413
  138SAPE   H2Y14990   4.988   4.395  10.065  1.3798 -1.5272 -1.2370
  138SAPE   C2314991   4.830   3.856  10.274  0.1470 -0.3873 -0.2309
  138SAPE   H3R14992   4.760   3.824  10.354  0.1545  1.8485  0.7211
  138SAPE   H3S14993   4.837   3.765  10.210  0.0536 -1.3551  1.1126
  138SAPE   C2414994   4.769   3.971  10.190  0.2235 -0.1189 -0.0631
  138SAPE   H4R14995   4.844   4.010  10.117  1.3526 -0.0230  1.1231
  138SAPE   H4S14996   4.746   4.057  10.257 -1.3688 -0.1094 -0.6081
  138SAPE   C2514997   4.643   3.922  10.133 -0.5112 -0.3881 -0.1871
  138SAPE   H5R14998   4.551   3.912  10.192 -2.6106 -0.6551 -3.3678
  138SAPE   C2614999   4.631   3.894  10.004 -0.0297 -0.3193  0.4294
  138SAPE   H6R15000   4.531   3.867   9.967  0.0986 -0.8073  0.4387
  138SAPE   C2715001   4.735   3.910   9.896  0.2562  0.3848  0.2064
  138SAPE   H7R15002   4.772   4.013   9.910 -2.1650  1.1562  1.2124
  138SAPE   H7S15003   4.681   3.919   9.800 -0.1459 -1.6768  0.1954
  138SAPE   C2815004   4.838   3.800   9.897  0.2319  0.7183  0.7828
  138SAPE   H8R15005   4.876   3.759   9.991  1.9904  1.7862  0.5715
  138SAPE   C2915006   4.887   3.757   9.777 -0.1874 -0.5731  0.6624
  138SAPE   H9R15007   4.972   3.687   9.779 -0.8455 -1.4457 -0.9796
  138SAPE  C21015008   4.846   3.793   9.636 -0.2769 -0.3683  0.4468
  138SAPE  H10R15009   4.927   3.846   9.582 -3.8683  1.8085 -3.0073
  138SAPE  H10S15010   4.763   3.867   9.629 -1.8845 -2.2047 -0.3996
  138SAPE  C21115011   4.801   3.673   9.552  0.5082 -0.6201 -0.3792
  138SAPE  H11R15012   4.775   3.584   9.612 -0.2776 -0.6578 -0.7717
  138SAPE  C21215013   4.769   3.683   9.420 -0.2174 -0.0844 -0.9907
  138SAPE  H12R15014   4.735   3.590   9.372 -1.2175  0.7494 -1.9151
  138SAPE  C21315015   4.769   3.810   9.339  0.0736 -0.1659  0.3635
  138SAPE  H13R15016   4.831   3.893   9.379  0.5143  0.9758 -2.5482
  138SAPE  H13S15017   4.673   3.865   9.331  0.9425  1.2224 -0.6549
  138SAPE  C21415018   4.813   3.759   9.207  0.5769 -0.4747  0.0008
  138SAPE  H14R15019   4.894   3.685   9.201  0.1001 -1.0564  0.6132
  138SAPE  C21515020   4.775   3.799   9.088 -0.1078 -0.2898 -0.8922
  138SAPE  H15R15021   4.824   3.753   9.001 -0.1291  0.0706 -1.0958
  138SAPE  C21615022   4.674   3.905   9.055  0.2684 -0.7009 -0.0276
  138SAPE  H16R15023   4.732   4.000   9.058  0.2398 -0.6139 -1.8121
  138SAPE  H16S15024   4.594   3.907   9.132  1.6338 -0.8898  1.4274
  138SAPE  C21715025   4.612   3.895   8.913 -0.7300  0.2608 -0.6660
  138SAPE  H17R15026   4.536   3.816   8.901 -3.2954  2.5325  0.0564
  138SAPE  H17S15027   4.700   3.871   8.850  0.4402  1.4228  0.4991
  138SAPE  C21815028   4.545   4.026   8.875 -0.0320 -0.1487  0.0547
  138SAPE  H18R15029   4.623   4.104   8.886 -0.5182  0.3654 -0.1383
  138SAPE  H18S15030   4.453   4.044   8.935  0.5716  0.8016  0.7173
  138SAPE  C21915031   4.504   4.033   8.727 -0.3765 -0.6498  0.7541
  138SAPE  H19R15032   4.429   3.953   8.714 -0.9206  0.3049 -2.5234
  138SAPE  H19S15033   4.590   4.007   8.662 -0.5793 -1.4232  0.7887
  138SAPE  C22015034   4.454   4.175   8.692 -0.9228 -0.3343  0.3508
  138SAPE  H20R15035   4.399   4.178   8.595  0.0651  0.3576 -0.2019
  138SAPE  H20S15036   4.530   4.255   8.683 -1.3536 -0.1219 -1.6086
  138SAPE  H20T15037   4.392   4.214   8.775 -0.2501  0.3507  0.5263
  138SAPE   C3315038   4.827   4.304   9.968 -0.1686 -0.0981  0.2705
  138SAPE   H3X15039   4.766   4.396   9.964 -0.5980 -0.3627  0.6522
  138SAPE   H3Y15040   4.769   4.210   9.978  1.9509 -1.2863  1.8223
  138SAPE   C3415041   4.907   4.300   9.837  0.3479  0.0709  0.1729
  138SAPE   H4X15042   4.985   4.221   9.845  0.1951 -0.0332  0.6969
  138SAPE   H4Y15043   4.959   4.395   9.814  3.1068 -1.1311  1.2186
  138SAPE   C3515044   4.826   4.263   9.716 -0.5337 -0.4114  0.5575
  138SAPE   H5X15045   4.780   4.356   9.675 -0.9321 -1.7505 -2.1753
  138SAPE   H5Y15046   4.749   4.188   9.743 -0.4095 -0.7346  0.0312
  138SAPE   C3615047   4.909   4.203   9.600  0.0665  0.3411 -0.4396
  138SAPE   H6X15048   4.943   4.104   9.638 -2.9293 -1.7855 -2.9726
  138SAPE   H6Y15049   5.000   4.260   9.570  1.4203 -0.4858  1.9520
  138SAPE   C3715050   4.839   4.171   9.472  0.3122  1.0070  0.0690
  138SAPE   H7X15051   4.744   4.124   9.509  1.4439  0.6456  2.6592
  138SAPE   H7Y15052   4.897   4.091   9.422 -0.6864  1.3473 -1.6659
  138SAPE   C3815053   4.824   4.287   9.376 -0.0357  0.0758  0.0681
  138SAPE   H8X15054   4.924   4.323   9.343  0.3159  1.0916  2.1454
  138SAPE   H8Y15055   4.771   4.357   9.444 -1.9769  1.2735 -2.5823
  138SAPE   C3915056   4.740   4.241   9.258  0.6435  0.4204 -0.3784
  138SAPE   H9X15057   4.650   4.192   9.301  0.5937  0.1241 -0.8217
  138SAPE   H9Y15058   4.798   4.167   9.200  0.0304  1.6796 -2.6710
  138SAPE  C31015059   4.698   4.346   9.150 -0.2719 -0.1972 -0.7520
  138SAPE  H10X15060   4.623   4.413   9.197  0.9298  1.9599 -1.8399
  138SAPE  H10Y15061   4.650   4.291   9.066 -1.0306 -0.9929  0.1923
  138SAPE  C31115062   4.816   4.437   9.099 -0.3196 -0.0476  0.0869
  138SAPE  H11X15063   4.894   4.372   9.052 -0.6012 -0.5637  0.3313
  138SAPE  H11Y15064   4.855   4.477   9.195  1.2475 -1.3796  0.0381
  138SAPE  C31215065   4.781   4.553   9.004  0.4043 -0.1563  0.3476
  138SAPE  H12X15066   4.732   4.633   9.063 -1.8469 -1.0792 -0.2218
  138SAPE  H12Y15067   4.716   4.521   8.919  2.6774  0.6395 -1.7429
  138SAPE  C31315068   4.906   4.608   8.939 -0.2944  0.0361  0.5628
  138SAPE  H13X15069   4.869   4.655   8.845 -1.7641 -0.5855  0.8238
  138SAPE  H13Y15070   4.974   4.529   8.899  0.6489  1.4196 -0.6057
  138SAPE  C31415071   4.982   4.711   9.023  0.5647  0.0468 -0.3238
  138SAPE  H14X15072   5.005   4.662   9.120  1.4450 -2.8569 -1.9153
  138SAPE  H14Y15073   4.902   4.787   9.036  1.1466  1.0728 -2.3891
  138SAPE  C31515074   5.102   4.754   8.943 -0.5308 -0.4134  0.6367
  138SAPE  H15X15075   5.069   4.798   8.847  1.7181 -0.8837 -0.3904
  138SAPE  H15Y15076   5.161   4.661   8.927 -2.0105 -0.9072 -2.2311
  138SAPE  C31615077   5.197   4.858   9.007 -0.2350  0.1287 -0.0552
  138SAPE  H16X15078   5.223   4.830   9.112  0.3554 -0.6901 -0.4095
  138SAPE  H16Y15079   5.137   4.950   9.021 -2.2434 -1.5164  2.4441
  138SAPE  C31715080   5.316   4.882   8.916 -0.5591  0.4055 -0.4007
  138SAPE  H17X15081   5.280   4.916   8.816  1.7525  0.5721 -1.2064
  138SAPE  H17Y15082   5.371   4.787   8.896  0.5449  0.7365  1.0235
  138SAPE  C31815083   5.412   4.987   8.965  0.2954 -0.0304  0.7062
  138SAPE  H18X15084   5.482   5.021   8.885 -0.1256 -2.0325 -0.5333
  138SAPE  H18Y15085   5.476   4.945   9.046 -0.6607 -1.4902  0.7176
  138SAPE  H18Z15086   5.358   5.080   8.992 -1.4431 -1.1727  1.2608
  139SAPE     N15087   4.318   3.203  10.476 -0.0295 -0.2053 -0.0022
  139SAPE   HN115088   4.331   3.293  10.526  0.6012 -0.2966  0.0107
  139SAPE   HN215089   4.417   3.186  10.450 -0.0605  2.4086 -1.9599
  139SAPE   HN315090   4.253   3.220  10.398  0.0671  0.6118  0.0900
  139SAPE   C1215091   4.248   3.097  10.546  0.0577  0.2685 -0.3206
  139SAPE  H12A15092   4.147   3.136  10.571  0.1510  1.4355 -1.6991
  139SAPE  H12B15093   4.300   3.074  10.642  0.3726  0.0268 -0.5485
  139SAPE   C1115094   4.247   2.965  10.457 -0.1009  0.7727  0.5818
  139SAPE  H11A15095   4.234   2.991  10.350 -1.3206  0.8283  0.7378
  139SAPE  H11B15096   4.159   2.901  10.479  1.3433 -1.3451  0.3428
  139SAPE     P15097   4.367   2.780  10.597 -0.0028  0.0456  0.2898
  139SAPE   O1315098   4.495   2.710  10.606  0.0952  0.5792  0.0927
  139SAPE   O1415099   4.319   2.853  10.714  0.2415 -0.1086 -0.6777
  139SAPE   O1215100   4.367   2.885  10.482 -0.1605 -0.0889  0.0226
  139SAPE   O1115101   4.256   2.674  10.543  0.3800  0.7523  0.2854
  139SAPE    C115102   4.293   2.562  10.452  0.0722 -0.3147 -0.0835
  139SAPE    HA15103   4.402   2.550  10.467 -0.0078  0.5444  1.2765
  139SAPE    HB15104   4.250   2.466  10.488  0.1403 -0.7519 -1.1502
  139SAPE    C215105   4.241   2.579  10.306 -0.7674 -0.4957 -0.0540
  139SAPE    HS15106   4.279   2.488  10.255  0.5264 -0.5097  0.9338
  139SAPE   O2115107   4.299   2.694  10.245 -0.8189  0.2111 -0.4872
  139SAPE   C2115108   4.434   2.687  10.231 -0.3816  0.5247 -0.5315
  139SAPE   O2215109   4.507   2.595  10.266  0.0287  0.4810  0.3216
  139SAPE   C2215110   4.488   2.793  10.139 -0.0977  0.1325  0.4601
  139SAPE   H2R15111   4.421   2.791  10.050 -0.2434 -0.7334  0.5876
  139SAPE   H2S15112   4.480   2.888  10.196  1.0912  0.9770 -0.7471
  139SAPE    C315113   4.085   2.582  10.299 -0.3025 -1.1296  0.6461
  139SAPE    HX15114   4.055   2.684  10.332 -1.5524 -0.5003 -2.3001
  139SAPE    HY15115   4.053   2.524  10.388  0.6975  1.8641  3.0743
  139SAPE   O3115116   4.031   2.544  10.167  0.1517 -0.0976 -0.1490
  139SAPE   C3115117   4.036   2.648  10.079 -0.4504  0.4715  0.5457
  139SAPE   O3215118   4.044   2.761  10.107  0.4082 -0.9657  0.1120
  139SAPE   C3215119   4.018   2.592   9.939 -0.5178 -0.6052 -0.1427
  139SAPE   H2X15120   3.947   2.660   9.888 -0.6360 -0.8958 -0.3626
  139SAPE   H2Y15121   3.986   2.486   9.939  0.3688 -0.8795 -1.5880
  139SAPE   C2315122   4.643   2.783  10.096  1.2075  0.1360 -0.2697
  139SAPE   H3R15123   4.670   2.687  10.047  2.2386  0.7535 -0.9192
  139SAPE   H3S15124   4.696   2.778  10.193  1.4990 -0.8525 -0.4740
  139SAPE   C2415125   4.704   2.891  10.013 -0.3097  0.0010 -0.2974
  139SAPE   H4R15126   4.802   2.864   9.968 -0.6915 -0.8792 -0.6176
  139SAPE   H4S15127   4.719   2.974  10.085 -1.8749  0.8314 -0.9020
  139SAPE   C2515128   4.603   2.937   9.910  0.2684  0.2319 -0.3754
  139SAPE   H5R15129   4.524   3.004   9.948 -1.8087 -2.7422  0.6846
  139SAPE   C2615130   4.611   2.908   9.778  0.1400 -0.1784 -0.6811
  139SAPE   H6R15131   4.533   2.954   9.715 -0.9319 -0.1466  0.6651
  139SAPE   C2715132   4.714   2.829   9.701 -0.0969  0.3517  0.5611
  139SAPE   H7R15133   4.668   2.765   9.622 -0.0176  0.1525  0.6784
  139SAPE   H7S15134   4.773   2.763   9.768  0.2972 -0.8204 -0.9025
  139SAPE   C2815135   4.810   2.919   9.633 -0.1131 -0.5645 -0.1393
  139SAPE   H8R15136   4.767   3.007   9.583 -1.9151 -0.5195  1.4332
  139SAPE   C2915137   4.945   2.904   9.613  0.5604 -0.0532  0.1142
  139SAPE   H9R15138   4.996   2.981   9.553 -0.9525 -0.3505 -1.6058
  139SAPE  C21015139   5.034   2.785   9.655 -0.3611  0.0119  0.2029
  139SAPE  H10R15140   5.136   2.802   9.614 -1.4734  1.1091 -2.1902
  139SAPE  H10S15141   5.002   2.687   9.613 -0.9129  0.3807 -0.2382
  139SAPE  C21115142   5.055   2.768   9.803  0.0898 -0.5200 -0.2954
  139SAPE  H11R15143   5.035   2.665   9.839  1.4177 -0.3473  0.9367
  139SAPE  C21215144   5.076   2.857   9.894  0.2828 -0.4288 -0.2675
  139SAPE  H12R15145   5.076   2.822   9.998 -2.6222  0.1960 -0.0226
  139SAPE  C21315146   5.092   3.003   9.885  0.5915 -0.1773 -0.0856
  139SAPE  H13R15147   5.007   3.042   9.945 -0.5096  0.3273 -1.9542
  139SAPE  H13S15148   5.077   3.043   9.782 -0.0193  3.6897  1.4074
  139SAPE  C21415149   5.229   3.036   9.938  0.5085  0.1830  0.5021
  139SAPE  H14R15150   5.239   3.014  10.045 -1.1378 -0.0193  0.6301
  139SAPE  C21515151   5.338   3.078   9.875 -0.2441  0.1487 -0.3153
  139SAPE  H15R15152   5.429   3.092   9.937  0.1213 -1.4781 -0.4848
  139SAPE  C21615153   5.340   3.099   9.719 -0.3891 -0.9590 -1.0441
  139SAPE  H16R15154   5.401   3.190   9.697 -0.3582 -0.6028  0.4727
  139SAPE  H16S15155   5.236   3.120   9.688 -0.1496 -0.0509 -1.2468
  139SAPE  C21715156   5.382   2.976   9.640 -0.3681 -0.3629 -0.5413
  139SAPE  H17R15157   5.297   2.927   9.588 -2.1768  0.7466  1.2739
  139SAPE  H17S15158   5.424   2.898   9.707 -0.7806 -0.9392 -0.9520
  139SAPE  C21815159   5.487   3.006   9.526  0.4292  0.2046  0.0293
  139SAPE  H18R15160   5.576   3.056   9.569  0.4894  1.1131 -1.1371
  139SAPE  H18S15161   5.446   3.079   9.454 -0.9157 -0.0078  0.5697
  139SAPE  C21915162   5.526   2.878   9.453 -0.7132 -0.4187 -0.7533
  139SAPE  H19R15163   5.440   2.824   9.407 -2.6349  2.7182 -0.9884
  139SAPE  H19S15164   5.576   2.818   9.533  0.8845 -0.1759 -1.5571
  139SAPE  C22015165   5.624   2.916   9.343 -0.1167 -0.1503 -0.0067
  139SAPE  H20R15166   5.712   2.971   9.381  0.9155  0.7079 -3.3968
  139SAPE  H20S15167   5.587   2.983   9.261  0.5572  2.7232  1.9826
  139SAPE  H20T15168   5.670   2.824   9.301 -0.6274  0.7474 -2.6320
  139SAPE   C3315169   4.155   2.599   9.866  0.0808 -0.6103 -0.0324
  139SAPE   H3X15170   4.239   2.556   9.925  2.4211  1.0953 -2.0319
  139SAPE   H3Y15171   4.173   2.705   9.838 -1.5648  0.0792  1.4319
  139SAPE   C3415172   4.148   2.519   9.730  0.8445  0.1588  0.6090
  139SAPE   H4X15173   4.042   2.529   9.697  1.6729 -0.0012 -2.2424
  139SAPE   H4Y15174   4.161   2.410   9.748 -3.1874 -0.6435 -0.7588
  139SAPE   C3515175   4.239   2.580   9.626  0.0803  0.0221 -0.3630
  139SAPE   H5X15176   4.342   2.554   9.658  0.1441 -1.7060 -1.8608
  139SAPE   H5Y15177   4.231   2.690   9.618  0.8872  0.3962  3.0896
  139SAPE   C3615178   4.200   2.526   9.482  0.3165  0.0560 -0.0647
  139SAPE   H6X15179   4.101   2.568   9.455  0.1763  0.7118  1.4329
  139SAPE   H6Y15180   4.193   2.416   9.482 -0.8449  0.1126  1.8919
  139SAPE   C3715181   4.311   2.571   9.386  0.0103 -0.1943 -0.2353
  139SAPE   H7X15182   4.401   2.518   9.424  0.6541  0.7183 -0.4600
  139SAPE   H7Y15183   4.330   2.680   9.398 -0.4985 -0.1257 -0.0686
  139SAPE   C3815184   4.273   2.548   9.245  0.5688 -0.0099  0.7454
  139SAPE   H8X15185   4.185   2.606   9.209  0.3160  0.6240  2.3352
  139SAPE   H8Y15186   4.229   2.447   9.237  0.6864 -0.0201  0.2345
  139SAPE   C3915187   4.393   2.560   9.154 -0.0875 -0.1125  0.2842
  139SAPE   H9X15188   4.465   2.482   9.185  0.8305 -0.1376 -1.8348
  139SAPE   H9Y15189   4.456   2.651   9.166 -0.1424 -0.0729  0.2767
  139SAPE  C31015190   4.353   2.548   9.006 -0.1186  0.1476  0.1732
  139SAPE  H10X15191   4.280   2.628   8.981 -0.1815 -0.4131 -1.5233
  139SAPE  H10Y15192   4.314   2.446   8.984 -2.8390  1.3243 -0.6306
  139SAPE  C31115193   4.481   2.575   8.929 -0.2280  0.1870  0.2774
  139SAPE  H11X15194   4.562   2.504   8.957 -2.1694 -1.5917  1.5392
  139SAPE  H11Y15195   4.523   2.672   8.965  0.3935  0.4243 -1.0773
  139SAPE  C31215196   4.463   2.561   8.779  0.0047 -0.0306  0.7804
  139SAPE  H12X15197   4.363   2.608   8.770  0.5089  0.3518 -4.0658
  139SAPE  H12Y15198   4.483   2.458   8.741 -0.2738  0.8282 -1.8120
  139SAPE  C31315199   4.554   2.663   8.705  0.4387 -0.3554 -0.8675
  139SAPE  H13X15200   4.659   2.631   8.718  0.7913  0.7421 -1.0271
  139SAPE  H13Y15201   4.541   2.761   8.756  0.3299 -1.6955  1.7605
  139SAPE  C31415202   4.532   2.678   8.552  0.3930 -0.1030  0.5579
  139SAPE  H14X15203   4.447   2.750   8.549 -0.0713 -0.6807 -0.7571
  139SAPE  H14Y15204   4.504   2.581   8.507  1.1490  0.1195 -0.4133
  139SAPE  C31515205   4.644   2.733   8.465  0.2719  0.2035  0.0616
  139SAPE  H15X15206   4.736   2.673   8.483  1.0970  0.9025 -1.6664
  139SAPE  H15Y15207   4.660   2.840   8.491 -2.2636  0.3819  0.9394
  139SAPE  C31615208   4.616   2.730   8.308  0.4898  0.3179  0.0752
  139SAPE  H16X15209   4.693   2.787   8.251  0.2628 -0.3168 -0.8898
  139SAPE  H16Y15210   4.634   2.624   8.283  0.6350 -0.2076  2.3505
  139SAPE  C31715211   4.479   2.779   8.265  0.4584 -0.7598 -0.6885
  139SAPE  H17X15212   4.470   2.886   8.296 -0.3036 -1.4902  1.7176
  139SAPE  H17Y15213   4.406   2.714   8.318  1.6895 -0.8571  0.9174
  139SAPE  C31815214   4.462   2.759   8.111 -0.0202 -0.3393  0.0022
  139SAPE  H18X15215   4.440   2.653   8.086 -1.8912 -0.3412  1.5887
  139SAPE  H18Y15216   4.546   2.795   8.047 -3.7534  0.3320 -4.8873
  139SAPE  H18Z15217   4.370   2.811   8.077  0.2499  0.5023  0.5515
  140SAPE     N15218   1.130   5.897  10.990 -0.3318  0.7015 -0.6441
  140SAPE   HN115219   1.141   5.999  11.007 -2.8688  0.9205 -0.1392
  140SAPE   HN215220   1.066   5.863  11.064  0.3291  0.0061 -0.3873
  140SAPE   HN315221   1.219   5.845  11.005 -0.0725  1.1658 -0.5909
  140SAPE   C1215222   1.054   5.874  10.856  0.3130 -0.2485  0.3253
  140SAPE  H12A15223   0.993   5.781  10.861 -3.0758  1.8697 -0.2472
  140SAPE  H12B15224   1.130   5.876  10.774 -1.3450 -1.6452 -1.2886
  140SAPE   C1115225   0.953   5.986  10.849 -0.1222 -0.2297  0.6098
  140SAPE  H11A15226   0.902   5.977  10.751  2.7504  0.8966 -1.0693
  140SAPE  H11B15227   0.996   6.089  10.846  0.1615 -0.3294  1.2251
  140SAPE     P15228   0.772   6.104  10.991 -0.2886  0.3113  0.2058
  140SAPE   O1315229   0.679   6.076  11.105 -0.0518 -0.1907  0.4137
  140SAPE   O1415230   0.870   6.216  10.996  0.0345 -0.3117  0.0869
  140SAPE   O1215231   0.860   5.974  10.960  0.7116  0.1335 -0.0246
  140SAPE   O1115232   0.691   6.124  10.856  0.4418 -0.4435 -0.3575
  140SAPE    C115233   0.553   6.077  10.845 -0.8203 -0.3248  0.3246
  140SAPE    HA15234   0.491   6.065  10.936 -0.1478  0.0552  0.8403
  140SAPE    HB15235   0.509   6.157  10.781  0.2119 -0.7666 -0.9797
  140SAPE    C215236   0.548   5.951  10.764  0.7717 -0.4059 -0.1324
  140SAPE    HS15237   0.615   5.882  10.820 -0.7331 -3.5985 -2.1179
  140SAPE   O2115238   0.609   5.974  10.635  0.4932 -0.5293 -0.4847
  140SAPE   C2115239   0.664   5.874  10.572  0.2296  0.2742  0.2853
  140SAPE   O2215240   0.686   5.763  10.624  0.3426  0.2249 -0.5614
  140SAPE   C2215241   0.685   5.907  10.419  0.8976  0.5164 -0.2417
  140SAPE   H2R15242   0.587   5.933  10.374  0.1789 -0.0701  0.9459
  140SAPE   H2S15243   0.752   5.995  10.414 -1.0238  2.4026  4.4252
  140SAPE    C315244   0.403   5.897  10.760  0.3942 -0.5657 -0.5950
  140SAPE    HX15245   0.347   5.936  10.847 -0.0016 -0.9044 -0.6960
  140SAPE    HY15246   0.404   5.787  10.777  1.4773 -0.2296  1.7924
  140SAPE   O3115247   0.340   5.918  10.630 -0.2174 -0.3893 -0.1636
  140SAPE   C3115248   0.277   6.037  10.617  0.0982  0.6429 -0.1929
  140SAPE   O3215249   0.256   6.125  10.703  0.5280  0.4254  0.8225
  140SAPE   C3215250   0.211   6.053  10.483  0.1706  0.3166 -0.0760
  140SAPE   H2X15251   0.209   5.954  10.432 -0.3281  1.5265 -2.5063
  140SAPE   H2Y15252   0.281   6.121  10.431 -0.5919  1.7737  0.7824
  140SAPE   C2315253   0.742   5.776  10.362 -0.0165 -0.0412  0.2008
  140SAPE   H3R15254   0.670   5.693  10.377 -0.1680 -0.2940 -1.8115
  140SAPE   H3S15255   0.825   5.730  10.419  0.2816 -1.1344 -1.0908
  140SAPE   C2415256   0.770   5.782  10.212  0.9189 -0.0679 -0.0952
  140SAPE   H4R15257   0.853   5.718  10.174  1.6452  2.0780 -2.2162
  140SAPE   H4S15258   0.797   5.889  10.198 -1.1454  0.2724 -1.6115
  140SAPE   C2515259   0.638   5.747  10.145  0.1305 -0.0897  0.0913
  140SAPE   H5R15260   0.545   5.757  10.202  1.0614 -2.0479  2.0295
  140SAPE   C2615261   0.629   5.702  10.018 -0.4693 -0.1150  0.2804
  140SAPE   H6R15262   0.531   5.673   9.978 -0.8360  1.4132  0.0320
  140SAPE   C2715263   0.738   5.692   9.916 -0.4777  0.4300 -0.1460
  140SAPE   H7R15264   0.818   5.762   9.949  0.2011  0.8098 -2.5093
  140SAPE   H7S15265   0.709   5.737   9.819 -2.3598  0.8865  0.6084
  140SAPE   C2815266   0.793   5.551   9.896  0.7015  0.2536  0.5600
  140SAPE   H8R15267   0.890   5.528   9.945  0.3260 -0.8765  0.7817
  140SAPE   C2915268   0.747   5.459   9.805 -0.4403  0.0448 -0.1024
  140SAPE   H9R15269   0.793   5.360   9.788  1.6883  0.6254  1.9757
  140SAPE  C21015270   0.630   5.471   9.709 -0.3875 -0.0910 -0.4309
  140SAPE  H10R15271   0.562   5.552   9.744 -2.0310 -0.4684 -2.6005
  140SAPE  H10S15272   0.567   5.380   9.715 -1.9154  0.9747  0.1434
  140SAPE  C21115273   0.676   5.505   9.572  0.0691  0.2385  0.0919
  140SAPE  H11R15274   0.725   5.603   9.567  1.9617 -0.7514 -2.4469
  140SAPE  C21215275   0.659   5.434   9.458 -0.0604  0.0330  0.0066
  140SAPE  H12R15276   0.722   5.466   9.374  2.7167  0.6045  2.2326
  140SAPE  C21315277   0.586   5.307   9.436  0.2107  0.4774  0.0225
  140SAPE  H13R15278   0.492   5.318   9.378  1.1334  0.9749 -1.3735
  140SAPE  H13S15279   0.558   5.275   9.539  1.2598  1.8804  0.7637
  140SAPE  C21415280   0.697   5.213   9.389 -0.2968 -0.1119 -1.2610
  140SAPE  H14R15281   0.766   5.178   9.468  0.1361 -0.3222 -1.7253
  140SAPE  C21515282   0.724   5.187   9.259  0.0779  0.7499 -0.2123
  140SAPE  H15R15283   0.802   5.113   9.237 -1.7873 -0.8261 -1.6719
  140SAPE  C21615284   0.648   5.238   9.140  0.0729  0.0302  0.5546
  140SAPE  H16R15285   0.714   5.237   9.051  0.3664  1.4214  0.7432
  140SAPE  H16S15286   0.630   5.347   9.151  1.3670  0.3147 -0.0499
  140SAPE  C21715287   0.511   5.170   9.136 -0.8619  0.7642 -0.4896
  140SAPE  H17R15288   0.470   5.149   9.238 -0.3671  1.4655 -0.1428
  140SAPE  H17S15289   0.524   5.068   9.094  2.2302  1.2296 -0.8336
  140SAPE  C21815290   0.409   5.250   9.054  0.0641 -0.0383 -0.0297
  140SAPE  H18R15291   0.377   5.337   9.116 -2.2252 -0.1635 -0.9617
  140SAPE  H18S15292   0.320   5.185   9.041 -1.4429  2.3744 -2.5401
  140SAPE  C21915293   0.446   5.275   8.911 -0.7878 -0.0215  0.1749
  140SAPE  H19R15294   0.455   5.183   8.850  0.5458  1.4550 -1.9198
  140SAPE  H19S15295   0.538   5.336   8.897 -1.7657  1.2164 -1.0732
  140SAPE  C22015296   0.339   5.362   8.838 -0.0677  0.1708  0.1585
  140SAPE  H20R15297   0.378   5.374   8.735  3.4368  1.0608  1.4950
  140SAPE  H20S15298   0.324   5.463   8.883 -0.5058  0.5229 -0.7642
  140SAPE  H20T15299   0.242   5.311   8.822 -1.4536  2.6952  0.2816
  140SAPE   C3315300   0.063   6.114  10.481  0.2324 -0.0026  0.4672
  140SAPE   H3X15301   0.057   6.211  10.535 -0.3724 -0.0449  0.4812
  140SAPE   H3Y15302  -0.000   6.036  10.528 -0.5404  0.6596  0.5391
  140SAPE   C3415303   0.010   6.142  10.344  1.1381 -0.1037 -0.0636
  140SAPE   H4X15304  -0.100   6.142  10.334  1.4140 -0.9876 -4.0314
  140SAPE   H4Y15305   0.043   6.061  10.276 -0.5634 -0.4754 -0.4647
  140SAPE   C3515306   0.047   6.281  10.288  0.2604 -0.4386 -0.0937
  140SAPE   H5X15307   0.158   6.290  10.295  0.1635  0.6028  0.1838
  140SAPE   H5Y15308   0.002   6.355  10.356  0.0666  0.4014 -1.1192
  140SAPE   C3615309   0.010   6.311  10.139 -0.2436  0.0955 -0.2711
  140SAPE   H6X15310   0.011   6.421  10.129  2.0673 -0.0845 -2.5368
  140SAPE   H6Y15311  -0.099   6.289  10.138 -0.8307  2.8858 -1.8683
  140SAPE   C3715312   0.091   6.233  10.039  0.7136 -0.1052  0.9361
  140SAPE   H7X15313   0.115   6.131  10.077 -1.0111 -1.5242 -1.6655
  140SAPE   H7Y15314   0.191   6.275  10.015 -0.5983  0.3075 -4.2665
  140SAPE   C3815315   0.009   6.225   9.910 -0.3713  0.3891 -0.6660
  140SAPE   H8X15316  -0.008   6.328   9.872 -1.5765  0.8346  1.0304
  140SAPE   H8Y15317  -0.093   6.189   9.936 -1.1765  2.9277 -0.1461
  140SAPE   C3915318   0.078   6.143   9.804  0.9816 -0.3216 -0.4841
  140SAPE   H9X15319   0.064   6.036   9.829 -1.6678  0.5874  2.3614
  140SAPE   H9Y15320   0.188   6.158   9.809  0.9714 -0.2472 -0.4803
  140SAPE  C31015321   0.023   6.175   9.667 -0.2826  0.3684  0.1019
  140SAPE  H10X15322   0.044   6.282   9.644 -1.4756  0.7963  0.9697
  140SAPE  H10Y15323  -0.087   6.165   9.652 -0.2044  2.1725 -1.9971
  140SAPE  C31115324   0.080   6.085   9.554  0.0797  0.2356 -0.1960
  140SAPE  H11X15325   0.078   5.975   9.568  0.3663  0.0491 -1.5898
  140SAPE  H11Y15326   0.189   6.108   9.551 -0.2066  2.5429  3.5044
  140SAPE  C31215327   0.018   6.123   9.420 -0.2846 -0.4355 -0.1529
  140SAPE  H12X15328   0.026   6.233   9.407  3.2689 -0.4591  1.3812
  140SAPE  H12Y15329  -0.093   6.111   9.422 -0.3259  0.1349  2.3984
  140SAPE  C31315330   0.090   6.050   9.301  0.3167  0.3011 -0.3746
  140SAPE  H13X15331   0.070   5.941   9.309  1.0655  0.0353 -1.8340
  140SAPE  H13Y15332   0.197   6.071   9.320  0.7789 -2.3916  0.2370
  140SAPE  C31415333   0.058   6.094   9.160 -0.4324  0.4179  0.1727
  140SAPE  H14X15334   0.092   6.200   9.153 -3.2431  1.3006 -1.2254
  140SAPE  H14Y15335  -0.052   6.090   9.144 -0.1485  0.2378 -1.8561
  140SAPE  C31515336   0.138   6.021   9.046  0.4714 -0.0382  0.7922
  140SAPE  H15X15337   0.242   5.994   9.078  1.5560  1.4938 -1.3215
  140SAPE  H15Y15338   0.146   6.080   8.953 -0.3548 -0.4760  0.4400
  140SAPE  C31615339   0.080   5.887   9.000  1.1348 -0.0521 -0.1923
  140SAPE  H16X15340  -0.023   5.903   8.959  1.0801  0.5697  0.1883
  140SAPE  H16Y15341   0.066   5.823   9.090  1.3225 -1.0515 -0.8610
  140SAPE  C31715342   0.183   5.798   8.916  0.5262  0.0755 -0.4048
  140SAPE  H17X15343   0.135   5.715   8.860 -2.1088 -0.5322  2.5809
  140SAPE  H17Y15344   0.237   5.742   8.996 -0.3096 -1.0810 -0.6345
  140SAPE  C31815345   0.269   5.887   8.819 -0.0515 -0.4996 -0.5220
  140SAPE  H18X15346   0.208   5.937   8.741 -0.5856 -0.6926 -0.2321
  140SAPE  H18Y15347   0.346   5.830   8.764 -0.4009 -0.0262 -1.5235
  140SAPE  H18Z15348   0.320   5.971   8.872  0.7797 -0.5097 -1.3023
  141SAPE     N15349   0.670   0.237  10.799  0.2800 -0.0409 -0.4914
  141SAPE   HN115350   0.579   0.192  10.774  1.6634 -2.8046 -0.6843
  141SAPE   HN215351   0.646   0.282  10.889 -1.8659 -0.4346 -0.8188
  141SAPE   HN315352   0.697   0.306  10.725  2.0748  0.0119  0.2014
  141SAPE   C1215353   0.788   0.135  10.815 -0.3051 -0.1454 -0.7020
  141SAPE  H12A15354   0.809   0.146  10.924  0.8650  1.6627 -1.0806
  141SAPE  H12B15355   0.878   0.161  10.756  0.5531  3.1386  1.8843
  141SAPE   C1115356   0.734  -0.007  10.781 -0.1198  0.2540 -0.2335
  141SAPE  H11A15357   0.821  -0.076  10.784  0.5199  1.0593 -0.2910
  141SAPE  H11B15358   0.693  -0.004  10.678  0.0640 -0.2531 -0.3246
  141SAPE     P15359   0.615  -0.179  10.937 -0.0527  0.0046 -0.7461
  141SAPE   O1315360   0.730  -0.204  11.023 -0.4640 -0.4436  0.5520
  141SAPE   O1415361   0.479  -0.179  11.000 -0.0372  0.1932 -0.2333
  141SAPE   O1215362   0.626  -0.038  10.869 -0.0306  0.3281  0.1336
  141SAPE   O1115363   0.625  -0.278  10.815  0.1450  0.9918 -0.2151
  141SAPE    C115364   0.504  -0.335  10.753 -0.4437  0.5003  0.5510
  141SAPE    HA15365   0.496  -0.443  10.778  0.4830 -0.3154 -2.4809
  141SAPE    HB15366   0.405  -0.291  10.774 -1.5575 -0.3085 -2.7776
  141SAPE    C215367   0.529  -0.340  10.594  0.0518 -0.0501  0.2287
  141SAPE    HS15368   0.609  -0.414  10.573  0.4781 -0.0049  1.6339
  141SAPE   O2115369   0.555  -0.200  10.557  0.6807 -0.1785  0.0486
  141SAPE   C2115370   0.586  -0.184  10.434 -0.2638  0.2860  0.0880
  141SAPE   O2215371   0.617  -0.272  10.356  0.3623 -0.0219  0.2898
  141SAPE   C2215372   0.577  -0.032  10.388  0.4600  0.0195  0.2183
  141SAPE   H2R15373   0.474   0.002  10.364  1.5579  2.1122 -1.8041
  141SAPE   H2S15374   0.620   0.027  10.472  0.7507 -0.4920  0.4291
  141SAPE    C315375   0.401  -0.404  10.531 -0.0924 -0.4274 -0.2360
  141SAPE    HX15376   0.321  -0.330  10.552  1.1569  0.1830  2.7788
  141SAPE    HY15377   0.366  -0.495  10.585 -1.1740 -0.6147 -1.2409
  141SAPE   O3115378   0.409  -0.440  10.395  0.2469  0.1016  0.3252
  141SAPE   C3115379   0.487  -0.533  10.355 -0.6494 -0.4161  0.2847
  141SAPE   O3215380   0.559  -0.607  10.427 -0.5091 -0.5276  0.1053
  141SAPE   C3215381   0.462  -0.541  10.208  0.3713 -0.3865 -0.4024
  141SAPE   H2X15382   0.514  -0.461  10.150  0.4029  0.2955  0.5535
  141SAPE   H2Y15383   0.355  -0.522  10.183  0.0972 -3.2115 -1.5841
  141SAPE   C2315384   0.657   0.008  10.258  0.1884 -0.1106 -0.3132
  141SAPE   H3R15385   0.619  -0.051  10.171  0.8248 -0.6491 -0.2283
  141SAPE   H3S15386   0.759  -0.026  10.283  0.0711 -1.1426 -1.1866
  141SAPE   C2415387   0.655   0.157  10.227  0.9460  0.3524  0.1374
  141SAPE   H4R15388   0.720   0.192  10.144  1.1206  0.7845  0.4515
  141SAPE   H4S15389   0.709   0.203  10.312  3.1678  0.0949 -1.0851
  141SAPE   C2515390   0.523   0.228  10.214 -0.0467  0.3198  0.5870
  141SAPE   H5R15391   0.451   0.200  10.292 -0.6132 -1.1811 -0.4473
  141SAPE   C2615392   0.478   0.305  10.117  0.6106  0.0731  0.0812
  141SAPE   H6R15393   0.375   0.341  10.131  1.0515  1.9283 -1.3528
  141SAPE   C2715394   0.550   0.350   9.989  0.5826  0.7700 -1.0668
  141SAPE   H7R15395   0.479   0.328   9.906 -1.3289 -1.5713  1.1130
  141SAPE   H7S15396   0.648   0.302   9.972 -0.5246 -1.2484 -1.9061
  141SAPE   C2815397   0.591   0.490   9.995 -0.6269 -0.4059  0.3805
  141SAPE   H8R15398   0.625   0.522  10.095  0.7639  1.1812 -0.5742
  141SAPE   C2915399   0.583   0.586   9.897  0.3606  0.7449  0.2070
  141SAPE   H9R15400   0.617   0.688   9.916 -1.1826  0.9330  2.0994
  141SAPE  C21015401   0.532   0.559   9.757  0.7849  0.5838 -0.8974
  141SAPE  H10R15402   0.443   0.492   9.756  0.6807  0.5864  2.1799
  141SAPE  H10S15403   0.602   0.499   9.695 -0.2629 -2.2486  0.5319
  141SAPE  C21115404   0.511   0.694   9.686  0.1227 -0.0822 -0.2073
  141SAPE  H11R15405   0.463   0.775   9.743  0.9142  1.4486 -1.7012
  141SAPE  C21215406   0.527   0.713   9.551 -0.2431  0.7671 -0.0339
  141SAPE  H12R15407   0.498   0.813   9.514 -0.5619  0.7764  0.2430
  141SAPE  C21315408   0.581   0.609   9.449 -0.4335  0.1976 -0.5566
  141SAPE  H13R15409   0.651   0.537   9.497  1.4645  2.8832  0.8643
  141SAPE  H13S15410   0.646   0.665   9.380 -1.2339 -2.5499 -3.6654
  141SAPE  C21415411   0.479   0.537   9.362 -0.5935  0.2657  0.7531
  141SAPE  H14R15412   0.397   0.500   9.425  0.0188 -2.8319 -0.1575
  141SAPE  C21515413   0.478   0.508   9.226  0.2429 -1.0067  0.4742
  141SAPE  H15R15414   0.394   0.461   9.173 -0.4319  1.1247 -0.4009
  141SAPE  C21615415   0.584   0.548   9.124 -0.7825  0.0132  0.1445
  141SAPE  H16R15416   0.682   0.545   9.176  0.0133  2.3255 -1.1517
  141SAPE  H16S15417   0.575   0.648   9.076 -2.5645 -0.1462  0.1255
  141SAPE  C21715418   0.585   0.451   9.007 -0.5228 -0.9030  0.7596
  141SAPE  H17R15419   0.483   0.429   8.969 -1.3018 -1.0576  2.8681
  141SAPE  H17S15420   0.639   0.360   9.039  2.2307  0.3152 -0.2738
  141SAPE  C21815421   0.655   0.497   8.874 -0.4090 -0.7254  0.4781
  141SAPE  H18R15422   0.764   0.493   8.897 -0.5354 -0.0800  1.2284
  141SAPE  H18S15423   0.635   0.606   8.865 -0.9359 -0.8476  0.1890
  141SAPE  C21915424   0.614   0.418   8.755  0.3897 -0.0706 -0.6081
  141SAPE  H19R15425   0.523   0.468   8.716  0.7584  1.1342  0.0626
  141SAPE  H19S15426   0.589   0.316   8.792  0.0444 -0.1513 -1.0502
  141SAPE  C22015427   0.713   0.406   8.647 -0.0591 -0.1344  0.1218
  141SAPE  H20R15428   0.810   0.363   8.681  1.2616  0.3037 -2.8787
  141SAPE  H20S15429   0.730   0.509   8.609  0.9215  0.1134  1.2091
  141SAPE  H20T15430   0.688   0.345   8.557  4.2168 -2.4318  0.3685
  141SAPE   C3315431   0.490  -0.687  10.156 -0.7462 -0.0425 -0.2728
  141SAPE   H3X15432   0.403  -0.743  10.117 -0.1001 -2.4261  1.5833
  141SAPE   H3Y15433   0.513  -0.757  10.239  2.0081  0.5780 -0.4688
  141SAPE   C3415434   0.618  -0.697  10.069  0.8832 -0.5756 -0.4960
  141SAPE   H4X15435   0.619  -0.807  10.059 -2.2074 -0.8753  1.8413
  141SAPE   H4Y15436   0.701  -0.652  10.128 -0.7414 -0.3329  1.6668
  141SAPE   C3515437   0.604  -0.627   9.930 -0.3982 -0.8411 -0.1981
  141SAPE   H5X15438   0.704  -0.626   9.880  0.6041 -0.6448  1.7566
  141SAPE   H5Y15439   0.575  -0.523   9.955  0.0763 -0.6262 -0.5146
  141SAPE   C3615440   0.519  -0.698   9.829  0.4656 -0.4217  0.1742
  141SAPE   H6X15441   0.494  -0.634   9.742 -0.7562 -1.2709 -0.1095
  141SAPE   H6Y15442   0.418  -0.714   9.872  0.0278 -0.0412 -0.7031
  141SAPE   C3715443   0.584  -0.825   9.776  0.3063 -0.2558  0.3275
  141SAPE   H7X15444   0.582  -0.898   9.860  0.2618  0.2612  0.7833
  141SAPE   H7Y15445   0.689  -0.802   9.748  0.4935  0.7584  1.7744
  141SAPE   C3815446   0.518  -0.883   9.643  0.8208  0.4024  0.2147
  141SAPE   H8X15447   0.408  -0.883   9.659  0.4253 -1.4257 -2.2742
  141SAPE   H8Y15448   0.552  -0.988   9.625  0.0666  0.1607  0.1719
  141SAPE   C3915449   0.545  -0.790   9.516 -0.5403 -0.1537 -0.2783
  141SAPE   H9X15450   0.653  -0.764   9.525 -1.1724  2.0104  1.4505
  141SAPE   H9Y15451   0.486  -0.698   9.534  1.4611  1.3882 -1.3499
  141SAPE  C31015452   0.491  -0.848   9.386  0.0936 -0.0842 -0.4371
  141SAPE  H10X15453   0.512  -0.783   9.298  0.7381  1.3673  0.7712
  141SAPE  H10Y15454   0.380  -0.847   9.391  0.1258 -1.5164  1.1025
  141SAPE  C31115455   0.559  -0.978   9.352 -0.2352 -0.4446 -0.3431
  141SAPE  H11X15456   0.548  -1.054   9.433  1.6162  1.9480  2.2318
  141SAPE  H11Y15457   0.666  -0.955   9.336 -0.6770  3.8416  2.1302
  141SAPE  C31215458   0.504  -1.035   9.220 -0.2724  0.5239  0.0219
  141SAPE  H12X15459   0.509  -0.955   9.142  4.1599  0.5621  0.2305
  141SAPE  H12Y15460   0.401  -1.072   9.236 -0.3674 -0.2322 -2.1167
  141SAPE  C31315461   0.576  -1.172   9.184  0.2037 -0.2234  0.0230
  141SAPE  H13X15462   0.519  -1.245   9.246  0.6952 -0.7973 -0.1951
  141SAPE  H13Y15463   0.682  -1.168   9.216  0.4338 -0.7841 -0.6518
  141SAPE  C31415464   0.566  -1.197   9.039 -0.1119  0.6585 -0.5771
  141SAPE  H14X15465   0.465  -1.225   9.001 -0.3233  0.1444  0.3540
  141SAPE  H14Y15466   0.619  -1.292   9.021  0.1184  0.0735  2.8225
  141SAPE  C31515467   0.631  -1.088   8.954  0.5101 -0.2025 -0.3252
  141SAPE  H15X15468   0.709  -1.041   9.017 -0.7163 -1.4961  2.2428
  141SAPE  H15Y15469   0.550  -1.013   8.937 -1.0121 -1.9700 -1.0792
  141SAPE  C31615470   0.674  -1.146   8.817 -0.4791 -0.5594  0.2261
  141SAPE  H16X15471   0.699  -1.253   8.832 -2.8371 -1.2854 -0.7900
  141SAPE  H16Y15472   0.763  -1.084   8.793  0.5729 -1.9425  0.5303
  141SAPE  C31715473   0.574  -1.128   8.703 -0.0196  0.0454  0.1014
  141SAPE  H17X15474   0.544  -1.021   8.701 -1.5161 -0.3000  2.8767
  141SAPE  H17Y15475   0.480  -1.183   8.726 -0.0126 -1.6818 -3.5773
  141SAPE  C31815476   0.619  -1.172   8.559 -0.0155 -0.3274  0.3142
  141SAPE  H18X15477   0.713  -1.118   8.533 -0.5360 -0.8541 -2.9507
  141SAPE  H18Y15478   0.552  -1.142   8.476 -1.5398  1.2636  2.0694
  141SAPE  H18Z15479   0.640  -1.281   8.553 -0.1084 -0.6157  4.0601
  142SAPE     N15480   0.861   6.396  10.796  0.3980  0.0640 -0.2295
  142SAPE   HN115481   0.878   6.329  10.873  1.7296 -1.9814 -2.2230
  142SAPE   HN215482   0.767   6.437  10.814  0.6361  0.5170 -0.0155
  142SAPE   HN315483   0.850   6.342  10.707  1.2852 -2.8961  1.3900
  142SAPE   C1215484   0.977   6.484  10.790 -0.3433 -0.1289  0.0715
  142SAPE  H12A15485   0.971   6.561  10.870  5.1133  0.3241  0.2009
  142SAPE  H12B15486   0.980   6.541  10.694  2.3352  0.4343  0.4497
  142SAPE   C1115487   1.109   6.409  10.788 -0.6457  0.2713  0.6752
  142SAPE  H11A15488   1.185   6.478  10.744 -2.0091  0.4615 -1.4550
  142SAPE  H11B15489   1.103   6.326  10.715 -0.6358 -0.2277  1.2434
  142SAPE     P15490   1.256   6.253  10.946  0.1854  0.3462 -0.3110
  142SAPE   O1315491   1.378   6.322  10.980 -0.2739  0.1402 -0.3326
  142SAPE   O1415492   1.197   6.159  11.046 -0.0384 -0.3912 -0.1851
  142SAPE   O1215493   1.146   6.358  10.919  0.6378 -0.1154 -0.4495
  142SAPE   O1115494   1.280   6.164  10.815  0.3151 -0.9546 -0.8842
  142SAPE    C115495   1.371   6.204  10.719  0.0524 -0.3419 -0.5470
  142SAPE    HA15496   1.328   6.290  10.664 -1.2680 -1.5773 -1.4636
  142SAPE    HB15497   1.467   6.239  10.764 -1.5664  1.3515  1.7215
  142SAPE    C215498   1.402   6.090  10.622 -0.0211  0.1750 -0.6194
  142SAPE    HS15499   1.451   6.133  10.532 -0.7524  1.3437 -0.4596
  142SAPE   O2115500   1.282   6.018  10.576 -0.3314 -0.1949 -0.4467
  142SAPE   C2115501   1.205   6.095  10.500 -0.0794  0.0966 -0.6430
  142SAPE   O2215502   1.221   6.208  10.466 -0.2615 -0.1582  0.3390
  142SAPE   C2215503   1.080   6.020  10.461  0.2152 -0.1896 -0.1415
  142SAPE   H2R15504   1.055   5.956  10.548 -0.0110 -1.0822 -0.8503
  142SAPE   H2S15505   0.998   6.094  10.446  1.3807  1.5693  1.9063
  142SAPE    C315506   1.488   5.985  10.685 -0.4821  0.6261  0.9440
  142SAPE    HX15507   1.448   5.933  10.775 -3.2118 -2.2858 -1.8385
  142SAPE    HY15508   1.581   6.030  10.724  0.2332  0.9708 -1.1379
  142SAPE   O3115509   1.510   5.878  10.588  0.0708 -0.4439  0.1193
  142SAPE   C3115510   1.609   5.914  10.499  0.0640  0.6848  0.0163
  142SAPE   O3215511   1.677   6.013  10.508 -0.2144 -0.4849 -0.0221
  142SAPE   C3215512   1.611   5.815  10.379 -0.2500 -0.0569  0.6105
  142SAPE   H2X15513   1.511   5.768  10.368  0.0006 -0.1348 -1.6080
  142SAPE   H2Y15514   1.676   5.727  10.402 -1.8390 -1.1321  1.0932
  142SAPE   C2315515   1.102   5.938  10.328  0.9393 -0.2349  0.1282
  142SAPE   H3R15516   1.006   5.885  10.309 -0.0965  1.5353  0.3555
  142SAPE   H3S15517   1.171   5.855  10.354  0.5175 -1.1474 -1.6032
  142SAPE   C2415518   1.153   6.026  10.208 -0.0755 -0.3485  0.8408
  142SAPE   H4R15519   1.158   5.953  10.125 -0.9255 -0.2721  0.7207
  142SAPE   H4S15520   1.260   6.056  10.220 -0.2983  0.6589  0.3807
  142SAPE   C2515521   1.064   6.137  10.165 -0.4084 -0.1581 -0.2651
  142SAPE   H5R15522   1.054   6.218  10.238 -0.1618  1.4374 -1.9470
  142SAPE   C2615523   0.995   6.146  10.052 -0.8285 -0.1667  0.3622
  142SAPE   H6R15524   0.926   6.231  10.040  0.3246  1.1448  2.5999
  142SAPE   C2715525   1.000   6.047   9.941  0.0520 -0.3670 -0.0554
  142SAPE   H7R15526   0.917   5.975   9.954  0.0295 -0.5597 -1.2546
  142SAPE   H7S15527   1.092   5.985   9.936  1.6633  1.9468 -0.0500
  142SAPE   C2815528   0.981   6.124   9.809  0.1177  0.3623 -0.3621
  142SAPE   H8R15529   1.004   6.232   9.813 -0.5234  0.4364  1.6143
  142SAPE   C2915530   0.974   6.071   9.687 -0.0481  0.5984 -0.9056
  142SAPE   H9R15531   0.972   6.139   9.601 -0.5193  1.4015 -0.2731
  142SAPE  C21015532   0.962   5.924   9.656 -0.1764 -0.3785 -0.6473
  142SAPE  H10R15533   0.877   5.901   9.588 -1.3020  0.7890  0.3201
  142SAPE  H10S15534   0.948   5.853   9.740  0.4330 -0.2580 -0.4411
  142SAPE  C21115535   1.097   5.902   9.585 -0.1548 -0.0034  0.5188
  142SAPE  H11R15536   1.188   5.940   9.634 -0.6574 -1.0121  2.2454
  142SAPE  C21215537   1.118   5.847   9.459 -0.2670  0.3715 -0.2760
  142SAPE  H12R15538   1.223   5.851   9.426  0.3645  1.5405  1.7624
  142SAPE  C21315539   1.012   5.787   9.371 -0.2305  0.4609  0.4677
  142SAPE  H13R15540   0.943   5.721   9.427 -1.0582 -1.3664 -2.5406
  142SAPE  H13S15541   1.054   5.715   9.297 -3.0514 -0.6811 -0.1071
  142SAPE  C21415542   0.930   5.898   9.295 -0.1535 -0.5356  0.7732
  142SAPE  H14R15543   0.856   5.951   9.355  0.7761 -0.5188  1.9292
  142SAPE  C21515544   0.957   5.935   9.168 -0.2675  0.1394 -0.3743
  142SAPE  H15R15545   0.891   6.011   9.124 -2.0105  0.3139  2.3921
  142SAPE  C21615546   1.058   5.871   9.073  1.1802  0.2780 -0.6330
  142SAPE  H16R15547   1.056   5.762   9.092  3.2123  0.6004  1.6206
  142SAPE  H16S15548   1.160   5.906   9.097  1.7058 -0.0756 -2.2812
  142SAPE  C21715549   1.013   5.907   8.931 -0.4499 -0.2290 -0.0712
  142SAPE  H17R15550   0.911   5.881   8.895  0.0337 -0.5000 -1.2954
  142SAPE  H17S15551   1.082   5.837   8.877  1.5502  0.2527  1.7980
  142SAPE  C21815552   1.055   6.059   8.895 -0.3541  0.7478 -0.0353
  142SAPE  H18R15553   1.161   6.070   8.926 -0.1163 -0.2449 -0.4950
  142SAPE  H18S15554   0.994   6.134   8.951 -1.2642 -1.7501  2.4326
  142SAPE  C21915555   1.062   6.093   8.754 -0.6501 -0.2099  0.2297
  142SAPE  H19R15556   0.966   6.069   8.703 -0.4955  1.9725 -1.1541
  142SAPE  H19S15557   1.142   6.034   8.705 -1.7602  0.5310 -2.6123
  142SAPE  C22015558   1.088   6.245   8.719  0.0365  0.0059  0.9436
  142SAPE  H20R15559   0.996   6.301   8.744 -0.8578 -1.3830  0.7847
  142SAPE  H20S15560   1.101   6.265   8.611 -1.3175  1.3419  1.0014
  142SAPE  H20T15561   1.173   6.292   8.773 -0.3269  0.1450  1.3922
  142SAPE   C3315562   1.666   5.899  10.263 -0.0692 -0.0915 -0.2753
  142SAPE   H3X15563   1.766   5.947  10.278  0.0432  0.7190 -3.2568
  142SAPE   H3Y15564   1.598   5.984  10.244  1.0843  0.8532 -0.2741
  142SAPE   C3415565   1.693   5.806  10.141 -0.2604 -0.3864 -0.1191
  142SAPE   H4X15566   1.601   5.752  10.112  1.3303 -2.1165 -2.0465
  142SAPE   H4Y15567   1.758   5.724  10.178 -2.1515 -2.0138 -0.3224
  142SAPE   C3515568   1.742   5.885  10.020  0.6211  0.7143  0.8287
  142SAPE   H5X15569   1.827   5.835   9.968 -1.1060 -1.8757  0.3597
  142SAPE   H5Y15570   1.766   5.989  10.049 -1.9800  0.9599  2.2916
  142SAPE   C3615571   1.643   5.899   9.896 -0.3301  0.2698 -1.1953
  142SAPE   H6X15572   1.688   5.979   9.833 -1.4340  2.2180  0.4004
  142SAPE   H6Y15573   1.547   5.946   9.929  0.3620  0.8014  0.0850
  142SAPE   C3715574   1.628   5.779   9.807  0.3474 -0.1671  0.1940
  142SAPE   H7X15575   1.584   5.699   9.870 -2.2131  0.3441 -0.9052
  142SAPE   H7Y15576   1.727   5.747   9.767  0.0593 -1.1272  0.2324
  142SAPE   C3815577   1.553   5.804   9.670 -0.0484  0.6623 -0.1301
  142SAPE   H8X15578   1.443   5.809   9.684 -0.2403 -2.5757 -0.2011
  142SAPE   H8Y15579   1.567   5.716   9.603 -0.8377 -0.2198  0.8615
  142SAPE   C3915580   1.604   5.933   9.596 -0.0992 -0.3695  0.1955
  142SAPE   H9X15581   1.713   5.917   9.583  0.0820 -0.6731  2.0300
  142SAPE   H9Y15582   1.583   6.022   9.659  1.0192  0.7552 -0.9724
  142SAPE  C31015583   1.526   5.944   9.467 -0.6232  0.1976 -0.2027
  142SAPE  H10X15584   1.419   5.954   9.498  0.2478 -1.1378  3.5422
  142SAPE  H10Y15585   1.523   5.844   9.420  0.6763  1.3730 -2.8868
  142SAPE  C31115586   1.570   6.057   9.375 -0.7479 -0.4757 -0.4009
  142SAPE  H11X15587   1.681   6.065   9.369 -0.8013 -0.2986 -1.2124
  142SAPE  H11Y15588   1.541   6.156   9.417  1.8385  0.7867 -1.4961
  142SAPE  C31215589   1.499   6.042   9.240  0.8533 -0.0486  0.0144
  142SAPE  H12X15590   1.389   6.047   9.254  0.6033 -1.0518 -1.5096
  142SAPE  H12Y15591   1.513   5.941   9.197  3.0584 -0.0946  0.7674
  142SAPE  C31315592   1.543   6.144   9.135 -0.4474  0.3528 -0.5243
  142SAPE  H13X15593   1.651   6.132   9.110 -0.6446 -2.8727 -0.1194
  142SAPE  H13Y15594   1.519   6.238   9.188 -1.3838 -1.1359  1.7651
  142SAPE  C31415595   1.475   6.112   9.004  0.4269  0.3517  0.2836
  142SAPE  H14X15596   1.367   6.122   9.027  0.4293 -0.3102  0.5813
  142SAPE  H14Y15597   1.503   6.009   8.974 -3.0405 -0.9457  1.2992
  142SAPE  C31515598   1.515   6.215   8.896  0.0193  0.4321  0.9424
  142SAPE  H15X15599   1.625   6.232   8.896 -0.1076  1.3679 -1.7550
  142SAPE  H15Y15600   1.461   6.307   8.928 -1.0920  1.1125 -2.7435
  142SAPE  C31615601   1.470   6.184   8.753 -0.2640 -0.1545 -0.3460
  142SAPE  H16X15602   1.443   6.275   8.696  0.5649 -0.0661 -0.6099
  142SAPE  H16Y15603   1.373   6.130   8.751 -0.6580  0.5643 -3.3499
  142SAPE  C31715604   1.566   6.099   8.673  0.4183  0.1089 -0.3297
  142SAPE  H17X15605   1.572   6.003   8.729  0.3624  0.7676  0.8175
  142SAPE  H17Y15606   1.669   6.139   8.683  0.1383  0.7809 -0.1372
  142SAPE  C31815607   1.521   6.081   8.534  0.3136 -0.3112 -0.0278
  142SAPE  H18X15608   1.432   6.016   8.520  1.1424 -1.2169 -1.2353
  142SAPE  H18Y15609   1.597   6.023   8.478  0.3238 -1.3195  1.0066
  142SAPE  H18Z15610   1.501   6.177   8.481  0.2001 -0.6453 -0.6077
  143SAPE     N15611   3.364   6.630  11.338  0.3322  0.0851  0.8071
  143SAPE   HN115612   3.311   6.549  11.299  1.1673  0.7033 -1.7211
  143SAPE   HN215613   3.450   6.579  11.365 -0.3047 -1.2672  0.3302
  143SAPE   HN315614   3.321   6.677  11.421  0.2639  0.6059  0.4786
  143SAPE   C1215615   3.425   6.730  11.239  0.2592 -0.0357  0.4327
  143SAPE  H12A15616   3.533   6.735  11.264 -0.1085 -0.7989  2.3257
  143SAPE  H12B15617   3.374   6.826  11.263 -0.3050 -0.3061  0.3170
  143SAPE   C1115618   3.399   6.687  11.095  0.5198 -0.4179  0.4603
  143SAPE  H11A15619   3.466   6.603  11.066  0.8431 -0.5946  1.6916
  143SAPE  H11B15620   3.421   6.768  11.022  0.5033 -0.1779  0.7227
  143SAPE     P15621   3.202   6.601  10.946  0.1863 -0.3336 -0.0549
  143SAPE   O1315622   3.061   6.590  10.976  0.0623 -0.0294  0.0600
  143SAPE   O1415623   3.240   6.688  10.838  0.0331 -0.7484  0.7410
  143SAPE   O1215624   3.266   6.641  11.080 -0.0387  0.2506 -0.5059
  143SAPE   O1115625   3.252   6.453  10.936  0.0289  0.2864  0.5368
  143SAPE    C115626   3.187   6.353  10.862 -0.1186 -0.1255 -0.8688
  143SAPE    HA15627   3.208   6.256  10.910  0.1222  0.4066  0.0989
  143SAPE    HB15628   3.076   6.365  10.865 -0.2196 -1.1980 -0.4266
  143SAPE    C215629   3.245   6.339  10.719 -0.0349  0.2828  0.1553
  143SAPE    HS15630   3.349   6.378  10.722  0.0716 -0.0311  1.0091
  143SAPE   O2115631   3.164   6.414  10.628 -0.0149 -0.0839 -0.3466
  143SAPE   C2115632   3.213   6.489  10.540  0.4418  0.8096 -0.9752
  143SAPE   O2215633   3.333   6.515  10.526 -0.8417  0.6634 -0.2187
  143SAPE   C2215634   3.093   6.539  10.456  0.4639  0.1348  0.4683
  143SAPE   H2R15635   3.000   6.506  10.507  0.0168  1.3000  0.4251
  143SAPE   H2S15636   3.093   6.650  10.460 -1.5172  0.1437  0.5054
  143SAPE    C315637   3.265   6.193  10.672 -0.5154  0.1529 -0.2838
  143SAPE    HX15638   3.169   6.138  10.679 -0.9892  1.0899  0.8784
  143SAPE    HY15639   3.326   6.145  10.752 -2.0525 -0.9801  0.2237
  143SAPE   O3115640   3.318   6.184  10.540  0.2640  0.3296 -0.0251
  143SAPE   C3115641   3.454   6.189  10.527  0.0167 -0.0639 -0.6056
  143SAPE   O3215642   3.540   6.212  10.611 -0.0420 -0.4408  0.0750
  143SAPE   C3215643   3.490   6.154  10.386 -0.1766 -0.2621  0.2575
  143SAPE   H2X15644   3.470   6.046  10.371  0.0069 -0.0189 -1.9529
  143SAPE   H2Y15645   3.600   6.170  10.380 -0.3966  0.5334 -2.2306
  143SAPE   C2315646   3.106   6.477  10.319 -0.6568 -0.5763  0.2310
  143SAPE   H3R15647   3.132   6.369  10.319 -2.0396 -0.9183 -0.4829
  143SAPE   H3S15648   3.187   6.531  10.265 -1.2497  0.4614  0.3823
  143SAPE   C2415649   2.968   6.485  10.241 -1.1166  0.5540  0.4782
  143SAPE   H4R15650   2.898   6.427  10.304 -0.7037 -0.7931 -0.2823
  143SAPE   H4S15651   2.982   6.431  10.144 -2.0219 -1.6812  1.5597
  143SAPE   C2515652   2.921   6.629  10.229  0.3184  0.1847 -0.6545
  143SAPE   H5R15653   2.896   6.676  10.325 -1.6002 -2.4636  0.1940
  143SAPE   C2615654   2.900   6.695  10.112  0.0520  0.1016 -0.5136
  143SAPE   H6R15655   2.875   6.802  10.111 -1.8336 -0.3079  0.4615
  143SAPE   C2715656   2.926   6.641   9.973 -0.2105  0.9104  0.4783
  143SAPE   H7R15657   2.867   6.693   9.894  0.7921  0.0220 -0.8699
  143SAPE   H7S15658   2.895   6.534   9.972  0.4146  0.7230  0.8433
  143SAPE   C2815659   3.067   6.670   9.943 -1.1851  0.5862 -0.0726
  143SAPE   H8R15660   3.129   6.674  10.034  0.7887  2.2251 -1.4431
  143SAPE   C2915661   3.118   6.693   9.826 -0.2911 -0.6036 -0.2943
  143SAPE   H9R15662   3.221   6.730   9.826  0.2036 -1.9452 -0.8506
  143SAPE  C21015663   3.043   6.692   9.694 -0.8032 -0.0831 -0.6924
  143SAPE  H10R15664   3.028   6.796   9.657  0.4094 -0.0806 -1.1746
  143SAPE  H10S15665   2.945   6.639   9.693 -1.6288  1.3729  1.0960
  143SAPE  C21115666   3.133   6.636   9.592  0.1093 -0.0387 -0.1671
  143SAPE  H11R15667   3.238   6.618   9.620  0.1477 -0.0498 -0.3141
  143SAPE  C21215668   3.101   6.619   9.458  0.3640 -0.4885  0.1459
  143SAPE  H12R15669   3.179   6.571   9.397 -1.0881 -0.6306 -1.6489
  143SAPE  C21315670   2.960   6.626   9.395  0.6262 -0.3727 -0.3621
  143SAPE  H13R15671   2.882   6.654   9.469  0.9637  0.8734 -0.4832
  143SAPE  H13S15672   2.931   6.522   9.369  1.4273 -0.5141 -0.7193
  143SAPE  C21415673   2.951   6.725   9.283 -0.1835 -0.1168 -0.7295
  143SAPE  H14R15674   2.942   6.829   9.317  1.9100 -0.4852  1.0474
  143SAPE  C21515675   2.930   6.694   9.154 -0.2364 -0.2885 -0.1366
  143SAPE  H15R15676   2.924   6.770   9.074 -0.1783 -0.6999 -0.5324
  143SAPE  C21615677   2.931   6.553   9.106 -0.2667  0.1960 -0.5882
  143SAPE  H16R15678   2.826   6.521   9.090 -0.5890  0.4116  0.9795
  143SAPE  H16S15679   2.994   6.486   9.169  0.4965  1.6652  0.2589
  143SAPE  C21715680   3.004   6.557   8.969  0.5097 -0.0571  0.2688
  143SAPE  H17R15681   3.102   6.609   8.978 -0.4827  1.5886  2.2116
  143SAPE  H17S15682   2.942   6.609   8.893  2.4478  1.3084 -0.4357
  143SAPE  C21815683   3.032   6.411   8.921 -1.1470 -0.3145  0.3841
  143SAPE  H18R15684   2.940   6.361   8.884 -0.3265 -0.6628 -1.2228
  143SAPE  H18S15685   3.081   6.356   9.004  0.6758  1.2509  0.3715
  143SAPE  C21915686   3.136   6.401   8.804  0.0986 -0.3454 -0.3733
  143SAPE  H19R15687   3.179   6.299   8.805  2.4487  0.6109 -1.4324
  143SAPE  H19S15688   3.222   6.466   8.831  0.3391 -0.6213 -0.4769
  143SAPE  C22015689   3.074   6.442   8.675  0.1639  0.3973 -0.3773
  143SAPE  H20R15690   3.135   6.402   8.591  3.8585  1.1164  1.8779
  143SAPE  H20S15691   3.070   6.551   8.655 -1.5557  0.4600  0.2039
  143SAPE  H20T15692   2.977   6.388   8.666  0.2471 -0.5269  3.4841
  143SAPE   C3315693   3.426   6.248  10.278 -0.5139  1.2266  0.5774
  143SAPE   H3X15694   3.455   6.352  10.304 -0.8197  1.6257 -0.6221
  143SAPE   H3Y15695   3.315   6.242  10.276 -0.3665 -1.9969 -1.7678
  143SAPE   C3415696   3.475   6.221  10.135 -0.3129 -0.0208 -0.0621
  143SAPE   H4X15697   3.443   6.117  10.110  1.8220 -0.0120 -3.1103
  143SAPE   H4Y15698   3.586   6.215  10.139 -0.3225 -0.1480  0.0079
  143SAPE   C3515699   3.417   6.318  10.021 -0.0555  0.3617 -0.7937
  143SAPE   H5X15700   3.460   6.416  10.050  0.6782  0.3620 -1.8584
  143SAPE   H5Y15701   3.308   6.332  10.035 -0.0745  0.7749 -1.3766
  143SAPE   C3615702   3.446   6.285   9.876 -0.1569  0.3841  0.2216
  143SAPE   H6X15703   3.399   6.186   9.859 -0.9611  0.4450  1.9259
  143SAPE   H6Y15704   3.556   6.293   9.865 -0.3041  0.0459 -1.6165
  143SAPE   C3715705   3.384   6.391   9.779 -0.5357 -0.0902  0.0661
  143SAPE   H7X15706   3.430   6.487   9.811 -0.4808 -0.2244  0.3874
  143SAPE   H7Y15707   3.276   6.395   9.803 -0.9222 -1.5857 -1.2949
  143SAPE   C3815708   3.393   6.353   9.636  0.3065  0.0675 -0.1328
  143SAPE   H8X15709   3.497   6.323   9.610 -0.2389  0.0925 -2.4139
  143SAPE   H8Y15710   3.368   6.440   9.571  1.7150 -1.3793 -2.6824
  143SAPE   C3915711   3.295   6.233   9.598  0.2167 -0.4688 -0.1291
  143SAPE   H9X15712   3.202   6.256   9.655 -0.3366 -2.5792 -0.1531
  143SAPE   H9Y15713   3.332   6.138   9.642 -0.2474  0.2492  1.9102
  143SAPE  C31015714   3.276   6.220   9.447 -0.3722  0.1826 -0.9803
  143SAPE  H10X15715   3.378   6.225   9.404 -0.0393 -2.2511 -0.5573
  143SAPE  H10Y15716   3.215   6.307   9.415 -0.4717  0.0389 -1.1857
  143SAPE  C31115717   3.199   6.092   9.409 -0.5291 -0.0958  0.2980
  143SAPE  H11X15718   3.099   6.104   9.457  0.4305  1.7065  1.8939
  143SAPE  H11Y15719   3.245   6.002   9.457 -0.2806 -0.5572 -0.7961
  143SAPE  C31215720   3.198   6.057   9.266  0.0744 -0.2388  0.3744
  143SAPE  H12X15721   3.283   5.996   9.228  0.7346  0.5828  0.5220
  143SAPE  H12Y15722   3.194   6.146   9.200  1.2502 -1.0511 -0.8173
  143SAPE  C31315723   3.067   5.979   9.234  0.0408  0.5175  0.1750
  143SAPE  H13X15724   2.982   6.041   9.269 -2.0267 -0.8127 -2.3851
  143SAPE  H13Y15725   3.060   5.886   9.294  2.8044 -0.7589 -1.4035
  143SAPE  C31415726   3.056   5.925   9.092 -0.0817  0.3993  0.1536
  143SAPE  H14X15727   3.141   5.861   9.062 -1.9341 -2.9014  1.6686
  143SAPE  H14Y15728   3.074   6.011   9.023  0.9292  0.4019  0.4122
  143SAPE  C31515729   2.927   5.854   9.068 -0.2023 -0.3649  0.3438
  143SAPE  H15X15730   2.851   5.919   9.116  0.8147 -0.0912  1.6039
  143SAPE  H15Y15731   2.942   5.758   9.121 -0.8486  0.6885  2.4858
  143SAPE  C31615732   2.901   5.815   8.924 -0.3680  0.4713 -0.3680
  143SAPE  H16X15733   2.987   5.761   8.878  0.1033  0.5422  0.4141
  143SAPE  H16Y15734   2.903   5.912   8.868  0.1356  1.3153  1.0971
  143SAPE  C31715735   2.766   5.756   8.900 -0.6986  0.4492  0.2984
  143SAPE  H17X15736   2.690   5.828   8.937 -0.6631  0.1631  0.9281
  143SAPE  H17Y15737   2.741   5.686   8.983 -0.1027  1.1144  1.0432
  143SAPE  C31815738   2.736   5.702   8.762  0.3586  0.4054 -0.8196
  143SAPE  H18X15739   2.650   5.631   8.760  1.4583 -1.0544  1.4023
  143SAPE  H18Y15740   2.825   5.647   8.725 -0.0822  0.2590 -1.6791
  143SAPE  H18Z15741   2.713   5.782   8.689 -0.9206  1.5529  0.8017
  144SAPE     N15742   6.382   3.720  10.828  0.1463 -0.2105 -0.0186
  144SAPE   HN115743   6.442   3.645  10.788  0.2501 -2.2253  3.7119
  144SAPE   HN215744   6.403   3.724  10.930 -1.1994  1.3746  0.2173
  144SAPE   HN315745   6.283   3.689  10.821 -0.5710  2.3912 -2.1722
  144SAPE   C1215746   6.408   3.854  10.766 -0.6821 -0.1565 -1.2416
  144SAPE  H12A15747   6.344   3.863  10.676 -2.9259  0.1977  0.3558
  144SAPE  H12B15748   6.516   3.875  10.747 -0.3618 -1.3557 -0.7957
  144SAPE   C1115749   6.347   3.972  10.847 -0.4965 -0.0895  0.2687
  144SAPE  H11A15750   6.399   3.965  10.945  0.4894 -2.1431 -0.3671
  144SAPE  H11B15751   6.240   3.956  10.875 -0.1104 -1.1281  1.1659
  144SAPE     P15752   6.475   4.199  10.831  0.2671 -0.2494  0.2610
  144SAPE   O1315753   6.405   4.298  10.913  0.0591 -0.1916 -0.2615
  144SAPE   O1415754   6.586   4.127  10.895  0.3660 -0.0754 -0.1938
  144SAPE   O1215755   6.369   4.099  10.778 -0.1533 -0.6748 -0.5835
  144SAPE   O1115756   6.541   4.260  10.705 -0.0153 -0.3438 -0.5874
  144SAPE    C115757   6.469   4.335  10.612  0.6903  0.3195  1.0689
  144SAPE    HA15758   6.404   4.413  10.657 -0.1053  1.4084 -1.8199
  144SAPE    HB15759   6.543   4.398  10.557 -1.4609  1.4061 -0.6183
  144SAPE    C215760   6.386   4.247  10.514 -1.0195  0.6739 -0.7104
  144SAPE    HS15761   6.307   4.201  10.578  0.3288 -0.1013  0.4369
  144SAPE   O2115762   6.468   4.146  10.448  0.6954  0.3794  0.1587
  144SAPE   C2115763   6.535   4.179  10.341  0.5085  0.7872 -0.4555
  144SAPE   O2215764   6.568   4.289  10.300 -0.1693  0.8883  0.3399
  144SAPE   C2215765   6.563   4.045  10.267  0.5158  0.0310 -1.0354
  144SAPE   H2R15766   6.650   3.997  10.315 -0.0138  0.6237  0.5469
  144SAPE   H2S15767   6.473   3.980  10.266  1.0572 -0.7320 -2.6934
  144SAPE    C315768   6.302   4.335  10.407 -0.5868 -0.4325  0.6591
  144SAPE    HX15769   6.369   4.411  10.363  1.3447 -2.0832  0.7001
  144SAPE    HY15770   6.220   4.392  10.457 -0.2025 -2.1221  3.2862
  144SAPE   O3115771   6.242   4.249  10.306 -0.7806 -0.1696 -0.3648
  144SAPE   C3115772   6.206   4.317  10.197  0.0777  0.2190  0.4229
  144SAPE   O3215773   6.224   4.438  10.173 -0.0164 -0.0533  0.2139
  144SAPE   C3215774   6.131   4.221  10.103 -0.5467  0.1073  0.6030
  144SAPE   H2X15775   6.020   4.232  10.106 -0.5083  0.7826 -0.3634
  144SAPE   H2Y15776   6.147   4.115  10.131  0.2593  0.2257  0.5916
  144SAPE   C2315777   6.611   4.062  10.126  0.3797  0.4263 -0.2772
  144SAPE   H3R15778   6.692   4.138  10.120  1.0789 -0.4504 -2.5233
  144SAPE   H3S15779   6.522   4.089  10.065 -0.5971 -1.2200  0.3667
  144SAPE   C2415780   6.679   3.937  10.063 -0.4183 -0.0118  0.2053
  144SAPE   H4R15781   6.774   3.920  10.119  0.4719  1.2790 -0.9061
  144SAPE   H4S15782   6.715   3.956   9.960  1.3893 -2.0592  0.4177
  144SAPE   C2515783   6.597   3.811  10.074 -0.5049 -0.4132 -1.3827
  144SAPE   H5R15784   6.592   3.761  10.172  1.6347 -0.5587 -1.3378
  144SAPE   C2615785   6.526   3.753   9.977  0.0004  0.8749  0.3364
  144SAPE   H6R15786   6.463   3.668  10.007 -0.7063  1.2392 -0.1093
  144SAPE   C2715787   6.522   3.792   9.833  0.8969 -0.8292  0.4688
  144SAPE   H7R15788   6.473   3.712   9.774 -0.3201 -0.2712  0.7015
  144SAPE   H7S15789   6.628   3.804   9.802  0.8469 -2.2882 -0.2749
  144SAPE   C2815790   6.457   3.929   9.802  0.5629 -0.8834  0.3329
  144SAPE   H8R15791   6.438   4.006   9.878  1.0599 -1.2508  0.8322
  144SAPE   C2915792   6.436   3.967   9.675  0.6446 -0.2283 -0.1613
  144SAPE   H9R15793   6.387   4.062   9.648 -1.8293 -0.7512  2.3214
  144SAPE  C21015794   6.480   3.882   9.556  0.0672 -0.8394 -0.8443
  144SAPE  H10R15795   6.576   3.831   9.580 -0.2177 -0.5261  1.0165
  144SAPE  H10S15796   6.515   3.955   9.480  2.0659 -0.2932  0.5463
  144SAPE  C21115797   6.389   3.777   9.499 -0.0447 -0.4865  0.7334
  144SAPE  H11R15798   6.301   3.756   9.561  0.2854 -3.4395  0.2868
  144SAPE  C21215799   6.393   3.724   9.371  0.5808 -0.7747  0.1062
  144SAPE  H12R15800   6.320   3.645   9.350  0.5097 -1.3208  2.3036
  144SAPE  C21315801   6.493   3.752   9.264  0.6389 -0.2758  0.0249
  144SAPE  H13R15802   6.536   3.661   9.217 -4.3452 -2.2321 -1.0393
  144SAPE  H13S15803   6.582   3.801   9.310  0.7650 -0.3673 -0.1217
  144SAPE  C21415804   6.447   3.861   9.163 -1.4599 -0.5148  0.1794
  144SAPE  H14R15805   6.395   3.936   9.224 -0.1872 -1.6709  2.8192
  144SAPE  C21515806   6.460   3.872   9.031 -0.6712  0.7415 -0.5349
  144SAPE  H15R15807   6.407   3.952   8.977  0.1014  1.7364  0.1546
  144SAPE  C21615808   6.512   3.769   8.938  0.0358  0.1393 -0.9571
  144SAPE  H16R15809   6.436   3.743   8.861  1.3090 -2.2144 -1.4402
  144SAPE  H16S15810   6.535   3.673   8.989  1.3930 -0.1608 -2.1035
  144SAPE  C21715811   6.636   3.820   8.872  0.1407 -0.4256 -0.1546
  144SAPE  H17R15812   6.687   3.734   8.824  0.2442  0.4408 -1.6252
  144SAPE  H17S15813   6.707   3.857   8.949 -1.3885  1.3774  0.4116
  144SAPE  C21815814   6.629   3.938   8.774  0.4691  0.0949  0.2731
  144SAPE  H18R15815   6.576   4.024   8.819  0.7073  1.8565 -2.6679
  144SAPE  H18S15816   6.565   3.897   8.692  1.0229 -3.7762  1.6716
  144SAPE  C21915817   6.770   3.988   8.722  0.1179 -0.0133  0.6740
  144SAPE  H19R15818   6.837   3.983   8.810 -0.9553  5.2943  1.9696
  144SAPE  H19S15819   6.752   4.094   8.691  2.2349  0.2455  0.2545
  144SAPE  C22015820   6.825   3.897   8.617 -0.1756  0.2255  0.2833
  144SAPE  H20R15821   6.755   3.907   8.531  0.7670  0.4922 -0.4761
  144SAPE  H20S15822   6.829   3.788   8.639 -0.1762 -0.3183 -2.2281
  144SAPE  H20T15823   6.921   3.928   8.571  0.6547 -1.7364  0.6534
  144SAPE   C3315824   6.160   4.249   9.950 -0.3503  0.2117 -0.0394
  144SAPE   H3X15825   6.267   4.232   9.923 -0.2837 -0.5980  0.7143
  144SAPE   H3Y15826   6.121   4.349   9.923  1.9664  1.2744  0.3932
  144SAPE   C3415827   6.077   4.144   9.869 -0.1971 -0.0195  0.3142
  144SAPE   H4X15828   5.973   4.148   9.907 -0.6563 -1.1036 -0.7712
  144SAPE   H4Y15829   6.109   4.042   9.900  1.1657  0.8030  1.6498
  144SAPE   C3515830   6.061   4.146   9.715  0.1648  0.8759 -0.2730
  144SAPE   H5X15831   6.157   4.138   9.660  0.5315 -1.0282  0.5917
  144SAPE   H5Y15832   6.022   4.247   9.689  1.1253  1.1072 -0.8541
  144SAPE   C3615833   5.969   4.033   9.664  0.7972 -0.0586  0.1177
  144SAPE   H6X15834   5.867   4.042   9.708  1.0096 -0.2251  0.6416
  144SAPE   H6Y15835   6.011   3.933   9.683  0.3465  0.0130  1.5391
  144SAPE   C3715836   5.952   4.064   9.514 -0.5147  0.5185 -0.1684
  144SAPE   H7X15837   5.943   4.175   9.507 -0.9725  0.4346 -0.9331
  144SAPE   H7Y15838   5.860   4.018   9.472  0.6308 -1.9657 -0.0588
  144SAPE   C3815839   6.072   4.017   9.425  0.7200  0.7590 -0.4026
  144SAPE   H8X15840   6.087   3.908   9.439  0.5080  0.5389 -1.7836
  144SAPE   H8Y15841   6.168   4.068   9.449  1.1558 -0.4710  0.4881
  144SAPE   C3915842   6.050   4.036   9.278 -0.1885 -0.4761  0.4895
  144SAPE   H9X15843   5.947   4.003   9.252  0.9189 -0.9867 -3.7431
  144SAPE   H9Y15844   6.128   3.976   9.227  0.6185  1.0428 -0.1040
  144SAPE  C31015845   6.070   4.181   9.227 -0.0222  0.3264 -0.7603
  144SAPE  H10X15846   6.165   4.221   9.269 -0.6871  0.3768  0.7002
  144SAPE  H10Y15847   5.985   4.239   9.268  0.8428 -0.0981  1.7502
  144SAPE  C31115848   6.097   4.202   9.075  0.0133 -0.0624  0.4842
  144SAPE  H11X15849   6.154   4.115   9.038 -1.4691 -0.5978 -0.5765
  144SAPE  H11Y15850   6.147   4.300   9.057  0.2863 -0.4352 -0.8546
  144SAPE  C31215851   5.968   4.219   8.996 -0.1650  0.2441 -0.6438
  144SAPE  H12X15852   5.914   4.311   9.029  1.5616  1.3697 -0.9126
  144SAPE  H12Y15853   5.910   4.125   9.005 -0.6293  0.5719 -0.1346
  144SAPE  C31315854   5.988   4.239   8.838 -0.2746 -0.7717 -1.0407
  144SAPE  H13X15855   6.067   4.317   8.830 -1.2816  0.3705 -0.0472
  144SAPE  H13Y15856   5.895   4.281   8.796 -0.4448 -1.3012 -1.1936
  144SAPE  C31415857   6.041   4.112   8.771 -0.5032 -0.1865 -0.2997
  144SAPE  H14X15858   5.954   4.049   8.744 -0.0232 -0.9852 -0.0027
  144SAPE  H14Y15859   6.092   4.049   8.848  0.0938  0.1822 -0.3866
  144SAPE  C31515860   6.130   4.132   8.649  0.0060 -0.5442 -0.6226
  144SAPE  H15X15861   6.218   4.193   8.678 -1.7915  1.2882  1.1744
  144SAPE  H15Y15862   6.070   4.189   8.575  1.5028 -0.2182 -1.5920
  144SAPE  C31615863   6.165   4.001   8.575  0.0869  0.4375 -0.4369
  144SAPE  H16X15864   6.185   3.926   8.654 -1.0162  1.0890  0.4765
  144SAPE  H16Y15865   6.253   4.024   8.511  0.8823  1.5177  1.0081
  144SAPE  C31715866   6.044   3.959   8.483 -0.3284 -0.1779 -0.1732
  144SAPE  H17X15867   5.985   4.044   8.442  0.2120 -1.1307 -3.0145
  144SAPE  H17Y15868   5.979   3.918   8.564  0.3217 -2.7982 -0.9247
  144SAPE  C31815869   6.073   3.857   8.374  0.8452 -0.7915 -0.3850
  144SAPE  H18X15870   6.129   3.768   8.411 -0.8186 -1.4697  0.5428
  144SAPE  H18Y15871   6.130   3.906   8.293 -1.6118  1.2920 -0.9081
  144SAPE  H18Z15872   5.975   3.832   8.326  0.4680  0.3938 -0.2291
  145SAPE     N15873   2.717   6.215  10.975 -0.6878  0.5108 -0.6095
  145SAPE   HN115874   2.631   6.166  10.942  0.4093 -0.5306 -1.9998
  145SAPE   HN215875   2.740   6.147  11.051  3.0020  0.6598 -1.5188
  145SAPE   HN315876   2.695   6.313  11.002 -2.2552  0.0152 -0.0630
  145SAPE   C1215877   2.832   6.200  10.877  0.0295 -0.1560  0.7960
  145SAPE  H12A15878   2.902   6.282  10.899  0.5709 -1.0056  2.3429
  145SAPE  H12B15879   2.786   6.211  10.776  0.9794 -0.5073  0.3239
  145SAPE   C1115880   2.892   6.057  10.875 -0.5293 -0.0972  0.0843
  145SAPE  H11A15881   2.971   6.057  10.797 -1.9991  1.5171 -1.4466
  145SAPE  H11B15882   2.814   5.982  10.848  0.4010 -0.5792 -1.3564
  145SAPE     P15883   2.892   5.946  11.113 -0.0897  0.1292 -0.2293
  145SAPE   O1315884   2.991   5.934  11.222 -0.1560 -0.0992  0.3136
  145SAPE   O1415885   2.760   6.007  11.137  0.3936 -0.6856 -0.1278
  145SAPE   O1215886   2.959   6.045  10.999  1.0793 -0.0055  0.1501
  145SAPE   O1115887   2.868   5.808  11.042 -0.0343  0.1236 -0.0054
  145SAPE    C115888   2.985   5.721  11.021  0.3095  0.6139  0.5308
  145SAPE    HA15889   3.065   5.738  11.096  0.1559 -1.0164  1.0773
  145SAPE    HB15890   2.951   5.616  11.026 -0.8580  0.8620 -1.4777
  145SAPE    C215891   3.040   5.742  10.878 -0.6924  0.3494 -0.3028
  145SAPE    HS15892   3.065   5.850  10.878  0.1211  0.1758  1.0355
  145SAPE   O2115893   2.934   5.697  10.789 -0.6535  0.3217 -0.4059
  145SAPE   C2115894   2.923   5.753  10.672  0.5983 -0.0245  0.7986
  145SAPE   O2215895   2.983   5.851  10.627  0.1215  0.0680  0.8541
  145SAPE   C2215896   2.827   5.672  10.588 -0.7127 -0.1862  0.5856
  145SAPE   H2R15897   2.846   5.563  10.599  1.3842 -0.2752 -2.9498
  145SAPE   H2S15898   2.728   5.700  10.631  0.2559  1.0924  2.0580
  145SAPE    C315899   3.174   5.658  10.850 -0.2495 -0.1794 -0.0669
  145SAPE    HX15900   3.159   5.553  10.886  1.2461 -0.6202 -0.7090
  145SAPE    HY15901   3.249   5.704  10.918 -0.3690 -0.5486  0.3190
  145SAPE   O3115902   3.204   5.665  10.700  0.1629 -0.4514 -0.7913
  145SAPE   C3115903   3.270   5.780  10.667  0.6069  0.3448 -0.8081
  145SAPE   O3215904   3.302   5.867  10.747 -0.0713 -0.3745 -0.0660
  145SAPE   C3215905   3.290   5.786  10.517 -1.0623 -0.0504  0.3023
  145SAPE   H2X15906   3.400   5.796  10.504 -1.0303  0.4640  0.9536
  145SAPE   H2Y15907   3.249   5.885  10.489 -0.7139 -0.1954 -0.7671
  145SAPE   C2315908   2.844   5.689  10.434  0.2086 -1.0177 -0.1891
  145SAPE   H3R15909   2.930   5.757  10.415 -2.1254  2.4189  0.9481
  145SAPE   H3S15910   2.754   5.737  10.389 -1.4752 -2.4345  1.5845
  145SAPE   C2415911   2.863   5.563  10.360  0.2908 -0.0766  0.1234
  145SAPE   H4R15912   2.771   5.503  10.377 -1.0172  1.5835 -0.9773
  145SAPE   H4S15913   2.938   5.495  10.405 -1.2150 -1.5790  0.4051
  145SAPE   C2515914   2.878   5.587  10.210 -0.0900  0.1845 -0.2275
  145SAPE   H5R15915   2.975   5.627  10.178  0.3096 -1.0010 -0.5207
  145SAPE   C2615916   2.769   5.580  10.116  0.1277  0.0225 -0.2258
  145SAPE   H6R15917   2.786   5.607  10.011 -1.1379  3.8924  0.4622
  145SAPE   C2715918   2.634   5.529  10.144  0.1837 -0.4574  0.7303
  145SAPE   H7R15919   2.631   5.475  10.241  1.8932 -1.3405  0.3117
  145SAPE   H7S15920   2.601   5.455  10.067  0.6468  0.8324 -0.7155
  145SAPE   C2815921   2.539   5.651  10.154 -0.4714  0.2283  0.4357
  145SAPE   H8R15922   2.553   5.727  10.232  0.6955 -1.1250  1.5767
  145SAPE   C2915923   2.424   5.661  10.079 -0.1710 -0.5520  0.3679
  145SAPE   H9R15924   2.352   5.741  10.103 -0.6515 -1.3225  1.5419
  145SAPE  C21015925   2.376   5.574   9.970  0.0608 -0.2898 -0.1096
  145SAPE  H10R15926   2.266   5.562   9.980 -0.3136  1.8179 -1.3905
  145SAPE  H10S15927   2.420   5.472   9.974  1.2684  0.2629  1.3203
  145SAPE  C21115928   2.408   5.640   9.834 -0.1382  0.3873  0.3378
  145SAPE  H11R15929   2.478   5.724   9.829  0.6087 -0.2458  0.1198
  145SAPE  C21215930   2.345   5.600   9.718  0.0679  0.4125 -0.7329
  145SAPE  H12R15931   2.356   5.645   9.618 -1.9771 -0.3259 -1.3137
  145SAPE  C21315932   2.242   5.491   9.715 -0.1978 -0.3234 -0.3420
  145SAPE  H13R15933   2.140   5.531   9.733  0.3071  0.5320  0.6483
  145SAPE  H13S15934   2.263   5.421   9.798 -0.2913  0.0350 -0.0148
  145SAPE  C21415935   2.228   5.406   9.588  0.5942  0.0177  1.0622
  145SAPE  H14R15936   2.296   5.320   9.589  0.9300  0.1657 -2.4937
  145SAPE  C21515937   2.137   5.423   9.487 -0.1458  0.5007  0.0048
  145SAPE  H15R15938   2.135   5.353   9.402  0.1308 -0.2774  0.6403
  145SAPE  C21615939   2.040   5.538   9.481  0.3471  0.0428  0.3322
  145SAPE  H16R15940   2.086   5.639   9.483 -0.1055  0.2605 -0.0524
  145SAPE  H16S15941   1.972   5.539   9.570 -0.4007 -0.6014 -0.2238
  145SAPE  C21715942   1.946   5.528   9.367 -0.2423 -0.7800 -0.5578
  145SAPE  H17R15943   1.901   5.428   9.352 -2.4945 -0.3075  2.6235
  145SAPE  H17S15944   1.989   5.553   9.267  0.5071 -0.7005 -0.2145
  145SAPE  C21815945   1.834   5.635   9.389 -0.4916 -0.3015  0.0990
  145SAPE  H18R15946   1.876   5.725   9.438 -2.0016  0.6683 -0.3413
  145SAPE  H18S15947   1.760   5.600   9.464 -2.2496  0.0402 -1.4318
  145SAPE  C21915948   1.765   5.684   9.263 -0.3703 -0.2837  0.7561
  145SAPE  H19R15949   1.840   5.718   9.188 -0.4851  0.9903  1.2025
  145SAPE  H19S15950   1.709   5.777   9.289 -0.4718 -0.2622  0.4663
  145SAPE  C22015951   1.676   5.577   9.189 -0.2316  0.1346 -0.1537
  145SAPE  H20R15952   1.732   5.500   9.131 -3.4707 -1.3724 -1.4488
  145SAPE  H20S15953   1.599   5.613   9.117  0.1167 -1.4199 -1.3387
  145SAPE  H20T15954   1.624   5.523   9.271  1.0925 -0.8144  0.0813
  145SAPE   C3315955   3.241   5.666  10.437  0.0916  0.3327 -0.3966
  145SAPE   H3X15956   3.131   5.659  10.448 -0.0722 -0.0983 -2.2063
  145SAPE   H3Y15957   3.275   5.563  10.464  1.1427  0.8521  0.2943
  145SAPE   C3415958   3.291   5.685  10.291 -0.1499  0.0457  0.2600
  145SAPE   H4X15959   3.401   5.695  10.298 -0.1301 -0.3536  0.5921
  145SAPE   H4Y15960   3.241   5.780  10.263 -2.1323 -1.4570 -1.4895
  145SAPE   C3515961   3.249   5.569  10.192  0.4168  0.2973 -0.5527
  145SAPE   H5X15962   3.146   5.532  10.214  0.8990 -1.3761 -0.9851
  145SAPE   H5Y15963   3.303   5.472  10.196 -1.2267 -0.5869  0.8778
  145SAPE   C3615964   3.253   5.618  10.042  0.5489 -0.6917  0.7652
  145SAPE   H6X15965   3.360   5.631  10.014  0.1302  1.3697  0.0101
  145SAPE   H6Y15966   3.202   5.713  10.017  1.8501 -1.1784 -4.2729
  145SAPE   C3715967   3.203   5.520   9.934  0.5677 -0.1870  0.3274
  145SAPE   H7X15968   3.101   5.486   9.962  0.0840  0.2076 -0.9091
  145SAPE   H7Y15969   3.261   5.425   9.928 -0.3352 -0.7997  1.0610
  145SAPE   C3815970   3.188   5.575   9.789  0.6623  0.2125 -0.4765
  145SAPE   H8X15971   3.289   5.610   9.759  1.3230  0.9503  2.4763
  145SAPE   H8Y15972   3.119   5.662   9.795  1.8179  1.0647  0.4841
  145SAPE   C3915973   3.131   5.472   9.697  0.4514  0.3101 -0.1703
  145SAPE   H9X15974   3.045   5.425   9.750  1.1443 -1.2041 -0.3770
  145SAPE   H9Y15975   3.211   5.397   9.683  1.5961  1.1953  1.5210
  145SAPE  C31015976   3.088   5.524   9.559 -0.2822  0.3626  0.6303
  145SAPE  H10X15977   3.024   5.614   9.568 -0.7608  0.1502 -0.5127
  145SAPE  H10Y15978   3.027   5.443   9.512 -0.5483  0.8707  0.0878
  145SAPE  C31115979   3.211   5.555   9.472 -0.1066 -0.3154  0.8599
  145SAPE  H11X15980   3.315   5.546   9.509  0.6863  2.9072 -0.4342
  145SAPE  H11Y15981   3.198   5.665   9.461 -0.8590 -0.4406  0.3900
  145SAPE  C31215982   3.194   5.484   9.334 -0.1098 -0.2587 -0.5961
  145SAPE  H12X15983   3.091   5.442   9.326 -0.4048  0.1609  0.7915
  145SAPE  H12Y15984   3.265   5.399   9.336  0.8649  0.5633  0.5852
  145SAPE  C31315985   3.223   5.581   9.218  0.1180 -0.0732  0.3493
  145SAPE  H13X15986   3.329   5.612   9.209 -0.1004  1.0381  1.4329
  145SAPE  H13Y15987   3.154   5.668   9.224  1.5997  1.1315  0.2483
  145SAPE  C31415988   3.207   5.499   9.093  0.3105  0.2912  0.5217
  145SAPE  H14X15989   3.106   5.452   9.092  0.5897 -0.3081  0.3804
  145SAPE  H14Y15990   3.279   5.415   9.090  0.5272  0.4826  0.3360
  145SAPE  C31515991   3.214   5.583   8.968  0.3821 -0.1879  0.0064
  145SAPE  H15X15992   3.285   5.669   8.963 -1.1353  0.9861 -2.4409
  145SAPE  H15Y15993   3.117   5.636   8.971  0.1748 -0.4714 -1.3922
  145SAPE  C31615994   3.218   5.515   8.835  0.0638 -0.2070  0.3374
  145SAPE  H16X15995   3.141   5.436   8.825  0.3271 -0.1258 -2.7891
  145SAPE  H16Y15996   3.314   5.459   8.842 -0.3066 -1.1784 -1.9172
  145SAPE  C31715997   3.225   5.591   8.704 -0.2601 -0.0727 -0.7157
  145SAPE  H17X15998   3.301   5.671   8.713 -0.2636  0.0593 -1.7543
  145SAPE  H17Y15999   3.128   5.633   8.669 -0.5310 -0.3104 -0.2562
  145SAPE  C31816000   3.278   5.499   8.599  0.2370  0.6261  0.1941
  145SAPE  H18X16001   3.211   5.411   8.608 -0.5476  1.4084  2.0984
  145SAPE  H18Y16002   3.384   5.476   8.621  0.1736  0.3294  0.1897
  145SAPE  H18Z16003   3.266   5.555   8.503 -0.2473 -1.5269 -1.0390
  146SAPE     N16004   1.509   4.972  10.931 -0.2005 -0.2224 -0.3050
  146SAPE   HN116005   1.608   4.979  10.962 -0.4036  1.5728 -0.0164
  146SAPE   HN216006   1.470   5.065  10.904 -0.9615  0.0749  1.7113
  146SAPE   HN316007   1.453   4.950  11.016 -1.2366  0.2617 -0.8566
  146SAPE   C1216008   1.482   4.871  10.826  0.5529 -0.7315 -0.9372
  146SAPE  H12A16009   1.512   4.771  10.863 -1.4831  0.2014  3.5954
  146SAPE  H12B16010   1.551   4.895  10.742 -0.8665  0.2195 -1.8483
  146SAPE   C1116011   1.334   4.858  10.790 -0.2086 -0.0907 -0.3435
  146SAPE  H11A16012   1.323   4.792  10.701  1.0260  0.8926 -1.2450
  146SAPE  H11B16013   1.305   4.960  10.758  1.9802  0.6295 -0.1034
  146SAPE     P16014   1.094   4.812  10.871 -0.0736 -0.1266 -0.5172
  146SAPE   O1316015   1.070   4.681  10.805  0.0469 -0.5872 -0.3931
  146SAPE   O1416016   1.017   4.834  10.998  0.0081 -0.0841  0.0213
  146SAPE   O1216017   1.250   4.829  10.901  0.0005 -0.0816  0.3393
  146SAPE   O1116018   1.063   4.928  10.777  0.4429  0.9232 -0.5979
  146SAPE    C116019   0.937   4.944  10.699 -0.3019  0.2078 -0.4200
  146SAPE    HA16020   0.847   4.906  10.754  1.4433 -1.1670  1.5748
  146SAPE    HB16021   0.928   5.050  10.668  0.4708  0.7590  1.1622
  146SAPE    C216022   0.951   4.862  10.563  0.3658 -0.3701  0.5309
  146SAPE    HS16023   0.934   4.755  10.586 -0.5296 -0.5004 -0.7144
  146SAPE   O2116024   1.073   4.884  10.496 -0.0798  0.1162 -0.0779
  146SAPE   C2116025   1.124   4.772  10.448  0.3450 -0.2017 -0.3370
  146SAPE   O2216026   1.077   4.659  10.460  0.5395  0.5199 -0.1770
  146SAPE   C2216027   1.261   4.798  10.401  0.3847  0.0885 -1.4202
  146SAPE   H2R16028   1.328   4.869  10.455  1.3147 -1.7891 -0.0381
  146SAPE   H2S16029   1.316   4.704  10.424  0.0862  0.3544  0.5199
  146SAPE    C316030   0.845   4.912  10.474 -0.2317  0.1774  0.7970
  146SAPE    HX16031   0.867   5.019  10.455 -1.6226  0.7841  2.3743
  146SAPE    HY16032   0.746   4.911  10.526  0.7577  0.7695  2.7320
  146SAPE   O3116033   0.831   4.830  10.354  0.0885  0.2235 -0.0544
  146SAPE   C3116034   0.744   4.733  10.357 -0.2042  0.5144  0.1084
  146SAPE   O3216035   0.682   4.703  10.463  0.0402  0.2793  0.5380
  146SAPE   C3216036   0.720   4.661  10.226 -0.2833 -0.1364 -0.0895
  146SAPE   H2X16037   0.664   4.729  10.159  0.5301  0.5341 -0.0905
  146SAPE   H2Y16038   0.654   4.573  10.241  0.5797 -0.7483  0.1230
  146SAPE   C2316039   1.272   4.832  10.257  0.0666 -0.1298  0.2424
  146SAPE   H3R16040   1.200   4.775  10.193  0.5006 -2.1762  1.5368
  146SAPE   H3S16041   1.371   4.794  10.223 -0.7411 -3.1038  1.0419
  146SAPE   C2416042   1.261   4.988  10.223  0.4190  0.2588 -0.1470
  146SAPE   H4R16043   1.309   5.007  10.124 -0.0989 -2.1089 -0.8899
  146SAPE   H4S16044   1.324   5.032  10.303 -0.0510 -0.3370  0.5580
  146SAPE   C2516045   1.122   5.047  10.237 -0.0975 -0.4064  0.0003
  146SAPE   H5R16046   1.063   5.039  10.329  1.0622 -1.6297  0.6445
  146SAPE   C2616047   1.058   5.099  10.128 -0.3306 -0.2369  0.2247
  146SAPE   H6R16048   0.958   5.141  10.150  0.1139  2.1237 -2.0473
  146SAPE   C2716049   1.111   5.100   9.991  0.0542  0.4224  0.3686
  146SAPE   H7R16050   1.113   4.995   9.956  0.1089  0.7326 -0.5841
  146SAPE   H7S16051   1.215   5.139   9.987 -0.5490  1.8946 -2.7061
  146SAPE   C2816052   1.028   5.175   9.885  0.5066 -0.0063 -0.3522
  146SAPE   H8R16053   0.968   5.262   9.916  1.4514 -1.3974  6.0205
  146SAPE   C2916054   1.026   5.140   9.753  0.2751 -0.0467 -0.0540
  146SAPE   H9R16055   0.978   5.219   9.693  0.5298  1.2464  1.3960
  146SAPE  C21016056   1.095   5.024   9.683 -0.1467 -0.9920  0.1850
  146SAPE  H10R16057   1.164   4.974   9.754 -2.7284  0.1011  3.5703
  146SAPE  H10S16058   1.157   5.070   9.603 -3.5894  0.5040 -1.7272
  146SAPE  C21116059   0.985   4.922   9.651 -0.4061 -0.6671 -0.0904
  146SAPE  H11R16060   0.928   4.882   9.736  0.5294  0.0785  0.9047
  146SAPE  C21216061   0.958   4.888   9.527  0.2732  0.1367  0.2577
  146SAPE  H12R16062   0.876   4.816   9.514  1.9303 -2.2588  2.7358
  146SAPE  C21316063   1.021   4.936   9.400 -0.2570 -0.1812  0.1808
  146SAPE  H13R16064   1.130   4.942   9.420 -0.4077  0.6210  0.7611
  146SAPE  H13S16065   0.989   5.035   9.362  1.0165  0.3331  0.4342
  146SAPE  C21416066   0.971   4.839   9.291 -0.6120 -0.2328 -0.7217
  146SAPE  H14R16067   0.893   4.875   9.222  1.3617  1.2619 -2.2224
  146SAPE  C21516068   1.011   4.712   9.282 -0.4481 -0.0813  0.6304
  146SAPE  H15R16069   0.971   4.651   9.200 -1.3116 -2.5788  2.8326
  146SAPE  C21616070   1.107   4.637   9.375 -0.0316 -0.2796  0.3714
  146SAPE  H16R16071   1.156   4.693   9.457 -1.1933 -3.0582  3.0187
  146SAPE  H16S16072   1.191   4.604   9.309 -0.6295  0.4936 -0.7984
  146SAPE  C21716073   1.029   4.517   9.433 -0.7094  0.1378  0.2827
  146SAPE  H17R16074   1.001   4.454   9.346 -1.3073  2.3951 -1.2225
  146SAPE  H17S16075   0.943   4.566   9.483  0.5323  0.4641  2.1529
  146SAPE  C21816076   1.089   4.423   9.535  0.4415 -0.4326  0.4565
  146SAPE  H18R16077   1.006   4.358   9.569  1.6910 -2.3694 -0.0908
  146SAPE  H18S16078   1.124   4.487   9.618  0.2352 -1.1730  1.1168
  146SAPE  C21916079   1.211   4.336   9.494 -0.1677 -0.6547 -0.4038
  146SAPE  H19R16080   1.192   4.274   9.403 -1.0645 -1.9601  0.6566
  146SAPE  H19S16081   1.237   4.270   9.579 -1.6673 -0.1814  0.4291
  146SAPE  C22016082   1.341   4.408   9.452  0.3672  0.0848  0.0902
  146SAPE  H20R16083   1.360   4.484   9.531 -4.0213 -0.3320  1.6653
  146SAPE  H20S16084   1.343   4.459   9.354  0.4560  2.3820  1.2393
  146SAPE  H20T16085   1.432   4.344   9.446 -0.2481 -0.7942  0.0880
  146SAPE   C3316086   0.851   4.623  10.152 -0.2246  1.5964 -0.3711
  146SAPE   H3X16087   0.839   4.515  10.133 -0.6076  1.5964 -0.1421
  146SAPE   H3Y16088   0.934   4.626  10.226 -1.8823  1.3172  1.5548
  146SAPE   C3416089   0.874   4.702  10.019  0.2412  0.0170 -0.7510
  146SAPE   H4X16090   0.981   4.695   9.990  1.1025 -1.5678  2.6215
  146SAPE   H4Y16091   0.857   4.807  10.053  1.4986 -1.0282  3.4650
  146SAPE   C3516092   0.784   4.672   9.905 -0.0335  0.5834  0.7230
  146SAPE   H5X16093   0.801   4.754   9.832 -1.4287  1.0977  0.9433
  146SAPE   H5Y16094   0.676   4.676   9.932 -1.5050 -0.9609 -4.4174
  146SAPE   C3616095   0.806   4.535   9.831 -0.2365  0.6861  0.2904
  146SAPE   H6X16096   0.776   4.451   9.896  0.2253 -0.9069 -1.5150
  146SAPE   H6Y16097   0.913   4.534   9.800 -0.7067  0.2127 -1.3826
  146SAPE   C3716098   0.703   4.530   9.718  0.3239  1.4127  0.1663
  146SAPE   H7X16099   0.723   4.599   9.633  1.2841  0.6752 -0.2127
  146SAPE   H7Y16100   0.605   4.562   9.760 -0.4681  0.0242 -0.5769
  146SAPE   C3816101   0.692   4.390   9.670 -0.3692 -0.0672  0.2467
  146SAPE   H8X16102   0.652   4.319   9.745  0.1195 -0.4476  0.1482
  146SAPE   H8Y16103   0.788   4.347   9.636  1.0367  2.0338  1.4515
  146SAPE   C3916104   0.609   4.385   9.547  0.0269  0.3874  0.5738
  146SAPE   H9X16105   0.660   4.445   9.469  0.2338  1.6269  1.6389
  146SAPE   H9Y16106   0.505   4.423   9.558 -0.4448 -0.9488  0.7746
  146SAPE  C31016107   0.609   4.244   9.494 -0.4233 -0.1040  0.3678
  146SAPE  H10X16108   0.558   4.177   9.568  0.5751 -1.5997 -0.2669
  146SAPE  H10Y16109   0.713   4.205   9.483 -0.9392 -1.9796  1.8614
  146SAPE  C31116110   0.530   4.222   9.361 -0.1524  0.7485  0.1744
  146SAPE  H11X16111   0.429   4.255   9.392 -1.8322 -2.3410 -1.8384
  146SAPE  H11Y16112   0.520   4.117   9.326 -0.0084  1.2265 -1.3447
  146SAPE  C31216113   0.576   4.305   9.243 -0.2485 -0.0749  0.3744
  146SAPE  H12X16114   0.562   4.414   9.254 -1.3208 -0.0950 -0.6965
  146SAPE  H12Y16115   0.508   4.275   9.160  1.4987 -1.8727 -0.4612
  146SAPE  C31316116   0.722   4.272   9.201  0.1915  0.4073 -0.5207
  146SAPE  H13X16117   0.748   4.164   9.208 -1.9710 -0.1062  0.1054
  146SAPE  H13Y16118   0.785   4.326   9.275 -0.4314  0.1804  0.1938
  146SAPE  C31416119   0.747   4.340   9.066  0.0332  0.0093  0.1212
  146SAPE  H14X16120   0.746   4.451   9.074  1.6803  0.1274 -1.1197
  146SAPE  H14Y16121   0.666   4.315   8.994  0.1390  1.2186 -0.4328
  146SAPE  C31516122   0.884   4.298   9.003 -0.2541  0.4459  0.4129
  146SAPE  H15X16123   0.890   4.322   8.895  0.4322  0.8356  0.5364
  146SAPE  H15Y16124   0.901   4.188   8.998 -0.5005  0.5079 -2.4027
  146SAPE  C31616125   1.013   4.357   9.057 -0.0866  0.3654  0.0284
  146SAPE  H16X16126   1.038   4.308   9.153  2.7372 -1.7332 -1.7068
  146SAPE  H16Y16127   1.010   4.467   9.076  0.0677  0.2419  0.7823
  146SAPE  C31716128   1.127   4.327   8.956 -0.6245 -0.2219 -0.9016
  146SAPE  H17X16129   1.184   4.422   8.948 -2.0279  0.7168 -0.0547
  146SAPE  H17Y16130   1.090   4.293   8.858  1.0850 -1.4620 -1.1445
  146SAPE  C31816131   1.222   4.218   9.005  0.5406 -0.1102 -0.1306
  146SAPE  H18X16132   1.162   4.126   9.021 -0.0173  0.0506 -1.2294
  146SAPE  H18Y16133   1.260   4.238   9.108 -0.1287  0.8770 -0.0634
  146SAPE  H18Z16134   1.305   4.190   8.937  1.3241 -0.6294  1.0208
  147SAPE     N16135   4.084   3.406   6.113  0.3723  0.1833  0.0706
  147SAPE   HN116136   4.043   3.371   6.024 -0.5561  2.1852 -0.3148
  147SAPE   HN216137   4.034   3.493   6.142 -2.0636 -2.1789  3.4394
  147SAPE   HN316138   4.183   3.436   6.105  0.5845 -0.2794  0.8857
  147SAPE   C1216139   4.074   3.313   6.224 -0.4579  0.1372 -0.2473
  147SAPE  H12A16140   3.972   3.270   6.235  0.1713 -0.9357  1.6344
  147SAPE  H12B16141   4.080   3.370   6.319 -1.6863  1.0869 -0.7194
  147SAPE   C1116142   4.177   3.202   6.214  0.5991 -0.1654 -0.1593
  147SAPE  H11A16143   4.149   3.147   6.121  0.0518  1.1054 -0.7532
  147SAPE  H11B16144   4.165   3.135   6.302  0.9781 -0.8993 -0.6560
  147SAPE     P16145   4.405   3.285   6.311 -0.1435  0.4247 -0.0873
  147SAPE   O1316146   4.536   3.305   6.256 -0.0323 -0.7314  1.0375
  147SAPE   O1416147   4.339   3.405   6.372 -0.3009 -0.3607  0.0467
  147SAPE   O1216148   4.307   3.245   6.191  0.3876 -0.2550  0.2852
  147SAPE   O1116149   4.406   3.162   6.406  0.0722  0.1711  0.0284
  147SAPE    C116150   4.408   3.026   6.359  0.1243 -0.3986  0.1792
  147SAPE    HA16151   4.318   3.002   6.298 -0.0011  1.1945 -0.2863
  147SAPE    HB16152   4.510   3.006   6.320  0.0347 -1.1188  0.3056
  147SAPE    C216153   4.411   2.927   6.480 -0.0813  0.3406 -0.1889
  147SAPE    HS16154   4.456   2.829   6.456  0.8407 -0.9244  5.8553
  147SAPE   O2116155   4.284   2.909   6.545  0.2012  0.1755  0.0340
  147SAPE   C2116156   4.184   2.857   6.477  0.1186 -0.1270  0.7407
  147SAPE   O2216157   4.196   2.803   6.369  0.2452  0.1236  0.0546
  147SAPE   C2216158   4.057   2.870   6.556 -0.0327  0.2997 -0.3932
  147SAPE   H2R16159   4.027   2.977   6.559 -0.7945  0.0404  3.0782
  147SAPE   H2S16160   3.979   2.810   6.503 -1.2749  0.8540  0.7687
  147SAPE    C316161   4.515   2.977   6.586  0.4963 -0.8071  0.0448
  147SAPE    HX16162   4.516   3.086   6.609  0.4094 -1.1567  1.7298
  147SAPE    HY16163   4.613   2.957   6.538  0.4586 -0.0180 -0.3736
  147SAPE   O3116164   4.512   2.902   6.710  0.1805  0.4615 -0.5703
  147SAPE   C3116165   4.445   2.956   6.807 -0.7452 -0.2795 -0.4799
  147SAPE   O3216166   4.371   3.054   6.801  0.0434  0.7047  0.0489
  147SAPE   C3216167   4.495   2.894   6.936  0.6235  0.3030  0.4481
  147SAPE   H2X16168   4.606   2.892   6.938  0.7335 -0.1672 -3.0095
  147SAPE   H2Y16169   4.451   2.792   6.940  0.6047  0.3145  0.5224
  147SAPE   C2316170   4.082   2.812   6.698 -0.9692  0.5472 -0.2049
  147SAPE   H3R16171   3.988   2.830   6.756  0.4954 -0.4301  2.5625
  147SAPE   H3S16172   4.154   2.873   6.756 -2.3934  1.4222  0.6961
  147SAPE   C2416173   4.094   2.662   6.707 -0.1954  0.5537  0.4348
  147SAPE   H4R16174   4.190   2.627   6.664 -1.0988 -1.4383 -0.0392
  147SAPE   H4S16175   4.018   2.618   6.639 -1.6741  0.2685  2.2106
  147SAPE   C2516176   4.071   2.587   6.837 -0.1558 -0.1897  0.3600
  147SAPE   H5R16177   4.012   2.495   6.828 -3.4124  1.4030  3.8427
  147SAPE   C2616178   4.095   2.608   6.964  0.4321 -0.6771 -0.0310
  147SAPE   H6R16179   4.062   2.536   7.041  1.2120  0.8347  1.7358
  147SAPE   C2716180   4.172   2.724   7.019 -0.2733  0.4025 -0.1042
  147SAPE   H7R16181   4.245   2.766   6.946 -0.3503  1.8093  0.6226
  147SAPE   H7S16182   4.228   2.669   7.097 -1.6039  0.5148  0.9462
  147SAPE   C2816183   4.081   2.829   7.080 -0.5596 -0.2886  0.1229
  147SAPE   H8R16184   4.044   2.907   7.010  0.0099 -0.9773 -0.9601
  147SAPE   C2916185   4.035   2.848   7.206  0.0934  0.3945  0.6857
  147SAPE   H9R16186   3.981   2.940   7.232  0.2031 -0.2029  3.1218
  147SAPE  C21016187   4.051   2.752   7.315  0.3221  0.0332  0.2529
  147SAPE  H10R16188   4.040   2.649   7.273  3.1274 -0.2514  0.0630
  147SAPE  H10S16189   3.965   2.763   7.383  1.2487 -1.5827  1.7375
  147SAPE  C21116190   4.187   2.753   7.375 -0.6037  0.1800  0.5638
  147SAPE  H11R16191   4.269   2.762   7.301 -1.6403 -0.4937 -0.6892
  147SAPE  C21216192   4.220   2.761   7.503 -0.1065  0.3111 -0.6458
  147SAPE  H12R16193   4.324   2.755   7.539 -0.3711 -0.7070 -0.0317
  147SAPE  C21316194   4.113   2.770   7.606 -0.3556 -0.6451 -0.1317
  147SAPE  H13R16195   4.027   2.707   7.574  2.1871 -3.3773 -1.8611
  147SAPE  H13S16196   4.075   2.874   7.617  0.4401 -0.3462 -0.2015
  147SAPE  C21416197   4.166   2.717   7.732  0.6386  0.2072  0.3692
  147SAPE  H14R16198   4.208   2.616   7.721  1.7024  0.9302 -2.6034
  147SAPE  C21516199   4.161   2.774   7.848 -0.1735  0.2625 -0.7119
  147SAPE  H15R16200   4.191   2.711   7.933  1.2549 -0.4756 -1.7385
  147SAPE  C21616201   4.107   2.912   7.879 -0.1313  0.9438  1.1416
  147SAPE  H16R16202   3.996   2.908   7.882 -0.4244  2.6230 -3.1313
  147SAPE  H16S16203   4.147   2.981   7.801  1.7827 -0.8522  0.4888
  147SAPE  C21716204   4.143   2.987   8.014  0.5083  0.0002 -0.2680
  147SAPE  H17R16205   4.102   3.090   8.004 -2.0961 -0.8697  0.9712
  147SAPE  H17S16206   4.251   2.985   8.041  0.7187  3.9309 -0.5215
  147SAPE  C21816207   4.059   2.925   8.126 -0.3111  0.2139 -0.5445
  147SAPE  H18R16208   4.099   2.821   8.120  3.5141  1.5488  1.1128
  147SAPE  H18S16209   3.948   2.925   8.119 -0.3970  0.7558  0.8384
  147SAPE  C21916210   4.066   2.971   8.274 -0.1688  0.3375 -0.0380
  147SAPE  H19R16211   4.033   3.077   8.276  0.9595  0.7038 -0.2155
  147SAPE  H19S16212   4.171   2.980   8.310 -0.5321  0.5365  0.9909
  147SAPE  C22016213   3.996   2.884   8.380 -0.4786  0.1055  0.5105
  147SAPE  H20R16214   4.041   2.783   8.394  0.4878  0.1591 -1.8953
  147SAPE  H20S16215   3.895   2.864   8.338 -0.2573  1.5365 -0.7388
  147SAPE  H20T16216   3.990   2.947   8.471  1.1542 -0.3685  0.9674
  147SAPE   C3316217   4.459   2.976   7.065  0.4960  0.3715 -0.6621
  147SAPE   H3X16218   4.351   2.948   7.065  1.3891 -3.2709 -0.6194
  147SAPE   H3Y16219   4.470   3.086   7.058  1.1062  0.4839  1.6364
  147SAPE   C3416220   4.544   2.933   7.190 -0.2900  0.2482 -0.3743
  147SAPE   H4X16221   4.649   2.968   7.175 -0.0077 -1.2506 -2.0191
  147SAPE   H4Y16222   4.549   2.824   7.208 -0.6073  0.5302  1.5521
  147SAPE   C3516223   4.482   3.011   7.313 -0.0339 -0.0368  0.8095
  147SAPE   H5X16224   4.380   2.968   7.317  0.2278 -0.7619 -0.0326
  147SAPE   H5Y16225   4.482   3.120   7.291  0.4545  0.0318  1.1263
  147SAPE   C3616226   4.562   2.967   7.445  0.1770 -0.2279  0.6983
  147SAPE   H6X16227   4.660   3.019   7.440 -1.3088  2.7880  2.0691
  147SAPE   H6Y16228   4.579   2.857   7.450  4.3126  0.1701 -2.3119
  147SAPE   C3716229   4.481   3.019   7.564 -0.6324  0.6789  0.5624
  147SAPE   H7X16230   4.384   2.966   7.562  0.2823 -1.0052 -1.4609
  147SAPE   H7Y16231   4.464   3.128   7.550  0.8746  0.8431 -0.0838
  147SAPE   C3816232   4.552   3.002   7.707  0.3520  0.1395 -0.7471
  147SAPE   H8X16233   4.650   3.054   7.703 -0.0332  0.8095 -1.6283
  147SAPE   H8Y16234   4.579   2.895   7.720  1.5383  0.5969  0.6556
  147SAPE   C3916235   4.477   3.063   7.824 -0.4044 -0.0644 -0.3129
  147SAPE   H9X16236   4.388   3.000   7.846  0.0947 -1.6953 -2.7466
  147SAPE   H9Y16237   4.443   3.167   7.803 -0.9458  0.1766  1.6700
  147SAPE  C31016238   4.570   3.084   7.945 -0.1866  0.3651 -0.3804
  147SAPE  H10X16239   4.639   3.162   7.906 -0.5527  0.3379 -1.0890
  147SAPE  H10Y16240   4.616   2.986   7.968  0.1662  0.9360  1.4882
  147SAPE  C31116241   4.497   3.140   8.069  0.3968 -0.3275 -0.6790
  147SAPE  H11X16242   4.572   3.150   8.150  0.1143 -0.6634 -0.3790
  147SAPE  H11Y16243   4.422   3.065   8.101 -0.8262  1.4214  0.7190
  147SAPE  C31216244   4.429   3.273   8.037  0.7608  0.2983 -0.3130
  147SAPE  H12X16245   4.339   3.256   7.975  2.3961 -3.2169 -1.8359
  147SAPE  H12Y16246   4.500   3.345   7.990 -0.3820  0.0810 -2.4206
  147SAPE  C31316247   4.381   3.342   8.173 -0.1769  0.2692 -0.0774
  147SAPE  H13X16248   4.465   3.336   8.246  0.1020 -0.7691 -0.4850
  147SAPE  H13Y16249   4.301   3.285   8.226  0.7627  1.5015  2.7647
  147SAPE  C31416250   4.335   3.488   8.155 -0.4149  0.0927  0.0365
  147SAPE  H14X16251   4.250   3.489   8.084 -0.8632  1.6624  0.5667
  147SAPE  H14Y16252   4.415   3.551   8.110  0.6863 -1.6605 -0.5085
  147SAPE  C31516253   4.295   3.538   8.297  0.2839  0.4138 -0.1396
  147SAPE  H15X16254   4.381   3.518   8.364  0.1904  1.8292  0.4234
  147SAPE  H15Y16255   4.210   3.484   8.344 -1.0775  3.2237  0.7578
  147SAPE  C31616256   4.269   3.691   8.294 -0.1925 -0.4538  0.2631
  147SAPE  H16X16257   4.180   3.709   8.231  0.4915  2.5299  0.0497
  147SAPE  H16Y16258   4.358   3.737   8.244 -0.3508 -1.5755 -1.0720
  147SAPE  C31716259   4.254   3.751   8.434  0.1298 -0.4548  0.4592
  147SAPE  H17X16260   4.355   3.731   8.476  0.0681 -0.4057  0.6322
  147SAPE  H17Y16261   4.171   3.699   8.488  0.7756 -1.0778  0.8697
  147SAPE  C31816262   4.225   3.902   8.436 -0.1349  0.9132  0.2255
  147SAPE  H18X16263   4.209   3.947   8.536 -0.2733 -0.3744  0.7848
  147SAPE  H18Y16264   4.135   3.923   8.374  0.5760  2.3357 -0.3567
  147SAPE  H18Z16265   4.314   3.947   8.387  1.7177 -1.3681  1.3936
  148SAPE     N16266   3.561   0.599   6.582 -0.0716  0.1437  0.6247
  148SAPE   HN116267   3.650   0.557   6.550 -1.0426  0.2547 -2.4171
  148SAPE   HN216268   3.480   0.536   6.568 -0.7737  1.0027  0.7701
  148SAPE   HN316269   3.556   0.684   6.523  0.3049  0.1129  0.5463
  148SAPE   C1216270   3.566   0.646   6.724  0.9530 -0.7943 -0.2347
  148SAPE  H12A16271   3.645   0.724   6.734 -0.8132  0.8869  1.1192
  148SAPE  H12B16272   3.582   0.559   6.791 -2.7862 -0.7558  0.8037
  148SAPE   C1116273   3.437   0.714   6.769 -0.1464  0.1118  0.7371
  148SAPE  H11A16274   3.451   0.753   6.872 -1.3311  1.2576  0.4749
  148SAPE  H11B16275   3.354   0.640   6.770 -0.7041  0.7357  1.0493
  148SAPE     P16276   3.274   0.903   6.702  0.0422 -0.1013 -0.2669
  148SAPE   O1316277   3.242   0.989   6.584  0.2762  0.0659  0.1189
  148SAPE   O1416278   3.163   0.809   6.741 -0.2704 -0.0001  0.1373
  148SAPE   O1216279   3.410   0.823   6.679  0.3931 -0.2873 -0.7141
  148SAPE   O1116280   3.320   0.994   6.825  0.1766 -0.3757 -0.2968
  148SAPE    C116281   3.401   1.114   6.798  0.0262  0.3673 -0.7685
  148SAPE    HA16282   3.497   1.090   6.747  0.1153  0.0479 -0.4528
  148SAPE    HB16283   3.347   1.181   6.728 -0.1447 -2.0952 -3.1190
  148SAPE    C216284   3.419   1.198   6.935 -0.1762 -0.0299 -0.1297
  148SAPE    HS16285   3.506   1.266   6.936 -1.9619  2.3311  0.5312
  148SAPE   O2116286   3.432   1.115   7.050  0.4178 -0.6270 -0.6902
  148SAPE   C2116287   3.546   1.047   7.048 -0.2846 -0.2199 -0.2560
  148SAPE   O2216288   3.650   1.076   6.990  0.8595 -0.7964 -0.0342
  148SAPE   C2216289   3.533   0.925   7.138 -0.7241  0.7106  0.0869
  148SAPE   H2R16290   3.426   0.904   7.159 -0.9667  0.1211 -1.6523
  148SAPE   H2S16291   3.588   0.843   7.087 -1.0270 -1.7708  3.5879
  148SAPE    C316292   3.307   1.304   6.965  0.4505 -0.3761 -0.2217
  148SAPE    HX16293   3.213   1.245   6.957  0.3533 -0.1463 -0.8457
  148SAPE    HY16294   3.324   1.381   6.887 -0.2131 -0.5583 -0.5541
  148SAPE   O3116295   3.323   1.368   7.094 -0.0315  0.0847 -0.0914
  148SAPE   C3116296   3.210   1.389   7.159 -0.1370 -0.0892  0.1210
  148SAPE   O3216297   3.097   1.365   7.123 -0.6577  0.0541  0.1121
  148SAPE   C3216298   3.244   1.452   7.295 -0.6304 -0.1724 -0.0022
  148SAPE   H2X16299   3.269   1.558   7.274  2.1673 -0.9693 -0.8895
  148SAPE   H2Y16300   3.328   1.388   7.330  0.2591  0.9903  0.0074
  148SAPE   C2316301   3.587   0.950   7.282  0.2395  0.2665 -0.7294
  148SAPE   H3R16302   3.546   0.876   7.354  0.6552  0.9023  0.1797
  148SAPE   H3S16303   3.533   1.041   7.318 -0.2214  0.0563 -0.8848
  148SAPE   C2416304   3.730   0.975   7.307  0.3881  0.2167  0.8612
  148SAPE   H4R16305   3.791   0.906   7.245  0.4259  2.1918 -1.3542
  148SAPE   H4S16306   3.747   0.951   7.414 -2.4917  3.7006  2.1720
  148SAPE   C2516307   3.772   1.117   7.274  0.0210  0.6075 -0.2928
  148SAPE   H5R16308   3.822   1.119   7.175 -0.7357 -3.5620 -0.8335
  148SAPE   C2616309   3.762   1.224   7.347 -0.0409 -0.8380 -0.7181
  148SAPE   H6R16310   3.823   1.309   7.315 -0.6195 -0.4112 -0.7031
  148SAPE   C2716311   3.712   1.248   7.488 -0.0300  0.2813  0.1476
  148SAPE   H7R16312   3.805   1.229   7.546  0.4534  1.2494 -0.2952
  148SAPE   H7S16313   3.647   1.162   7.513 -0.0503  0.3085  0.1907
  148SAPE   C2816314   3.652   1.389   7.506  0.0259  0.1789  0.1533
  148SAPE   H8R16315   3.542   1.394   7.498 -0.2854  1.3066  3.8667
  148SAPE   C2916316   3.713   1.498   7.555 -0.8210  0.5184  0.0901
  148SAPE   H9R16317   3.656   1.592   7.561 -0.1334  0.8325  2.2580
  148SAPE  C21016318   3.858   1.495   7.586 -0.0792  0.7667 -0.3022
  148SAPE  H10R16319   3.903   1.494   7.485 -0.2599  1.0175 -0.3873
  148SAPE  H10S16320   3.885   1.404   7.644  1.6548  1.5233  0.1258
  148SAPE  C21116321   3.905   1.612   7.667  0.1095 -0.8381 -0.1111
  148SAPE  H11R16322   3.971   1.679   7.610 -0.0515 -1.7737 -1.4220
  148SAPE  C21216323   3.870   1.640   7.796 -0.3237 -0.1719  0.5949
  148SAPE  H12R16324   3.924   1.721   7.848  1.3892 -0.4016 -0.8025
  148SAPE  C21316325   3.775   1.558   7.883  0.3029  0.4635  0.2238
  148SAPE  H13R16326   3.822   1.557   7.983 -0.2021 -2.3855  0.4784
  148SAPE  H13S16327   3.778   1.455   7.840  1.2794  1.0160 -1.0776
  148SAPE  C21416328   3.639   1.605   7.891  0.7438 -1.1960  0.1403
  148SAPE  H14R16329   3.611   1.678   7.813 -0.9919 -1.3380  0.6035
  148SAPE  C21516330   3.534   1.558   7.963  0.4880  0.2385  0.2536
  148SAPE  H15R16331   3.434   1.603   7.954  0.1161 -0.3878  1.2189
  148SAPE  C21616332   3.550   1.456   8.071 -0.1228 -0.3515  0.0362
  148SAPE  H16R16333   3.639   1.392   8.053 -0.1813 -0.1705 -0.9106
  148SAPE  H16S16334   3.459   1.392   8.079 -0.0968 -0.6001 -1.5976
  148SAPE  C21716335   3.562   1.510   8.218 -0.3001  0.2499  0.1011
  148SAPE  H17R16336   3.578   1.427   8.290  2.5464  0.7167  0.0471
  148SAPE  H17S16337   3.465   1.555   8.248 -0.7258 -1.3693  1.2278
  148SAPE  C21816338   3.678   1.613   8.242  0.7087 -0.0139 -0.5679
  148SAPE  H18R16339   3.655   1.660   8.340 -1.8246 -2.3734  0.0305
  148SAPE  H18S16340   3.684   1.689   8.161 -2.6307 -0.0425 -0.8818
  148SAPE  C21916341   3.813   1.547   8.278 -0.5126  0.9815  0.2318
  148SAPE  H19R16342   3.873   1.521   8.188  0.7841  1.1573  1.0273
  148SAPE  H19S16343   3.792   1.456   8.338  1.0923 -0.4140 -1.2744
  148SAPE  C22016344   3.908   1.632   8.358  0.0475  0.7697 -0.1986
  148SAPE  H20R16345   3.962   1.712   8.303 -0.2356  0.1570 -1.3756
  148SAPE  H20S16346   3.988   1.593   8.425 -1.1535  2.4965  2.3644
  148SAPE  H20T16347   3.847   1.692   8.430  1.3000  0.5587  1.0787
  148SAPE   C3316348   3.127   1.443   7.399 -0.1122 -0.6444 -0.4264
  148SAPE   H3X16349   3.077   1.345   7.410  0.9755 -0.9857  1.6680
  148SAPE   H3Y16350   3.054   1.525   7.380  0.9116  0.0981 -1.2113
  148SAPE   C3416351   3.201   1.467   7.535  0.1855  0.2506 -0.5281
  148SAPE   H4X16352   3.245   1.569   7.537  1.3143 -0.2168 -1.1461
  148SAPE   H4Y16353   3.279   1.389   7.548 -0.6495 -0.5527 -0.1761
  148SAPE   C3516354   3.102   1.450   7.659  0.1107  0.3610  0.1464
  148SAPE   H5X16355   3.045   1.355   7.650 -0.7824  0.9400 -0.4422
  148SAPE   H5Y16356   3.027   1.532   7.651  0.3379  0.3962 -2.0840
  148SAPE   C3616357   3.169   1.456   7.791  0.4464 -0.3370  0.0707
  148SAPE   H6X16358   3.205   1.558   7.816  2.1086 -1.4296  2.3305
  148SAPE   H6Y16359   3.250   1.382   7.802 -1.1396 -2.1589 -0.2498
  148SAPE   C3716360   3.063   1.441   7.895  0.3802  0.0543 -0.4173
  148SAPE   H7X16361   3.013   1.343   7.883  0.8878 -0.1915 -0.5069
  148SAPE   H7Y16362   2.982   1.518   7.896 -0.2317 -0.5755 -0.8196
  148SAPE   C3816363   3.118   1.439   8.042 -0.3996  0.3101  0.4218
  148SAPE   H8X16364   3.150   1.539   8.077 -0.3548  0.3238  0.3408
  148SAPE   H8Y16365   3.204   1.369   8.050 -0.4982 -0.1096 -1.8408
  148SAPE   C3916366   3.022   1.392   8.142 -0.5780  0.6728  0.1866
  148SAPE   H9X16367   2.977   1.294   8.114  1.1551  0.1223 -0.7325
  148SAPE   H9Y16368   2.930   1.455   8.146 -0.3977  0.8669  1.3753
  148SAPE  C31016369   3.070   1.403   8.288  0.1898  0.4203  0.1674
  148SAPE  H10X16370   2.982   1.385   8.354 -0.5013  1.6155 -0.4080
  148SAPE  H10Y16371   3.096   1.510   8.297  1.4575  0.3646 -2.3691
  148SAPE  C31116372   3.189   1.306   8.323  0.5442  0.7817  0.0642
  148SAPE  H11X16373   3.272   1.348   8.262  0.1462  2.5784  0.7128
  148SAPE  H11Y16374   3.172   1.200   8.293  3.1163  0.4474 -0.3628
  148SAPE  C31216375   3.230   1.310   8.474  0.1616  0.2633  0.6267
  148SAPE  H12X16376   3.299   1.224   8.488 -0.1228 -0.0305  0.2144
  148SAPE  H12Y16377   3.137   1.291   8.532 -0.4481 -1.4280 -0.8539
  148SAPE  C31316378   3.318   1.434   8.509 -0.0103  0.3681 -0.1024
  148SAPE  H13X16379   3.255   1.522   8.535 -0.6605  0.1558 -0.9491
  148SAPE  H13Y16380   3.375   1.481   8.426 -0.0201  0.5451 -0.0114
  148SAPE  C31416381   3.409   1.415   8.634  0.1897 -0.1989  0.4188
  148SAPE  H14X16382   3.501   1.358   8.609 -1.8777 -3.0444 -0.9556
  148SAPE  H14Y16383   3.361   1.356   8.716 -1.6945 -1.8132 -1.7758
  148SAPE  C31516384   3.449   1.551   8.700 -0.6407  0.1694  0.1910
  148SAPE  H15X16385   3.514   1.528   8.787 -0.1317 -0.1294 -0.2662
  148SAPE  H15Y16386   3.363   1.607   8.742  0.1129 -0.5862  2.8524
  148SAPE  C31616387   3.530   1.650   8.609 -1.2657  0.3173 -0.8063
  148SAPE  H16X16388   3.453   1.678   8.534 -1.8310  0.3859 -0.2121
  148SAPE  H16Y16389   3.623   1.617   8.559 -0.4583  1.1524  0.1194
  148SAPE  C31716390   3.567   1.768   8.698 -0.0140 -0.3560 -0.1996
  148SAPE  H17X16391   3.655   1.735   8.756  0.4353  0.4724 -0.4009
  148SAPE  H17Y16392   3.492   1.799   8.774 -0.9870 -2.2850 -0.3608
  148SAPE  C31816393   3.607   1.891   8.607  0.5281  0.3578 -0.0046
  148SAPE  H18X16394   3.652   1.969   8.671  1.5550  2.1563 -2.8032
  148SAPE  H18Y16395   3.528   1.942   8.548 -0.8038 -1.4224  0.1896
  148SAPE  H18Z16396   3.690   1.858   8.540  0.1101 -1.4642  0.3626
  149SAPE     N16397   2.987   2.021   6.383 -0.3519  0.0249 -0.8071
  149SAPE   HN116398   2.980   2.067   6.477  1.2356 -1.3336 -0.0077
  149SAPE   HN216399   2.965   2.094   6.312 -3.1102 -1.3347 -1.4041
  149SAPE   HN316400   2.922   1.941   6.373 -0.1309 -0.1446 -0.8762
  149SAPE   C1216401   3.128   1.965   6.375  0.5788  0.3064 -0.2443
  149SAPE  H12A16402   3.192   2.051   6.403 -0.1726  0.4511  1.0870
  149SAPE  H12B16403   3.143   1.935   6.269 -0.0106  0.2354 -0.3098
  149SAPE   C1116404   3.159   1.847   6.472 -0.1550 -0.3921 -0.4161
  149SAPE  H11A16405   3.089   1.762   6.454 -1.5072  0.9470 -1.5673
  149SAPE  H11B16406   3.132   1.883   6.573 -0.6481  0.0464 -0.6983
  149SAPE     P16407   3.417   1.877   6.516  0.2868 -0.2845 -0.4647
  149SAPE   O1316408   3.533   1.805   6.458  0.1860  0.3741 -0.8209
  149SAPE   O1416409   3.404   2.020   6.500  0.0610 -0.4832 -0.5218
  149SAPE   O1216410   3.287   1.794   6.459 -0.2530 -0.4039 -0.6928
  149SAPE   O1116411   3.406   1.846   6.670  0.0060  0.1269  0.1374
  149SAPE    C116412   3.341   1.735   6.727  0.5889  0.4622  0.3151
  149SAPE    HA16413   3.280   1.676   6.655  3.2312 -0.6079 -1.1233
  149SAPE    HB16414   3.414   1.675   6.784  0.6542  0.2321 -0.0101
  149SAPE    C216415   3.249   1.770   6.847 -0.0743  0.3741 -0.1235
  149SAPE    HS16416   3.163   1.823   6.801 -0.4211  1.6992  1.9771
  149SAPE   O2116417   3.324   1.845   6.947  0.4899  0.2851 -0.3342
  149SAPE   C2116418   3.313   1.979   6.918  0.5446 -0.6018  0.1951
  149SAPE   O2216419   3.229   2.029   6.845 -0.0188  0.6173  0.2798
  149SAPE   C2216420   3.408   2.051   7.007  0.5869  0.5205 -0.1001
  149SAPE   H2R16421   3.357   2.078   7.103 -0.4203 -1.0287 -0.1814
  149SAPE   H2S16422   3.487   1.978   7.034 -1.1400 -2.4001 -2.6306
  149SAPE    C316423   3.184   1.649   6.924 -0.5309 -0.1370  0.3321
  149SAPE    HX16424   3.255   1.565   6.927 -2.0589 -1.4613 -0.0298
  149SAPE    HY16425   3.095   1.617   6.865 -1.8288  4.1591 -0.2564
  149SAPE   O3116426   3.152   1.678   7.063 -0.1426 -0.7389  0.3234
  149SAPE   C3116427   3.043   1.755   7.078  0.1976 -0.5545 -0.5778
  149SAPE   O3216428   2.981   1.814   6.988  0.1421 -0.0093  0.1961
  149SAPE   C3216429   3.013   1.763   7.218 -0.2496 -0.2599  0.1176
  149SAPE   H2X16430   3.094   1.735   7.289 -3.1008 -4.0687  2.0362
  149SAPE   H2Y16431   2.936   1.686   7.238  0.5203 -0.6378  1.7478
  149SAPE   C2316432   3.476   2.168   6.943  0.8260  0.7639 -0.5582
  149SAPE   H3R16433   3.531   2.225   7.021  2.0707  0.4629 -1.2173
  149SAPE   H3S16434   3.390   2.235   6.920 -0.6360 -0.2076  1.7834
  149SAPE   C2416435   3.586   2.136   6.830 -0.0704 -0.2091  0.2727
  149SAPE   H4R16436   3.647   2.228   6.817  1.0588 -0.6038  2.6280
  149SAPE   H4S16437   3.535   2.121   6.732  0.1873  0.1625  0.0817
  149SAPE   C2516438   3.670   2.017   6.853  0.4060 -0.6398 -0.6810
  149SAPE   H5R16439   3.642   1.929   6.793  1.3428  0.2650 -2.4953
  149SAPE   C2616440   3.782   2.029   6.918 -0.4665 -0.4010  0.0509
  149SAPE   H6R16441   3.844   1.939   6.928 -0.3669 -0.1722  1.5404
  149SAPE   C2716442   3.856   2.160   6.965  0.6072 -0.0134  0.5328
  149SAPE   H7R16443   3.890   2.141   7.069  0.6942  1.7186  0.8350
  149SAPE   H7S16444   3.790   2.249   6.974 -0.0837 -0.4303 -0.3364
  149SAPE   C2816445   3.980   2.199   6.886 -0.8675 -0.1152  0.1932
  149SAPE   H8R16446   3.964   2.203   6.777 -0.8747  0.2937  0.2079
  149SAPE   C2916447   4.098   2.226   6.937 -0.4664 -0.0089  0.4373
  149SAPE   H9R16448   4.179   2.232   6.863 -0.7235  0.2744  0.1742
  149SAPE  C21016449   4.139   2.219   7.080 -0.1194  0.3397  0.6725
  149SAPE  H10R16450   4.193   2.125   7.105 -0.3221  0.2345  0.7113
  149SAPE  H10S16451   4.062   2.240   7.157 -1.6790 -0.3688 -0.6581
  149SAPE  C21116452   4.241   2.325   7.098  0.2672  0.8675  0.7386
  149SAPE  H11R16453   4.309   2.338   7.012 -1.0371 -0.7023 -0.5531
  149SAPE  C21216454   4.266   2.390   7.214  0.5953 -0.7402  0.0772
  149SAPE  H12R16455   4.345   2.466   7.206 -0.9473  0.8063 -0.9835
  149SAPE  C21316456   4.189   2.361   7.345 -0.4769 -0.6894 -0.5565
  149SAPE  H13R16457   4.164   2.254   7.356 -2.7857 -0.1050  0.0595
  149SAPE  H13S16458   4.093   2.414   7.360 -0.3190 -0.5497 -0.0303
  149SAPE  C21416459   4.280   2.417   7.457 -0.2854  0.4279 -1.0220
  149SAPE  H14R16460   4.370   2.474   7.430  0.8716 -1.4816 -1.3218
  149SAPE  C21516461   4.260   2.379   7.588  0.0429 -0.3544  1.0064
  149SAPE  H15R16462   4.336   2.416   7.658 -0.6058  1.5547  0.7347
  149SAPE  C21616463   4.155   2.294   7.645 -0.1986 -0.3569  0.0181
  149SAPE  H16R16464   4.204   2.195   7.656  0.8297 -0.1538 -2.5765
  149SAPE  H16S16465   4.072   2.278   7.573  0.1934  2.4245 -1.0763
  149SAPE  C21716466   4.105   2.350   7.781 -0.7629 -0.0425  0.1385
  149SAPE  H17R16467   4.043   2.272   7.830  1.3348 -1.2323  0.9591
  149SAPE  H17S16468   4.048   2.441   7.754 -2.8181 -1.3010  0.1279
  149SAPE  C21816469   4.210   2.383   7.883  0.0237  0.6501 -0.1252
  149SAPE  H18R16470   4.265   2.478   7.870  0.8403  0.5720  2.5945
  149SAPE  H18S16471   4.286   2.301   7.882  0.6145  1.1995 -0.9856
  149SAPE  C21916472   4.155   2.377   8.034  0.0932  0.0012 -0.6548
  149SAPE  H19R16473   4.113   2.277   8.057  1.1008 -0.4030 -0.5571
  149SAPE  H19S16474   4.078   2.457   8.041  0.5919  0.3569  0.7946
  149SAPE  C22016475   4.247   2.417   8.142 -0.0080 -0.1023  0.3829
  149SAPE  H20R16476   4.294   2.518   8.129 -0.5578  0.2122  0.8163
  149SAPE  H20S16477   4.333   2.347   8.141  0.0414 -0.0349 -0.0875
  149SAPE  H20T16478   4.201   2.404   8.242  1.6841  2.3269  1.5548
  149SAPE   C3316479   2.949   1.895   7.262 -0.7809  0.8773 -0.5957
  149SAPE   H3X16480   2.902   1.871   7.361  2.0880  1.6464  1.0011
  149SAPE   H3Y16481   2.863   1.921   7.196 -1.6724  0.6347  0.4401
  149SAPE   C3416482   3.046   2.013   7.287  0.4868 -0.0610  0.0398
  149SAPE   H4X16483   2.991   2.099   7.331  0.9986  1.5528 -2.3580
  149SAPE   H4Y16484   3.095   2.045   7.193  0.8098 -1.0295 -0.1254
  149SAPE   C3516485   3.161   1.977   7.384  0.2888 -0.0268 -0.5085
  149SAPE   H5X16486   3.228   1.902   7.336 -0.9142 -1.7768  0.5243
  149SAPE   H5Y16487   3.118   1.936   7.477  2.3419  1.1512  0.9895
  149SAPE   C3616488   3.254   2.084   7.433 -0.1340  0.8511 -0.0311
  149SAPE   H6X16489   3.184   2.167   7.456  0.3273  1.4913 -0.9016
  149SAPE   H6Y16490   3.317   2.131   7.354 -0.9053  0.6951 -0.7462
  149SAPE   C3716491   3.349   2.033   7.540  0.3549  0.2422  0.5633
  149SAPE   H7X16492   3.412   2.117   7.576  0.7290  0.5550 -0.8107
  149SAPE   H7Y16493   3.415   1.958   7.490 -1.9022 -0.4840 -1.4353
  149SAPE   C3816494   3.280   1.955   7.649 -0.2983 -0.3123  0.0492
  149SAPE   H8X16495   3.263   1.851   7.613  1.3354 -0.4415 -0.4239
  149SAPE   H8Y16496   3.176   1.992   7.660  0.1875  0.8721  0.6551
  149SAPE   C3916497   3.357   1.952   7.779  0.1006 -0.6826  0.3901
  149SAPE   H9X16498   3.370   2.057   7.813  0.2522 -1.0104  1.3532
  149SAPE   H9Y16499   3.464   1.921   7.767  0.6473  2.1708 -3.1145
  149SAPE  C31016500   3.279   1.877   7.891  0.8965 -0.1309 -0.5614
  149SAPE  H10X16501   3.272   1.767   7.876  1.0303 -0.2477  0.2108
  149SAPE  H10Y16502   3.174   1.914   7.896  0.7398 -0.4399 -1.3755
  149SAPE  C31116503   3.348   1.900   8.036 -0.0852 -0.4829 -0.1082
  149SAPE  H11X16504   3.344   2.009   8.057  1.7164 -0.0865 -1.6955
  149SAPE  H11Y16505   3.451   1.864   8.014  1.9717  3.6736  2.1084
  149SAPE  C31216506   3.299   1.822   8.148  0.1378 -0.1287 -0.4526
  149SAPE  H12X16507   3.374   1.839   8.228 -0.7575  1.9587 -0.0028
  149SAPE  H12Y16508   3.288   1.714   8.127 -0.1348 -0.1669 -0.1125
  149SAPE  C31316509   3.167   1.888   8.197  0.1327 -0.2717  0.9258
  149SAPE  H13X16510   3.088   1.887   8.120 -1.5893  0.4318  2.6557
  149SAPE  H13Y16511   3.182   1.997   8.214 -0.0318  0.1387 -1.4750
  149SAPE  C31416512   3.105   1.817   8.318  0.0882 -0.6735  0.7314
  149SAPE  H14X16513   3.184   1.800   8.395  1.3857  0.1177 -0.4110
  149SAPE  H14Y16514   3.078   1.716   8.278 -0.4536  0.4222 -1.7515
  149SAPE  C31516515   2.973   1.876   8.379 -0.3931 -0.2953  0.7503
  149SAPE  H15X16516   2.978   1.838   8.483  1.4633  0.7951  1.0833
  149SAPE  H15Y16517   2.886   1.840   8.320 -0.7491  3.3295 -1.1333
  149SAPE  C31616518   2.972   2.028   8.371 -0.1517  0.0277 -0.9085
  149SAPE  H16X16519   2.963   2.063   8.266 -0.8470  1.8080 -0.2741
  149SAPE  H16Y16520   3.069   2.059   8.415 -0.5677  0.2947 -0.1623
  149SAPE  C31716521   2.856   2.092   8.450 -0.0506 -0.0121 -0.2715
  149SAPE  H17X16522   2.885   2.086   8.557  1.9740  0.9123 -0.7434
  149SAPE  H17Y16523   2.763   2.035   8.431 -0.2945  0.7021 -1.2540
  149SAPE  C31816524   2.850   2.240   8.409 -0.4995  0.6597  0.3648
  149SAPE  H18X16525   2.830   2.239   8.300 -2.2027 -1.0584  0.6614
  149SAPE  H18Y16526   2.949   2.285   8.431  0.8901 -3.0070  1.9235
  149SAPE  H18Z16527   2.775   2.297   8.469 -0.1770 -0.3056  1.7216
  150SAPE     N16528   2.142   3.381   6.377  0.3650  0.3101 -0.0099
  150SAPE   HN116529   2.072   3.452   6.346  1.1989 -0.1853 -3.1131
  150SAPE   HN216530   2.235   3.425   6.384  0.6763 -0.4864  1.0619
  150SAPE   HN316531   2.141   3.297   6.315  4.1698 -1.4858  2.1592
  150SAPE   C1216532   2.110   3.323   6.509  0.1486  0.5354 -0.2320
  150SAPE  H12A16533   2.103   3.401   6.587  2.6142 -0.8865  1.5081
  150SAPE  H12B16534   2.186   3.244   6.525 -0.4440  0.4600  2.3893
  150SAPE   C1116535   1.971   3.255   6.499 -0.1588 -0.7290  0.0006
  150SAPE  H11A16536   1.900   3.333   6.465  1.0195 -0.0983 -1.0596
  150SAPE  H11B16537   1.938   3.224   6.600 -2.3383 -0.1132 -0.4885
  150SAPE     P16538   2.008   2.997   6.477  0.2879 -0.2082  0.3666
  150SAPE   O1316539   1.895   2.915   6.506 -0.0753 -0.2928 -0.4781
  150SAPE   O1416540   2.104   2.933   6.386 -0.3727  0.2143  0.3300
  150SAPE   O1216541   1.976   3.142   6.415  0.1664  0.1614 -0.1628
  150SAPE   O1116542   2.090   3.032   6.603  0.3602  0.2069 -0.2974
  150SAPE    C116543   2.180   2.943   6.667 -0.8388 -0.5587 -0.0117
  150SAPE    HA16544   2.140   2.904   6.763  2.9930 -1.2479  1.3626
  150SAPE    HB16545   2.202   2.847   6.615  3.8590 -1.2635  2.9602
  150SAPE    C216546   2.316   3.010   6.695  0.4603  0.3465  0.3024
  150SAPE    HS16547   2.368   2.941   6.764 -2.2032 -0.8972  1.1454
  150SAPE   O2116548   2.310   3.150   6.741  0.0638  0.1666 -0.0316
  150SAPE   C2116549   2.272   3.160   6.859 -0.0669  0.0576 -0.0183
  150SAPE   O2216550   2.227   3.071   6.929  0.4135  0.4745 -0.4028
  150SAPE   C2216551   2.284   3.310   6.897  0.5741  0.2471 -0.8425
  150SAPE   H2R16552   2.366   3.309   6.972  0.0008 -0.7255 -0.2180
  150SAPE   H2S16553   2.324   3.367   6.811  3.2906 -2.0881 -1.2140
  150SAPE    C316554   2.405   3.019   6.564  0.0467 -0.3127 -0.2108
  150SAPE    HX16555   2.354   3.096   6.502 -1.9830 -0.9013  0.6760
  150SAPE    HY16556   2.399   2.924   6.508  0.5438 -0.6937  0.3675
  150SAPE   O3116557   2.540   3.063   6.595 -0.2008 -0.8192  0.1368
  150SAPE   C3116558   2.640   3.026   6.514  0.6989 -0.5771  0.0927
  150SAPE   O3216559   2.627   2.971   6.409 -0.2060  0.0499 -0.3302
  150SAPE   C3216560   2.764   3.086   6.569  0.6334 -0.4300  0.2822
  150SAPE   H2X16561   2.744   3.166   6.644  0.3880  0.0791 -0.3238
  150SAPE   H2Y16562   2.815   3.148   6.492  0.9271  0.2193  0.9910
  150SAPE   C2316563   2.156   3.374   6.946 -0.1990  0.0190 -0.2267
  150SAPE   H3R16564   2.138   3.328   7.045  2.3003  0.7406  0.6117
  150SAPE   H3S16565   2.070   3.340   6.884 -0.5126 -0.1025  0.2730
  150SAPE   C2416566   2.168   3.528   6.948 -0.0293 -0.0749  0.4582
  150SAPE   H4R16567   2.188   3.563   6.844 -0.2879 -0.0227  0.4250
  150SAPE   H4S16568   2.248   3.554   7.020  1.6758  1.5848 -1.9623
  150SAPE   C2516569   2.032   3.566   6.988  0.1079  0.1019 -0.0775
  150SAPE   H5R16570   1.968   3.567   6.898 -0.9786 -0.8154  0.6659
  150SAPE   C2616571   1.978   3.598   7.100  0.3147 -0.1303 -0.3582
  150SAPE   H6R16572   1.871   3.626   7.095 -0.2025 -1.8871  0.6509
  150SAPE   C2716573   2.058   3.610   7.226 -0.5151  0.5229 -1.2137
  150SAPE   H7R16574   2.065   3.714   7.265  2.0540 -0.5134  1.2421
  150SAPE   H7S16575   2.166   3.588   7.206 -0.4279  0.6165 -0.8462
  150SAPE   C2816576   2.009   3.517   7.338 -0.8678  0.3397 -0.2676
  150SAPE   H8R16577   1.999   3.416   7.295  1.1811  0.0885 -0.1914
  150SAPE   C2916578   1.984   3.536   7.469  0.2424 -0.6466  0.2983
  150SAPE   H9R16579   1.945   3.451   7.527 -0.7411  0.4675  1.2745
  150SAPE  C21016580   1.991   3.662   7.543  0.5050 -0.6244  0.0118
  150SAPE  H10R16581   2.012   3.752   7.480 -0.7824 -1.2117 -1.2966
  150SAPE  H10S16582   2.087   3.671   7.598  0.2132 -1.2657  0.6252
  150SAPE  C21116583   1.867   3.682   7.625  0.0446  0.9190  0.5803
  150SAPE  H11R16584   1.772   3.700   7.573 -1.0055 -3.3498  0.8735
  150SAPE  C21216585   1.866   3.666   7.756 -0.1593  0.8265 -0.3013
  150SAPE  H12R16586   1.767   3.664   7.804 -1.2316  0.0531 -2.4757
  150SAPE  C21316587   1.984   3.640   7.848  0.2060 -0.2027 -0.6721
  150SAPE  H13R16588   1.959   3.680   7.949 -2.3139 -0.2765 -1.2294
  150SAPE  H13S16589   2.068   3.707   7.821  1.6861  0.4761  4.8779
  150SAPE  C21416590   2.038   3.496   7.850  1.1638 -0.1214 -0.1533
  150SAPE  H14R16591   2.066   3.463   7.749  0.9828 -0.0178 -0.2364
  150SAPE  C21516592   2.052   3.425   7.962  0.7995  0.6380 -0.4409
  150SAPE  H15R16593   2.110   3.334   7.946  0.7968  0.8641 -1.8006
  150SAPE  C21616594   2.010   3.459   8.101 -0.2163  0.1828 -0.3627
  150SAPE  H16R16595   2.011   3.570   8.114  0.1867  0.1912 -0.4541
  150SAPE  H16S16596   2.084   3.419   8.174 -1.6209  0.2565  1.1398
  150SAPE  C21716597   1.864   3.425   8.145 -0.1288 -0.0633  0.1610
  150SAPE  H17R16598   1.847   3.316   8.129  0.9492  0.0350 -1.8481
  150SAPE  H17S16599   1.796   3.476   8.075 -0.1901 -2.2635 -1.4478
  150SAPE  C21816600   1.834   3.474   8.289  0.4638  0.7795 -0.0067
  150SAPE  H18R16601   1.872   3.578   8.289 -1.8317  1.6318  0.4495
  150SAPE  H18S16602   1.896   3.412   8.358  0.7585  1.8376  0.6994
  150SAPE  C21916603   1.683   3.453   8.331 -0.3973 -0.2624  0.0474
  150SAPE  H19R16604   1.676   3.342   8.335  3.0446 -0.5081  0.9923
  150SAPE  H19S16605   1.610   3.498   8.261  0.2150  1.0435  0.2185
  150SAPE  C22016606   1.660   3.506   8.484 -0.0867 -0.0995 -0.0300
  150SAPE  H20R16607   1.649   3.616   8.491 -1.0680 -0.2582  1.1575
  150SAPE  H20S16608   1.754   3.470   8.533  1.3802  1.2362 -1.8091
  150SAPE  H20T16609   1.571   3.455   8.526  0.2674 -0.7759 -0.0902
  150SAPE   C3316610   2.855   2.975   6.644 -0.1177  0.6727  0.3125
  150SAPE   H3X16611   2.951   3.024   6.673 -0.0692  0.3706  0.6746
  150SAPE   H3Y16612   2.897   2.891   6.584  2.6374  0.0006  3.0357
  150SAPE   C3416613   2.791   2.907   6.763 -0.2633  0.1528 -0.9522
  150SAPE   H4X16614   2.847   2.820   6.803 -0.7902  0.0737 -0.3815
  150SAPE   H4Y16615   2.690   2.874   6.731 -0.9985  0.3873  1.0543
  150SAPE   C3516616   2.751   3.010   6.877 -0.0554  0.2991 -0.2331
  150SAPE   H5X16617   2.652   3.056   6.858  0.4023  2.7665  2.9068
  150SAPE   H5Y16618   2.815   3.101   6.875  0.2930  0.0880  0.8992
  150SAPE   C3616619   2.759   2.949   7.017 -0.0400  0.1457 -0.2289
  150SAPE   H6X16620   2.865   2.937   7.047 -0.1890 -0.9726 -0.1354
  150SAPE   H6Y16621   2.716   2.848   7.005 -2.8665  1.3345 -0.3838
  150SAPE   C3716622   2.682   3.027   7.132 -1.6429  0.4743 -0.0149
  150SAPE   H7X16623   2.722   3.131   7.128  0.7631 -0.3934  0.9232
  150SAPE   H7Y16624   2.708   2.982   7.230 -1.6259  1.5881  0.5052
  150SAPE   C3816625   2.531   3.015   7.118 -0.4888 -0.6126  0.5059
  150SAPE   H8X16626   2.493   2.912   7.100 -0.0250 -0.5831 -0.6680
  150SAPE   H8Y16627   2.493   3.071   7.030  0.0564 -1.6921 -0.4309
  150SAPE   C3916628   2.449   3.071   7.242  0.4002 -0.0372  0.5785
  150SAPE   H9X16629   2.342   3.065   7.214  0.3725 -1.5325  0.9570
  150SAPE   H9Y16630   2.475   3.178   7.255 -3.4218  0.9743  0.4570
  150SAPE  C31016631   2.477   3.008   7.377  0.7392  0.1184  0.0547
  150SAPE  H10X16632   2.584   2.988   7.396  0.7421  0.2479  0.1760
  150SAPE  H10Y16633   2.418   2.914   7.368 -1.2124  1.2384  0.9282
  150SAPE  C31116634   2.408   3.084   7.491  0.0393 -1.0475 -0.2974
  150SAPE  H11X16635   2.304   3.101   7.456  0.0839  1.8072  0.7691
  150SAPE  H11Y16636   2.460   3.182   7.502  0.6239 -1.4116  0.2585
  150SAPE  C31216637   2.423   3.034   7.633 -0.6431  0.1209  0.3767
  150SAPE  H12X16638   2.529   3.031   7.667 -0.3321 -2.0957 -0.6845
  150SAPE  H12Y16639   2.375   2.936   7.649  1.6664 -1.4665 -1.9342
  150SAPE  C31316640   2.360   3.142   7.722  0.3804  0.3177 -0.1038
  150SAPE  H13X16641   2.256   3.145   7.683  0.5391  1.9812 -0.4142
  150SAPE  H13Y16642   2.402   3.243   7.704 -0.2116  0.4288 -0.8652
  150SAPE  C31416643   2.334   3.103   7.869  0.0059  0.1668  0.9056
  150SAPE  H14X16644   2.286   3.005   7.890 -0.6761  0.3563  0.2625
  150SAPE  H14Y16645   2.276   3.177   7.929  0.7681  1.1588  0.4127
  150SAPE  C31516646   2.466   3.095   7.950 -0.7735 -0.0460 -0.6105
  150SAPE  H15X16647   2.526   3.188   7.954 -0.7978 -0.0943  1.2271
  150SAPE  H15Y16648   2.534   3.024   7.899 -0.7388  0.7770 -1.7479
  150SAPE  C31616649   2.453   3.044   8.100 -0.1699  0.4831 -0.1139
  150SAPE  H16X16650   2.546   3.055   8.160  1.3021  0.2820 -2.3080
  150SAPE  H16Y16651   2.434   2.935   8.100  3.2945 -0.1623 -0.3038
  150SAPE  C31716652   2.347   3.113   8.192 -0.0687  0.8020  0.3182
  150SAPE  H17X16653   2.350   3.071   8.295 -0.1125  1.7908  0.7304
  150SAPE  H17Y16654   2.248   3.084   8.150  0.6911 -1.1575 -0.1893
  150SAPE  C31816655   2.354   3.266   8.199 -0.1534  0.4483  0.1106
  150SAPE  H18X16656   2.300   3.301   8.290 -2.8048  0.1416 -1.3204
  150SAPE  H18Y16657   2.297   3.305   8.112 -1.8912 -0.8120  0.6521
  150SAPE  H18Z16658   2.456   3.309   8.191 -0.1648  0.2780 -1.0591
  151SAPE     N16659   5.169   0.757   6.146  0.0957  0.3805  0.1594
  151SAPE   HN116660   5.265   0.722   6.125  0.0380  0.3189  0.0002
  151SAPE   HN216661   5.121   0.711   6.226 -1.0777  1.6158  0.1765
  151SAPE   HN316662   5.112   0.733   6.063  0.0964  3.3647 -0.7357
  151SAPE   C1216663   5.170   0.910   6.151 -0.0858  0.0078  0.1499
  151SAPE  H12A16664   5.232   0.944   6.065  0.7849 -1.0479  0.3470
  151SAPE  H12B16665   5.213   0.940   6.249  0.1350  2.9037 -0.7843
  151SAPE   C1116666   5.031   0.978   6.144 -0.4213  0.2187  0.4453
  151SAPE  H11A16667   4.984   0.966   6.044 -0.2303  0.9185  0.2677
  151SAPE  H11B16668   5.043   1.087   6.163 -0.2208  0.5195 -1.2831
  151SAPE     P16669   4.848   0.997   6.322  0.3127  0.0557  0.3767
  151SAPE   O1316670   4.904   1.127   6.365 -0.0012 -0.1711 -0.5849
  151SAPE   O1416671   4.713   1.003   6.259 -0.8353 -0.0212 -0.1781
  151SAPE   O1216672   4.943   0.913   6.229  0.0758 -0.3203  0.1343
  151SAPE   O1116673   4.845   0.899   6.450 -0.0153 -0.0487 -0.6505
  151SAPE    C116674   4.956   0.883   6.540  0.6021 -0.2517 -0.2102
  151SAPE    HA16675   5.020   0.800   6.503  0.9014  0.4695 -1.3234
  151SAPE    HB16676   5.017   0.975   6.546 -1.0896  0.7975  1.2710
  151SAPE    C216677   4.911   0.853   6.689  0.1382  0.3417  0.4737
  151SAPE    HS16678   5.002   0.846   6.752 -0.0344  1.3858  0.8545
  151SAPE   O2116679   4.825   0.739   6.707 -0.2827  0.4313  0.4896
  151SAPE   C2116680   4.876   0.623   6.666  0.7390  0.5901  0.5591
  151SAPE   O2216681   4.987   0.607   6.622 -0.2888  0.4009 -0.1567
  151SAPE   C2216682   4.767   0.510   6.664 -0.2623 -0.5113  0.3273
  151SAPE   H2R16683   4.685   0.533   6.735  0.0033  0.4638  0.3239
  151SAPE   H2S16684   4.736   0.510   6.557  0.4766  0.0270  0.1082
  151SAPE    C316685   4.842   0.980   6.738  0.2970  0.3848  0.2216
  151SAPE    HX16686   4.769   1.028   6.669  1.6821 -0.9958 -2.2755
  151SAPE    HY16687   4.926   1.050   6.753  1.1632 -0.5142 -0.3407
  151SAPE   O3116688   4.786   0.959   6.869 -0.0090  0.4167  0.1646
  151SAPE   C3116689   4.661   0.919   6.869 -0.1398 -0.6344 -0.5741
  151SAPE   O3216690   4.579   0.938   6.781 -0.5917  0.0713 -0.3321
  151SAPE   C3216691   4.640   0.829   6.989  0.0947  0.0954  0.2600
  151SAPE   H2X16692   4.571   0.751   6.950  3.5142 -1.9036 -2.0973
  151SAPE   H2Y16693   4.595   0.883   7.074 -0.2540 -0.1038  0.2040
  151SAPE   C2316694   4.818   0.364   6.680  0.1403  0.0612 -0.4786
  151SAPE   H3R16695   4.891   0.353   6.597 -1.1377  1.9004 -1.8849
  151SAPE   H3S16696   4.736   0.290   6.662  0.7706 -0.6900 -0.2855
  151SAPE   C2416697   4.870   0.333   6.815 -0.1629 -0.6141 -0.6450
  151SAPE   H4R16698   4.936   0.419   6.838 -1.6316  0.1508  0.7726
  151SAPE   H4S16699   4.928   0.238   6.818 -1.7392 -1.5512  1.5130
  151SAPE   C2516700   4.760   0.314   6.920 -0.3912  0.4795  0.2802
  151SAPE   H5R16701   4.659   0.349   6.897  0.2303  2.8088  0.9881
  151SAPE   C2616702   4.762   0.255   7.042  0.4937  0.3389 -0.4116
  151SAPE   H6R16703   4.666   0.240   7.095 -0.5565 -0.9985 -2.6213
  151SAPE   C2716704   4.879   0.192   7.112 -0.3396  0.0277 -0.1495
  151SAPE   H7R16705   4.974   0.194   7.055  0.2471 -1.2145  0.7598
  151SAPE   H7S16706   4.880   0.083   7.131 -0.2234  0.1884  0.7964
  151SAPE   C2816707   4.909   0.260   7.246  0.5278 -0.3251  0.8035
  151SAPE   H8R16708   4.968   0.352   7.233 -1.5754  1.0546  0.8987
  151SAPE   C2916709   4.862   0.231   7.369  0.2671  0.2937  0.0308
  151SAPE   H9R16710   4.891   0.304   7.446  0.6642  2.2708 -1.9368
  151SAPE  C21016711   4.776   0.114   7.403  0.1810 -0.7847 -0.6518
  151SAPE  H10R16712   4.761   0.051   7.312  2.7581 -0.7976 -1.1201
  151SAPE  H10S16713   4.676   0.144   7.440  0.3465 -0.9234 -0.0801
  151SAPE  C21116714   4.845   0.027   7.503  0.1797 -0.0046 -0.2420
  151SAPE  H11R16715   4.928  -0.026   7.454 -0.3203 -2.9319  1.9729
  151SAPE  C21216716   4.820   0.004   7.632  0.1987  0.8020  0.0668
  151SAPE  H12R16717   4.895  -0.061   7.680  0.8403  0.6019 -1.1975
  151SAPE  C21316718   4.717   0.069   7.717  0.2619 -0.0655 -0.0348
  151SAPE  H13R16719   4.674   0.156   7.663 -1.3661 -1.0144 -0.3073
  151SAPE  H13S16720   4.761   0.119   7.805  0.0071 -0.2951  0.2218
  151SAPE  C21416721   4.605  -0.025   7.758 -0.6735 -1.0407 -0.6607
  151SAPE  H14R16722   4.518  -0.021   7.691 -0.9922  1.2262 -0.1772
  151SAPE  C21516723   4.606  -0.100   7.875 -0.5437  0.8306  1.0819
  151SAPE  H15R16724   4.533  -0.182   7.886 -1.2673  0.8535 -2.9812
  151SAPE  C21616725   4.734  -0.106   7.958 -0.2778 -0.1946  0.1185
  151SAPE  H16R16726   4.815  -0.046   7.910 -0.3291 -1.2026 -1.2425
  151SAPE  H16S16727   4.769  -0.209   7.978  0.9368 -0.0527 -1.2273
  151SAPE  C21716728   4.702  -0.046   8.098 -0.3786  0.8032  0.4037
  151SAPE  H17R16729   4.712   0.065   8.104 -1.4527  0.9773 -0.8307
  151SAPE  H17S16730   4.775  -0.103   8.160 -0.9794  1.1091  1.3991
  151SAPE  C21816731   4.569  -0.083   8.165 -0.2615 -0.0759  0.3408
  151SAPE  H18R16732   4.543  -0.187   8.134 -0.3627  0.4049 -1.2467
  151SAPE  H18S16733   4.492  -0.014   8.126 -0.4546 -0.9329 -0.8133
  151SAPE  C21916734   4.564  -0.051   8.316  0.5677  0.0624  0.6992
  151SAPE  H19R16735   4.455  -0.033   8.329 -0.0509 -1.0662 -2.5419
  151SAPE  H19S16736   4.619   0.044   8.336 -1.7758  1.8384 -0.9619
  151SAPE  C22016737   4.608  -0.162   8.412  0.8037  0.8078 -0.2900
  151SAPE  H20R16738   4.543  -0.252   8.403  0.5308  1.2469 -3.0789
  151SAPE  H20S16739   4.709  -0.199   8.387  0.2167 -0.1187 -1.3616
  151SAPE  H20T16740   4.602  -0.140   8.521  1.5672 -0.1206 -0.0532
  151SAPE   C3316741   4.766   0.752   7.041  0.7610 -0.2254 -0.1071
  151SAPE   H3X16742   4.856   0.817   7.039 -0.3596  1.3462  0.0505
  151SAPE   H3Y16743   4.775   0.668   6.968  1.5663 -1.2235  1.1297
  151SAPE   C3416744   4.749   0.701   7.185  0.9012  0.5884 -0.1323
  151SAPE   H4X16745   4.711   0.782   7.250 -1.4422  0.2521 -1.0231
  151SAPE   H4Y16746   4.840   0.650   7.224  1.4908  1.8709  0.1662
  151SAPE   C3516747   4.649   0.587   7.183 -0.0465 -0.3498  0.2403
  151SAPE   H5X16748   4.679   0.509   7.111  1.8989  0.4413  0.1631
  151SAPE   H5Y16749   4.547   0.613   7.147 -0.2446  1.4020  1.9974
  151SAPE   C3616750   4.626   0.535   7.332 -0.0708 -0.1491 -0.6787
  151SAPE   H6X16751   4.599   0.624   7.393 -0.2982 -0.0163 -0.9752
  151SAPE   H6Y16752   4.726   0.499   7.364 -0.3923 -0.8697 -0.4592
  151SAPE   C3716753   4.518   0.432   7.357 -0.1385  0.0855 -0.9456
  151SAPE   H7X16754   4.550   0.329   7.328  0.1704 -0.0361 -0.1722
  151SAPE   H7Y16755   4.414   0.448   7.319 -0.7067  3.7520  1.9312
  151SAPE   C3816756   4.514   0.406   7.510  1.1967  0.7093  0.4451
  151SAPE   H8X16757   4.519   0.506   7.559 -1.0548  1.0203  0.0675
  151SAPE   H8Y16758   4.612   0.363   7.541  1.0591  0.8775  1.1214
  151SAPE   C3916759   4.407   0.316   7.566 -0.1475  0.7855  0.7424
  151SAPE   H9X16760   4.430   0.207   7.557 -0.1351  0.7573  1.0731
  151SAPE   H9Y16761   4.312   0.325   7.510  1.0328  0.9333 -1.2554
  151SAPE  C31016762   4.374   0.344   7.710  0.2177 -0.0633 -0.0075
  151SAPE  H10X16763   4.349   0.451   7.722  3.7284  0.6806  0.9797
  151SAPE  H10Y16764   4.464   0.333   7.773  0.1785 -1.6410 -0.2065
  151SAPE  C31116765   4.254   0.264   7.757  0.1304 -0.6951  0.1029
  151SAPE  H11X16766   4.262   0.160   7.720  0.6482 -1.4370  2.2089
  151SAPE  H11Y16767   4.156   0.302   7.720  0.6787 -1.2439 -1.9288
  151SAPE  C31216768   4.242   0.254   7.904 -0.0749  0.0585 -0.1874
  151SAPE  H12X16769   4.347   0.265   7.938 -0.4260 -0.1535  0.9938
  151SAPE  H12Y16770   4.202   0.156   7.939  0.8122 -0.4366 -0.5514
  151SAPE  C31316771   4.159   0.362   7.975  0.5159  0.7680  0.4460
  151SAPE  H13X16772   4.054   0.352   7.940  0.4688 -1.1307  1.0780
  151SAPE  H13Y16773   4.198   0.465   7.959 -0.0435  1.2115  1.8381
  151SAPE  C31416774   4.155   0.347   8.128 -0.9981 -0.2748  0.3373
  151SAPE  H14X16775   4.110   0.248   8.146 -3.1640  0.2604 -1.9056
  151SAPE  H14Y16776   4.078   0.417   8.166 -0.7290 -0.7660  1.8366
  151SAPE  C31516777   4.301   0.364   8.187  0.5602  0.3687 -0.4456
  151SAPE  H15X16778   4.335   0.467   8.164  1.8899 -0.2871 -1.4297
  151SAPE  H15Y16779   4.363   0.289   8.134  2.2986  0.7809  0.9535
  151SAPE  C31616780   4.289   0.344   8.339 -0.0181  0.4141  0.2566
  151SAPE  H16X16781   4.222   0.258   8.359  1.3213 -0.8140 -0.4612
  151SAPE  H16Y16782   4.246   0.434   8.388  1.1002  0.3658  1.3656
  151SAPE  C31716783   4.430   0.313   8.399  0.3280  0.4398 -0.2397
  151SAPE  H17X16784   4.503   0.395   8.385  1.0257 -0.0904  0.2145
  151SAPE  H17Y16785   4.461   0.222   8.342  1.0063  1.1584 -1.0221
  151SAPE  C31816786   4.436   0.264   8.552 -0.2749  1.0928 -0.1128
  151SAPE  H18X16787   4.415   0.347   8.622  1.6966  1.1675  0.4101
  151SAPE  H18Y16788   4.539   0.224   8.563 -0.5314  0.4131 -0.1039
  151SAPE  H18Z16789   4.361   0.183   8.561 -0.2924  0.7633 -2.7468
  152SAPE     N16790   1.556   3.812   6.002  0.3914 -0.4132 -0.3225
  152SAPE   HN116791   1.566   3.712   6.028  1.2329 -0.1836  0.2713
  152SAPE   HN216792   1.530   3.825   5.902 -3.8463 -0.7974  0.6298
  152SAPE   HN316793   1.653   3.847   6.010  0.6780 -1.2975  0.1455
  152SAPE   C1216794   1.460   3.882   6.095  0.0806 -0.1118  0.2722
  152SAPE  H12A16795   1.362   3.831   6.090 -0.6614  1.2235  0.9851
  152SAPE  H12B16796   1.456   3.987   6.059  1.7950  0.3888  1.4888
  152SAPE   C1116797   1.516   3.884   6.241  0.0984 -0.3144 -0.1702
  152SAPE  H11A16798   1.518   3.778   6.274 -0.9238 -0.8936 -1.8827
  152SAPE  H11B16799   1.437   3.939   6.295 -0.4183  0.6210 -1.8371
  152SAPE     P16800   1.735   3.915   6.368 -0.0945 -0.0836  0.1708
  152SAPE   O1316801   1.800   3.788   6.332  0.7467 -0.7588 -0.1495
  152SAPE   O1416802   1.825   4.024   6.395  0.1334  0.1052 -0.0126
  152SAPE   O1216803   1.636   3.956   6.247  0.2838  0.3318 -0.9048
  152SAPE   O1116804   1.641   3.885   6.490  0.0448 -0.2520  0.1956
  152SAPE    C116805   1.595   3.991   6.570  0.5375  0.3840 -0.2676
  152SAPE    HA16806   1.626   4.092   6.537  1.3042  0.2888  0.1433
  152SAPE    HB16807   1.485   3.996   6.562  0.5281  0.7209  0.0576
  152SAPE    C216808   1.634   3.978   6.721 -0.1767 -0.2848  0.3681
  152SAPE    HS16809   1.563   4.042   6.778  0.2820  0.6747 -0.1285
  152SAPE   O2116810   1.775   4.016   6.730  0.1007  0.2818 -0.1744
  152SAPE   C2116811   1.801   4.146   6.746 -0.1250 -0.4286  0.4027
  152SAPE   O2216812   1.719   4.239   6.747 -0.4981  0.4513  0.6567
  152SAPE   C2216813   1.956   4.166   6.759  0.2240  0.0172  0.2071
  152SAPE   H2R16814   1.991   4.201   6.660 -0.4760 -0.0077 -0.0537
  152SAPE   H2S16815   1.984   4.236   6.840 -2.9746  0.6156  0.8869
  152SAPE    C316816   1.596   3.837   6.767  0.6706  0.8247 -0.1690
  152SAPE    HX16817   1.668   3.761   6.731 -0.4802 -1.7925  2.8108
  152SAPE    HY16818   1.495   3.810   6.730  0.8851 -2.8853  1.7664
  152SAPE   O3116819   1.601   3.840   6.911 -0.3563 -0.2583 -0.5168
  152SAPE   C3116820   1.532   3.747   6.975 -0.3853  1.0687 -0.0889
  152SAPE   O3216821   1.456   3.664   6.923  0.2970  0.3971 -0.3741
  152SAPE   C3216822   1.563   3.754   7.117  1.1556 -0.1852 -0.4480
  152SAPE   H2X16823   1.543   3.862   7.134 -1.5712 -0.4940 -1.4496
  152SAPE   H2Y16824   1.669   3.723   7.129  0.7318 -1.7440 -0.6844
  152SAPE   C2316825   2.041   4.039   6.783 -0.2734 -0.3186  0.9242
  152SAPE   H3R16826   2.147   4.051   6.753 -0.2095 -0.2133  1.1889
  152SAPE   H3S16827   1.996   3.956   6.724  0.9372 -0.0807 -0.3644
  152SAPE   C2416828   2.049   3.990   6.928  0.1608 -0.0128 -0.8351
  152SAPE   H4R16829   2.099   4.065   6.994 -0.3994  0.0911 -0.5249
  152SAPE   H4S16830   2.102   3.895   6.947  2.4265  1.0429 -1.7401
  152SAPE   C2516831   1.915   3.964   6.989  0.5049  0.1705  0.7352
  152SAPE   H5R16832   1.873   3.884   6.927  1.1511  0.4880 -0.1242
  152SAPE   C2616833   1.842   4.013   7.089 -0.0477  0.4638  0.2891
  152SAPE   H6R16834   1.740   3.973   7.099 -0.4783  0.6056 -2.9965
  152SAPE   C2716835   1.889   4.113   7.190 -0.0088 -0.1283  0.3598
  152SAPE   H7R16836   1.797   4.165   7.226  1.6487  1.3057  2.6368
  152SAPE   H7S16837   1.959   4.187   7.146  1.3886 -0.2765  2.3043
  152SAPE   C2816838   1.958   4.053   7.309  0.7708  0.1589 -0.1767
  152SAPE   H8R16839   2.060   4.013   7.298  0.1009 -1.2840 -1.3077
  152SAPE   C2916840   1.897   4.027   7.428 -0.1144 -0.2803 -0.5449
  152SAPE   H9R16841   1.956   3.998   7.516 -1.4192  1.5551  0.9787
  152SAPE  C21016842   1.745   4.049   7.459  0.6418 -0.3607  0.3242
  152SAPE  H10R16843   1.716   3.950   7.499 -0.2334  0.1174  0.8863
  152SAPE  H10S16844   1.666   4.059   7.382  1.1209  0.3482 -0.0843
  152SAPE  C21116845   1.741   4.154   7.567 -0.1505  0.1074 -0.4571
  152SAPE  H11R16846   1.746   4.260   7.538  1.1141 -0.0216 -0.7551
  152SAPE  C21216847   1.711   4.137   7.698 -0.7639 -0.1374  0.0039
  152SAPE  H12R16848   1.678   4.227   7.752  0.8118  0.1059  0.5819
  152SAPE  C21316849   1.687   4.012   7.778 -0.2002 -0.0441 -0.3365
  152SAPE  H13R16850   1.756   4.022   7.864 -0.3636 -1.6313  0.0020
  152SAPE  H13S16851   1.725   3.932   7.710  3.2225  2.4886 -1.5260
  152SAPE  C21416852   1.547   3.991   7.816  0.5457  0.3533 -1.0842
  152SAPE  H14R16853   1.475   4.043   7.752  0.3747  1.7702  0.2285
  152SAPE  C21516854   1.513   3.922   7.928  0.6282  0.1889 -0.2320
  152SAPE  H15R16855   1.407   3.917   7.958  0.7999 -2.7091  0.0183
  152SAPE  C21616856   1.599   3.839   8.018 -0.7553  0.4565 -0.3624
  152SAPE  H16R16857   1.703   3.876   8.032  0.1676 -2.5730  1.1191
  152SAPE  H16S16858   1.618   3.747   7.958 -0.7973  0.3321 -0.1838
  152SAPE  C21716859   1.550   3.829   8.163  0.2522 -0.0713 -0.5108
  152SAPE  H17R16860   1.518   3.930   8.196 -1.7494 -0.5040 -1.0402
  152SAPE  H17S16861   1.628   3.777   8.224  0.8862 -0.0021 -1.2627
  152SAPE  C21816862   1.427   3.734   8.179  0.1081 -0.1197  0.3276
  152SAPE  H18R16863   1.470   3.635   8.154 -2.6783 -1.7232  1.6408
  152SAPE  H18S16864   1.341   3.753   8.111 -0.0730 -1.0504  0.2916
  152SAPE  C21916865   1.374   3.723   8.324  0.4330  0.4961 -0.6341
  152SAPE  H19R16866   1.459   3.724   8.395  0.5376  0.3172 -0.7559
  152SAPE  H19S16867   1.307   3.636   8.340  0.7644  0.2974 -0.3201
  152SAPE  C22016868   1.283   3.841   8.355  0.1926 -0.1838 -0.4987
  152SAPE  H20R16869   1.337   3.928   8.312  1.7313 -0.9790 -0.2118
  152SAPE  H20S16870   1.268   3.850   8.464 -0.1103 -3.7516 -0.1694
  152SAPE  H20T16871   1.184   3.831   8.304 -2.0260  0.6388  3.4966
  152SAPE   C3316872   1.469   3.677   7.220 -0.3130  0.6758  0.3443
  152SAPE   H3X16873   1.478   3.566   7.216 -1.2627  0.5944  0.4352
  152SAPE   H3Y16874   1.361   3.701   7.219 -0.9420 -1.9599 -0.6789
  152SAPE   C3416875   1.525   3.692   7.365 -0.9664  0.2259  0.3759
  152SAPE   H4X16876   1.559   3.796   7.382 -1.4057  0.3388  0.5730
  152SAPE   H4Y16877   1.616   3.629   7.369 -0.8633  0.3572  0.1006
  152SAPE   C3516878   1.425   3.658   7.473  0.4345  0.1884  1.1569
  152SAPE   H5X16879   1.425   3.547   7.468  1.8175  0.1850  1.1384
  152SAPE   H5Y16880   1.326   3.700   7.442  1.3395 -0.7501 -3.4735
  152SAPE   C3616881   1.479   3.700   7.608  0.1361 -0.7238 -0.4777
  152SAPE   H6X16882   1.492   3.810   7.610  3.0595 -1.0447 -0.2488
  152SAPE   H6Y16883   1.580   3.656   7.616  0.2068 -0.3603  0.6997
  152SAPE   C3716884   1.404   3.644   7.730 -0.3452 -0.0101 -0.1611
  152SAPE   H7X16885   1.443   3.683   7.826  1.8453 -0.7561 -0.7121
  152SAPE   H7Y16886   1.431   3.537   7.744 -0.5373 -0.1814 -1.0489
  152SAPE   C3816887   1.255   3.661   7.719  0.3807 -0.1746 -0.0487
  152SAPE   H8X16888   1.209   3.602   7.637 -0.5851  0.4368  0.0479
  152SAPE   H8Y16889   1.244   3.765   7.684  0.2305 -0.4073 -0.6938
  152SAPE   C3916890   1.179   3.635   7.848 -0.2805 -0.2113 -0.2845
  152SAPE   H9X16891   1.077   3.679   7.845 -0.8893 -1.6450 -4.3664
  152SAPE   H9Y16892   1.229   3.696   7.926 -2.2242  0.3413  0.5619
  152SAPE  C31016893   1.158   3.493   7.895  0.4376  0.1556 -0.2234
  152SAPE  H10X16894   1.253   3.437   7.880  0.0212 -1.1369  1.7826
  152SAPE  H10Y16895   1.088   3.440   7.828 -0.4882  0.6347  0.3525
  152SAPE  C31116896   1.118   3.480   8.038  0.1748 -0.0372 -0.4129
  152SAPE  H11X16897   1.187   3.533   8.107  0.5612 -1.3015  0.1720
  152SAPE  H11Y16898   1.132   3.373   8.063  1.8263  0.1769 -0.3841
  152SAPE  C31216899   0.975   3.529   8.071  0.3836  0.2867 -0.0173
  152SAPE  H12X16900   0.911   3.450   8.026  0.1449  0.7910 -0.5726
  152SAPE  H12Y16901   0.948   3.628   8.027 -0.7323  0.8608  1.9123
  152SAPE  C31316902   0.933   3.534   8.217  0.0324 -0.1927 -0.3858
  152SAPE  H13X16903   0.972   3.441   8.265 -0.0832  0.6454  1.3932
  152SAPE  H13Y16904   0.822   3.527   8.223  0.1867 -0.3919  4.2555
  152SAPE  C31416905   0.977   3.651   8.297  0.2655 -0.4649 -0.2392
  152SAPE  H14X16906   0.986   3.743   8.236  0.3138 -0.6556 -0.5188
  152SAPE  H14Y16907   1.075   3.637   8.348  0.2939  0.9844  0.1345
  152SAPE  C31516908   0.876   3.684   8.398 -0.3436 -0.1363  0.3354
  152SAPE  H15X16909   0.847   3.599   8.463  0.1521 -0.4069  0.2062
  152SAPE  H15Y16910   0.785   3.728   8.352 -0.4205 -1.0606 -0.4218
  152SAPE  C31616911   0.924   3.806   8.489  0.7225 -0.0029 -0.2987
  152SAPE  H16X16912   0.947   3.895   8.426  0.7659  0.7387  0.7534
  152SAPE  H16Y16913   1.009   3.759   8.542  0.0660 -0.7944  0.0708
  152SAPE  C31716914   0.817   3.850   8.594  0.0319  0.1346 -1.3662
  152SAPE  H17X16915   0.767   3.758   8.632 -0.7831  0.2660 -2.0965
  152SAPE  H17Y16916   0.737   3.902   8.536 -0.1504  2.5950  1.0201
  152SAPE  C31816917   0.869   3.939   8.710 -0.2448 -0.7613 -0.4836
  152SAPE  H18X16918   0.909   4.038   8.677  0.9248 -1.9515 -2.8157
  152SAPE  H18Y16919   0.935   3.884   8.780  1.2951 -0.3190 -1.5700
  152SAPE  H18Z16920   0.784   3.968   8.775 -0.5422 -0.7984 -0.8487
  153SAPE     N16921   5.265   3.773   6.267  0.0109 -0.3052  0.1009
  153SAPE   HN116922   5.365   3.784   6.241 -0.0558 -0.1404 -0.0841
  153SAPE   HN216923   5.237   3.673   6.269  1.1688 -0.7364 -2.4416
  153SAPE   HN316924   5.210   3.826   6.195  1.5315 -0.4548 -1.2013
  153SAPE   C1216925   5.225   3.829   6.401  0.0690  0.0355 -0.1087
  153SAPE  H12A16926   5.255   3.757   6.480 -0.1657  0.2174  0.1471
  153SAPE  H12B16927   5.114   3.833   6.395 -0.2501 -3.7875  2.1940
  153SAPE   C1116928   5.269   3.970   6.414 -0.9399 -0.2192 -0.5035
  153SAPE  H11A16929   5.379   3.960   6.408 -1.0131 -0.5368 -1.5483
  153SAPE  H11B16930   5.250   4.012   6.514  1.2881  1.5014 -0.7635
  153SAPE     P16931   5.246   4.189   6.289 -0.3726 -0.4682 -0.0776
  153SAPE   O1316932   5.396   4.203   6.265 -0.3185  0.1013 -0.6039
  153SAPE   O1416933   5.154   4.255   6.190 -0.5157 -0.1393 -0.6585
  153SAPE   O1216934   5.212   4.040   6.301 -0.3688 -0.5302 -0.4314
  153SAPE   O1116935   5.224   4.246   6.436 -0.1301 -0.0250  0.1776
  153SAPE    C116936   5.150   4.363   6.460  0.7375 -0.9058 -0.3493
  153SAPE    HA16937   5.146   4.439   6.379 -0.8464 -0.5171  0.0691
  153SAPE    HB16938   5.044   4.334   6.477  0.8151 -0.5530  0.7798
  153SAPE    C216939   5.207   4.429   6.590 -0.2519 -0.7143 -0.3640
  153SAPE    HS16940   5.317   4.419   6.583 -0.0609  0.7819  0.3347
  153SAPE   O2116941   5.147   4.356   6.699 -0.6843  0.3079  0.3649
  153SAPE   C2116942   5.221   4.374   6.815 -0.0382 -0.1044  0.5765
  153SAPE   O2216943   5.331   4.424   6.818 -0.8944  0.1871  0.2801
  153SAPE   C2216944   5.129   4.338   6.932  0.9206  0.0043  0.6752
  153SAPE   H2R16945   5.037   4.399   6.929  1.5586  0.9734  0.5552
  153SAPE   H2S16946   5.101   4.232   6.916 -0.6253  0.5880 -0.5363
  153SAPE    C316947   5.181   4.578   6.589  0.5828  0.0727 -0.3000
  153SAPE    HX16948   5.234   4.623   6.502 -1.2457 -1.7708 -2.4388
  153SAPE    HY16949   5.236   4.625   6.673 -1.3252  1.0937  0.4217
  153SAPE   O3116950   5.039   4.611   6.581 -0.1064  0.0938  0.3723
  153SAPE   C3116951   4.979   4.627   6.700 -0.5245  0.0943  0.4783
  153SAPE   O3216952   5.042   4.614   6.807 -0.8626 -0.3230  0.3073
  153SAPE   C3216953   4.832   4.665   6.682  0.2680  0.3395 -0.0867
  153SAPE   H2X16954   4.771   4.597   6.746 -0.0763 -0.6476 -1.4490
  153SAPE   H2Y16955   4.792   4.659   6.579  2.7046  0.1931 -1.0604
  153SAPE   C2316956   5.189   4.364   7.075 -0.4007  0.7788 -0.0044
  153SAPE   H3R16957   5.241   4.463   7.080  1.2776 -0.0904  0.0166
  153SAPE   H3S16958   5.262   4.286   7.104  2.1351  1.6806 -3.6872
  153SAPE   C2416959   5.078   4.372   7.177 -0.3552  0.2454  0.1838
  153SAPE   H4R16960   5.116   4.342   7.277  2.4778 -2.0458 -1.4899
  153SAPE   H4S16961   5.006   4.292   7.147 -1.7619  2.0428 -1.3124
  153SAPE   C2516962   5.009   4.509   7.187  0.5120 -0.1376 -0.5474
  153SAPE   H5R16963   4.962   4.555   7.098 -0.3818 -1.2423 -0.6544
  153SAPE   C2616964   4.994   4.589   7.294  0.0108 -0.0331 -0.9653
  153SAPE   H6R16965   4.932   4.679   7.280 -1.6011 -1.4918 -3.5920
  153SAPE   C2716966   5.052   4.583   7.435  0.2441  0.7101  1.1531
  153SAPE   H7R16967   5.159   4.552   7.428 -0.0202  0.1841 -1.2305
  153SAPE   H7S16968   4.989   4.524   7.505  0.0080 -1.9832 -1.2313
  153SAPE   C2816969   5.060   4.720   7.502  0.0906 -0.5258 -0.3342
  153SAPE   H8R16970   5.038   4.805   7.436 -3.4934 -1.2281 -0.1210
  153SAPE   C2916971   5.072   4.742   7.632  0.3026  0.1245  0.5515
  153SAPE   H9R16972   5.073   4.843   7.676  1.0484  1.8120 -3.1331
  153SAPE  C21016973   5.083   4.643   7.753  0.1112 -0.0670  0.0916
  153SAPE  H10R16974   5.060   4.545   7.706  0.0490  0.7140 -1.5310
  153SAPE  H10S16975   5.010   4.661   7.834 -1.3576 -0.0817 -1.1970
  153SAPE  C21116976   5.224   4.635   7.799 -0.0108  0.3998  0.2284
  153SAPE  H11R16977   5.301   4.626   7.721 -0.7331  0.4021 -0.4791
  153SAPE  C21216978   5.267   4.641   7.930  0.4608 -0.9272  0.0680
  153SAPE  H12R16979   5.374   4.657   7.946  0.3145  1.6069 -1.1081
  153SAPE  C21316980   5.171   4.641   8.048 -0.1907  0.0501 -0.2591
  153SAPE  H13R16981   5.069   4.662   8.010 -0.3610 -0.7612 -0.2548
  153SAPE  H13S16982   5.198   4.729   8.110  1.9089  0.3074 -1.4834
  153SAPE  C21416983   5.191   4.514   8.131 -0.3910  0.5378  1.1333
  153SAPE  H14R16984   5.141   4.428   8.084  0.6834  0.4375  0.1551
  153SAPE  C21516985   5.263   4.491   8.245 -0.3772  0.1732  1.0966
  153SAPE  H15R16986   5.266   4.389   8.286  2.4315 -0.9147 -1.6567
  153SAPE  C21616987   5.345   4.597   8.314  0.1743 -0.7481 -0.7067
  153SAPE  H16R16988   5.301   4.699   8.300 -1.9923 -1.7999 -1.8306
  153SAPE  H16S16989   5.449   4.608   8.277  0.1775  1.2150 -0.2073
  153SAPE  C21716990   5.347   4.560   8.457  0.0792  0.6321  0.0370
  153SAPE  H17R16991   5.399   4.646   8.505  1.4588  0.3162 -0.8510
  153SAPE  H17S16992   5.399   4.465   8.481  2.4571  1.3872 -1.9247
  153SAPE  C21816993   5.205   4.545   8.529 -0.1766 -0.4051  0.3160
  153SAPE  H18R16994   5.167   4.441   8.514 -0.0109 -0.3244 -0.6998
  153SAPE  H18S16995   5.127   4.605   8.477  0.0097 -1.5610 -1.3551
  153SAPE  C21916996   5.197   4.563   8.678  0.2999  0.8881 -0.2801
  153SAPE  H19R16997   5.105   4.518   8.721  0.9171  1.1823  1.3974
  153SAPE  H19S16998   5.206   4.672   8.701  0.3501  0.6932  0.6426
  153SAPE  C22016999   5.313   4.498   8.760 -0.1059 -0.2120  0.4157
  153SAPE  H20R17000   5.411   4.539   8.728 -1.8009  0.6926 -3.9458
  153SAPE  H20S17001   5.327   4.391   8.732  0.1915 -0.1361  0.2845
  153SAPE  H20T17002   5.325   4.514   8.869  2.9266 -0.0530  0.0889
  153SAPE   C3317003   4.799   4.803   6.736  0.8536 -0.4834 -0.3466
  153SAPE   H3X17004   4.709   4.848   6.689  0.0597 -0.9143  0.7270
  153SAPE   H3Y17005   4.878   4.877   6.710  0.3480 -0.0989 -0.7812
  153SAPE   C3417006   4.760   4.809   6.891  0.3378 -1.8303  0.2435
  153SAPE   H4X17007   4.842   4.771   6.955  1.8944  3.1869  1.4114
  153SAPE   H4Y17008   4.683   4.736   6.925 -2.8809  1.4297  0.3147
  153SAPE   C3517009   4.722   4.946   6.949 -0.3627  0.3520 -0.0405
  153SAPE   H5X17010   4.651   4.992   6.876  2.8695  2.0481 -2.2585
  153SAPE   H5Y17011   4.814   5.002   6.921  0.0571 -0.3629 -0.0916
  153SAPE   C3617012   4.668   4.953   7.094 -0.8430  0.7699 -0.5132
  153SAPE   H6X17013   4.559   4.932   7.093 -0.5569 -0.7073 -0.5565
  153SAPE   H6Y17014   4.687   5.059   7.123  0.9122  0.4922 -0.5827
  153SAPE   C3717015   4.733   4.863   7.202 -0.4645 -1.4201  0.6435
  153SAPE   H7X17016   4.842   4.884   7.203 -0.6043 -0.7359  2.6881
  153SAPE   H7Y17017   4.728   4.758   7.167  0.5351 -0.8912 -1.1713
  153SAPE   C3817018   4.660   4.872   7.337  0.3935 -0.0025 -0.5688
  153SAPE   H8X17019   4.577   4.798   7.334  1.0184 -0.7497  0.2964
  153SAPE   H8Y17020   4.615   4.973   7.354 -2.8605 -1.6894  1.2498
  153SAPE   C3917021   4.739   4.832   7.462 -0.6210 -0.5915  0.3238
  153SAPE   H9X17022   4.826   4.900   7.470  0.3328 -1.7790  0.2683
  153SAPE   H9Y17023   4.787   4.732   7.448  1.7510  0.5946 -0.1971
  153SAPE  C31017024   4.648   4.846   7.586 -0.8119  1.6258 -0.3620
  153SAPE  H10X17025   4.561   4.779   7.569  0.4973 -0.1813 -0.0586
  153SAPE  H10Y17026   4.602   4.946   7.582  1.6490  2.8086 -0.1516
  153SAPE  C31117027   4.724   4.827   7.721  0.5082 -0.5912  0.6806
  153SAPE  H11X17028   4.819   4.884   7.727  0.3661 -0.1998 -0.6187
  153SAPE  H11Y17029   4.751   4.722   7.744 -1.4715 -1.3211 -0.1607
  153SAPE  C31217030   4.638   4.866   7.837 -0.0394 -0.0668 -0.4428
  153SAPE  H12X17031   4.532   4.840   7.819 -0.3946  0.4033  0.9508
  153SAPE  H12Y17032   4.642   4.977   7.841 -2.2535 -0.0237  1.7626
  153SAPE  C31317033   4.684   4.818   7.974 -0.1969  0.2680  0.2680
  153SAPE  H13X17034   4.794   4.819   7.990  0.0587  1.7174 -1.3963
  153SAPE  H13Y17035   4.646   4.714   7.979  1.1548 -0.2451 -0.0128
  153SAPE  C31417036   4.603   4.898   8.075  0.3130 -0.4762  0.0098
  153SAPE  H14X17037   4.503   4.916   8.031  1.0773  3.3757 -0.3402
  153SAPE  H14Y17038   4.663   4.989   8.095  1.1962 -0.8845 -0.7775
  153SAPE  C31517039   4.596   4.820   8.210  0.6925  0.2139 -0.6685
  153SAPE  H15X17040   4.697   4.787   8.242  1.3131  1.8053 -0.9342
  153SAPE  H15Y17041   4.537   4.726   8.204  0.8904 -0.0929  1.8401
  153SAPE  C31617042   4.532   4.909   8.313 -0.3117  0.2214 -1.0006
  153SAPE  H16X17043   4.436   4.943   8.270  0.4400  2.7911 -0.7417
  153SAPE  H16Y17044   4.592   5.002   8.316 -0.1199  0.0609  2.2023
  153SAPE  C31717045   4.515   4.848   8.451 -0.2123  0.6934 -1.0081
  153SAPE  H17X17046   4.616   4.817   8.486 -1.8287 -1.1566  2.3313
  153SAPE  H17Y17047   4.464   4.749   8.449 -0.1437  0.5380  1.9874
  153SAPE  C31817048   4.441   4.932   8.558  0.0816  0.0915 -0.3355
  153SAPE  H18X17049   4.515   5.002   8.603  0.9254 -0.2807 -1.1357
  153SAPE  H18Y17050   4.410   4.869   8.644 -1.7681 -0.0788 -1.0950
  153SAPE  H18Z17051   4.354   4.984   8.513 -0.3199 -0.5537 -0.3011
  154SAPE     N17052   3.469   3.466   5.763  0.1009 -0.0448 -0.0082
  154SAPE   HN117053   3.478   3.369   5.799  1.7852  0.2362  0.3747
  154SAPE   HN217054   3.476   3.460   5.659 -0.2138  2.5542 -0.2132
  154SAPE   HN317055   3.549   3.513   5.810  0.7841 -0.5403 -0.6543
  154SAPE   C1217056   3.329   3.515   5.813 -0.6602  0.0680  0.2714
  154SAPE  H12A17057   3.270   3.427   5.778 -0.4192 -0.1284  0.3521
  154SAPE  H12B17058   3.305   3.612   5.766 -0.9443 -0.7606 -1.3364
  154SAPE   C1117059   3.324   3.513   5.973 -0.3199 -0.6502 -1.4160
  154SAPE  H11A17060   3.241   3.569   6.021  1.7316  0.4750  0.9444
  154SAPE  H11B17061   3.416   3.563   6.012 -1.8904 -1.1086  3.1367
  154SAPE     P17062   3.232   3.324   6.133 -0.2026  0.0315  0.1382
  154SAPE   O1317063   3.094   3.357   6.088 -0.2453  0.2664 -0.2186
  154SAPE   O1417064   3.253   3.176   6.151 -0.6148  0.2157 -0.8308
  154SAPE   O1217065   3.325   3.382   6.024 -0.1997 -0.0161 -0.0822
  154SAPE   O1117066   3.259   3.409   6.270  0.3961  0.1325  0.1350
  154SAPE    C117067   3.191   3.526   6.308  0.0444 -0.0983  0.0101
  154SAPE    HA17068   3.267   3.606   6.297 -1.3601  1.4036  0.9762
  154SAPE    HB17069   3.104   3.544   6.242  0.1980 -1.4634 -0.5735
  154SAPE    C217070   3.141   3.515   6.454 -0.1648 -0.5870  0.2136
  154SAPE    HS17071   3.088   3.613   6.459  0.3438 -0.2817 -0.3192
  154SAPE   O2117072   3.253   3.519   6.538  0.5754  0.2483 -0.4908
  154SAPE   C2117073   3.246   3.577   6.652 -0.8842  0.7474 -0.3245
  154SAPE   O2217074   3.150   3.638   6.702  0.0051  0.0506  0.7802
  154SAPE   C2217075   3.377   3.564   6.716 -0.0569  0.2079 -0.2286
  154SAPE   H2R17076   3.462   3.538   6.649  3.8059  0.7148  4.1727
  154SAPE   H2S17077   3.400   3.665   6.758  2.2802 -0.3616 -0.0697
  154SAPE    C317078   3.038   3.407   6.475  0.4289  0.6407  0.4829
  154SAPE    HX17079   3.098   3.318   6.447  0.4381  0.5558  0.7644
  154SAPE    HY17080   2.961   3.411   6.395 -0.7078 -2.1775  1.3478
  154SAPE   O3117081   2.983   3.402   6.607 -0.5194  0.2141 -0.2169
  154SAPE   C3117082   2.899   3.488   6.643 -0.3601 -0.4965  0.7561
  154SAPE   O3217083   2.857   3.582   6.576 -0.3812 -0.1101  0.7978
  154SAPE   C3217084   2.855   3.453   6.788  0.1676 -0.5353 -0.3300
  154SAPE   H2X17085   2.948   3.455   6.849 -0.0037 -0.5703 -0.0671
  154SAPE   H2Y17086   2.820   3.348   6.780 -1.3064 -0.3122  2.6221
  154SAPE   C2317087   3.366   3.460   6.836  0.1881  0.6245 -0.9888
  154SAPE   H3R17088   3.352   3.358   6.794  2.1630 -0.8429  1.7960
  154SAPE   H3S17089   3.280   3.480   6.904 -0.1188  0.0726 -1.2072
  154SAPE   C2417090   3.494   3.454   6.917  0.5655 -0.5502  0.7302
  154SAPE   H4R17091   3.568   3.421   6.841  0.0489 -0.1248  0.0349
  154SAPE   H4S17092   3.494   3.365   6.984  0.9036 -0.5602  0.7161
  154SAPE   C2517093   3.524   3.590   6.977  0.5341 -0.3211  0.3301
  154SAPE   H5R17094   3.580   3.660   6.914 -0.0377  0.0031  0.1862
  154SAPE   C2617095   3.502   3.622   7.110 -0.7075 -0.0441  0.0870
  154SAPE   H6R17096   3.529   3.725   7.138 -0.7893  0.1432 -0.5043
  154SAPE   C2717097   3.443   3.530   7.214 -0.7359  0.2797 -0.4131
  154SAPE   H7R17098   3.384   3.447   7.169 -0.0931 -0.1291 -0.5081
  154SAPE   H7S17099   3.370   3.591   7.272 -2.6089 -1.2926 -1.0744
  154SAPE   C2817100   3.552   3.460   7.296 -0.1775 -0.3955  0.2418
  154SAPE   H8R17101   3.630   3.415   7.233 -1.2057 -0.9031 -0.6889
  154SAPE   C2917102   3.574   3.465   7.430  0.0153 -0.1426  0.5535
  154SAPE   H9R17103   3.663   3.410   7.462  0.3483 -0.7158 -1.3060
  154SAPE  C21017104   3.483   3.533   7.526 -0.0486  1.0042 -0.0514
  154SAPE  H10R17105   3.400   3.465   7.557  2.4351 -1.4373  1.4286
  154SAPE  H10S17106   3.432   3.624   7.487 -0.4216  0.7870 -0.0804
  154SAPE  C21117107   3.565   3.565   7.651  0.4491 -0.0700 -0.9052
  154SAPE  H11R17108   3.636   3.648   7.636  0.1209  0.2741 -0.5500
  154SAPE  C21217109   3.569   3.519   7.782  0.1613  0.2965 -0.2109
  154SAPE  H12R17110   3.642   3.552   7.857 -1.8124  0.9022  1.5188
  154SAPE  C21317111   3.474   3.408   7.830 -0.0751 -0.6085  0.1100
  154SAPE  H13R17112   3.515   3.377   7.929  1.3160  0.6600 -0.0512
  154SAPE  H13S17113   3.465   3.323   7.759  1.2800  0.1098 -0.9365
  154SAPE  C21417114   3.338   3.463   7.857 -0.0178 -0.2693 -0.1955
  154SAPE  H14R17115   3.320   3.565   7.821 -0.7651 -1.3715 -3.1145
  154SAPE  C21517116   3.236   3.397   7.918 -0.1652  0.4906  0.1849
  154SAPE  H15R17117   3.133   3.434   7.910  0.3089  1.7211 -0.2106
  154SAPE  C21617118   3.234   3.258   7.976 -0.6236  0.2717  0.0129
  154SAPE  H16R17119   3.338   3.218   7.967 -0.3103  1.7162 -3.3256
  154SAPE  H16S17120   3.174   3.202   7.901  0.2296 -0.9000  0.1854
  154SAPE  C21717121   3.181   3.218   8.118 -0.1365 -0.0044  0.5085
  154SAPE  H17R17122   3.186   3.108   8.131  0.3843 -0.2227 -1.2995
  154SAPE  H17S17123   3.076   3.248   8.138 -0.2343  2.2455 -2.9987
  154SAPE  C21817124   3.269   3.267   8.232 -0.5464 -0.1149  0.0945
  154SAPE  H18R17125   3.265   3.378   8.224 -1.1634 -0.0708  0.9317
  154SAPE  H18S17126   3.372   3.230   8.215 -0.3599  0.3031  0.2894
  154SAPE  C21917127   3.228   3.218   8.376 -0.5949  0.8568  0.1219
  154SAPE  H19R17128   3.214   3.108   8.372  4.2122  0.1295  0.7475
  154SAPE  H19S17129   3.131   3.270   8.394  0.0906  1.4763  2.1883
  154SAPE  C22017130   3.329   3.258   8.473  0.1537 -0.5824  0.5536
  154SAPE  H20R17131   3.294   3.265   8.579  1.6842  0.9722  0.9895
  154SAPE  H20S17132   3.385   3.352   8.452  0.3385 -0.7805  0.1575
  154SAPE  H20T17133   3.400   3.173   8.482 -1.5327 -1.9651  0.9706
  154SAPE   C3317134   2.739   3.532   6.850  0.1802  1.1392 -0.3614
  154SAPE   H3X17135   2.652   3.535   6.781 -1.1282 -0.6372  1.1345
  154SAPE   H3Y17136   2.770   3.638   6.861  0.0588  1.1716 -0.3280
  154SAPE   C3417137   2.683   3.478   6.985  0.0941 -0.4234  0.4039
  154SAPE   H4X17138   2.773   3.472   7.051 -0.7480 -1.6211  1.4606
  154SAPE   H4Y17139   2.654   3.375   6.955 -0.7822  0.0340 -0.3268
  154SAPE   C3517140   2.581   3.562   7.052  1.0209 -0.7373 -0.1697
  154SAPE   H5X17141   2.501   3.588   6.979  1.9770  1.4241 -0.4852
  154SAPE   H5Y17142   2.618   3.659   7.090 -1.5725 -0.8841  2.9696
  154SAPE   C3617143   2.498   3.489   7.161  0.2993  0.2082  0.1797
  154SAPE   H6X17144   2.462   3.386   7.136  2.8990 -0.5381 -0.6665
  154SAPE   H6Y17145   2.409   3.555   7.162  1.0791  1.3164 -1.7276
  154SAPE   C3717146   2.570   3.480   7.298 -0.4964  1.1073  0.5857
  154SAPE   H7X17147   2.643   3.563   7.303 -0.2807  0.9643 -0.0938
  154SAPE   H7Y17148   2.626   3.384   7.299 -2.2603 -0.0038 -1.4814
  154SAPE   C3817149   2.467   3.491   7.410  0.4397  0.1368  0.1255
  154SAPE   H8X17150   2.411   3.395   7.418 -1.9027  1.3512 -1.2331
  154SAPE   H8Y17151   2.399   3.577   7.390  1.8138  0.8046 -1.8832
  154SAPE   C3917152   2.534   3.526   7.539  0.6481  0.2546  0.1392
  154SAPE   H9X17153   2.577   3.628   7.528  1.1773  0.1926  1.5976
  154SAPE   H9Y17154   2.617   3.459   7.569  1.6530  1.6193  0.4906
  154SAPE  C31017155   2.428   3.535   7.657 -0.0840 -0.0494 -0.0134
  154SAPE  H10X17156   2.388   3.436   7.686  2.3920 -1.4258 -1.1167
  154SAPE  H10Y17157   2.345   3.605   7.635 -0.8491 -0.4455  1.5749
  154SAPE  C31117158   2.491   3.601   7.782 -0.6262 -0.3397 -0.0072
  154SAPE  H11X17159   2.515   3.705   7.751  0.9409 -0.6021  0.2801
  154SAPE  H11Y17160   2.585   3.544   7.798 -0.4518 -0.2501 -0.7009
  154SAPE  C31217161   2.392   3.602   7.901  0.4562 -0.5065 -0.4214
  154SAPE  H12X17162   2.369   3.496   7.926 -0.3029  0.0259  1.1965
  154SAPE  H12Y17163   2.303   3.657   7.864  0.8364  0.2410 -0.2420
  154SAPE  C31317164   2.448   3.654   8.036 -0.4084  0.4135  0.6509
  154SAPE  H13X17165   2.469   3.763   8.023 -1.7220  0.4812 -1.0446
  154SAPE  H13Y17166   2.544   3.601   8.052 -0.3736  0.2008 -0.2247
  154SAPE  C31417167   2.362   3.630   8.164 -0.3186 -0.3404 -0.1125
  154SAPE  H14X17168   2.326   3.525   8.172 -2.1562  0.4547  3.1429
  154SAPE  H14Y17169   2.268   3.688   8.151 -1.2273 -1.7738 -0.0418
  154SAPE  C31517170   2.449   3.665   8.292 -0.0687  0.1659 -0.4374
  154SAPE  H15X17171   2.467   3.773   8.307 -1.9077  0.0575  3.2132
  154SAPE  H15Y17172   2.546   3.611   8.282 -0.0968 -0.0414  0.3689
  154SAPE  C31617173   2.395   3.619   8.423 -0.5767 -0.5287 -0.4772
  154SAPE  H16X17174   2.472   3.561   8.479 -2.4481 -1.7527  0.9040
  154SAPE  H16Y17175   2.316   3.546   8.392 -3.1080  1.5984  0.8103
  154SAPE  C31717176   2.332   3.719   8.522 -0.5326 -0.2583 -0.1306
  154SAPE  H17X17177   2.259   3.670   8.589  0.1680  0.6580  1.3498
  154SAPE  H17Y17178   2.282   3.801   8.465  1.7843  0.9491 -0.5262
  154SAPE  C31817179   2.448   3.778   8.607  0.6352 -0.5438 -0.0876
  154SAPE  H18X17180   2.486   3.694   8.669  0.1536 -1.4055 -0.9543
  154SAPE  H18Y17181   2.413   3.863   8.670  0.8472 -1.7982  1.7518
  154SAPE  H18Z17182   2.532   3.817   8.545 -0.8688 -0.5436 -2.1591
  155SAPE     N17183   3.441   4.081   6.118 -0.2062  0.5546 -0.0009
  155SAPE   HN117184   3.411   4.019   6.040  0.1170  1.8128 -1.1479
  155SAPE   HN217185   3.507   4.155   6.086  1.0533  0.0908  1.4599
  155SAPE   HN317186   3.495   4.021   6.184  0.6230  0.1271 -1.0427
  155SAPE   C1217187   3.332   4.123   6.214 -0.4704 -0.4082  0.2828
  155SAPE  H12A17188   3.287   4.036   6.266 -2.0622  0.2193 -0.0218
  155SAPE  H12B17189   3.246   4.177   6.168 -2.1276 -1.9473  1.5060
  155SAPE   C1117190   3.390   4.219   6.314  0.4221  0.6973  0.1800
  155SAPE  H11A17191   3.451   4.158   6.384 -0.2028 -0.5675 -0.3650
  155SAPE  H11B17192   3.313   4.267   6.377 -0.5362  0.0606 -0.4808
  155SAPE     P17193   3.416   4.458   6.226  0.0505 -0.1929  0.2436
  155SAPE   O1317194   3.517   4.537   6.139  0.3126 -0.1630  0.3831
  155SAPE   O1417195   3.283   4.434   6.168 -0.2225 -0.2944  0.1710
  155SAPE   O1217196   3.476   4.316   6.264  0.4974  0.6309  0.5478
  155SAPE   O1117197   3.409   4.541   6.361  0.1195  0.1055 -0.0726
  155SAPE    C117198   3.531   4.556   6.433 -0.7630  0.2177  0.7171
  155SAPE    HA17199   3.603   4.472   6.416 -1.7400 -0.5047  0.0713
  155SAPE    HB17200   3.584   4.652   6.422 -1.5638  0.4949 -0.7058
  155SAPE    C217201   3.508   4.544   6.590 -0.3795 -1.4754  0.6483
  155SAPE    HS17202   3.600   4.558   6.651 -0.1543  0.8168 -0.1764
  155SAPE   O2117203   3.439   4.415   6.628  0.4224  0.2923  0.1290
  155SAPE   C2117204   3.528   4.315   6.645  0.4686  0.3574 -0.2434
  155SAPE   O2217205   3.644   4.323   6.622  0.5685 -0.2359  0.0443
  155SAPE   C2217206   3.459   4.192   6.690  0.5336 -0.0558 -0.6906
  155SAPE   H2R17207   3.407   4.140   6.607  0.8283  0.7410 -1.3757
  155SAPE   H2S17208   3.539   4.123   6.725 -1.5056 -2.8661 -1.3703
  155SAPE    C317209   3.423   4.662   6.638 -0.1302  0.1192 -0.1815
  155SAPE    HX17210   3.327   4.654   6.582  1.1651  0.2318 -2.4892
  155SAPE    HY17211   3.471   4.759   6.613  0.8100  0.3205  2.2550
  155SAPE   O3117212   3.402   4.649   6.783  0.2788 -0.0133  0.2789
  155SAPE   C3117213   3.279   4.679   6.822 -0.7294 -0.2657 -0.3134
  155SAPE   O3217214   3.196   4.734   6.750 -0.0797  0.7699  0.6028
  155SAPE   C3217215   3.257   4.617   6.955  0.2522  0.0661  0.1864
  155SAPE   H2X17216   3.357   4.586   6.994  0.8519  0.2935 -1.1467
  155SAPE   H2Y17217   3.187   4.532   6.942  0.5092  0.1062 -1.6057
  155SAPE   C2317218   3.350   4.209   6.802  0.1711  0.3991  0.1461
  155SAPE   H3R17219   3.291   4.117   6.825  1.3075 -0.8051 -1.6169
  155SAPE   H3S17220   3.264   4.272   6.769 -0.8817 -0.5480  1.0632
  155SAPE   C2417221   3.402   4.294   6.929 -0.0958  0.2878  0.7887
  155SAPE   H4R17222   3.318   4.346   6.980  0.4780  1.2289  0.7708
  155SAPE   H4S17223   3.476   4.369   6.896  0.1969 -0.7331 -0.9538
  155SAPE   C2517224   3.467   4.196   7.023  0.1394 -0.0820  0.1844
  155SAPE   H5R17225   3.479   4.094   6.983  0.6091  1.1184 -2.8410
  155SAPE   C2617226   3.509   4.223   7.143 -0.1715  0.0029  0.6756
  155SAPE   H6R17227   3.555   4.146   7.207  0.0052 -0.0755  0.4499
  155SAPE   C2717228   3.496   4.357   7.201 -0.1664 -0.8716  0.0576
  155SAPE   H7R17229   3.390   4.388   7.210 -0.2637 -1.6988  1.9467
  155SAPE   H7S17230   3.543   4.426   7.127 -1.6944 -1.5104 -1.5548
  155SAPE   C2817231   3.565   4.377   7.335  0.1792  0.2130  0.0735
  155SAPE   H8R17232   3.671   4.401   7.318  0.6989 -0.6007  2.0442
  155SAPE   C2917233   3.518   4.366   7.459 -0.1746 -0.0447  0.9341
  155SAPE   H9R17234   3.577   4.392   7.549  2.0263 -1.0284 -0.1846
  155SAPE  C21017235   3.380   4.330   7.497 -0.0935  0.8250 -1.1589
  155SAPE  H10R17236   3.327   4.286   7.410 -0.6726  2.2348 -1.5375
  155SAPE  H10S17237   3.326   4.426   7.515 -2.6110 -0.5585 -1.1501
  155SAPE  C21117238   3.371   4.245   7.623 -0.6295 -0.1426 -0.5521
  155SAPE  H11R17239   3.390   4.140   7.595 -2.2636 -0.3105 -1.0991
  155SAPE  C21217240   3.352   4.278   7.749  0.2976 -0.1163  0.0287
  155SAPE  H12R17241   3.347   4.208   7.834  1.2006 -1.7517 -1.2526
  155SAPE  C21317242   3.324   4.421   7.792 -0.1893 -0.3664 -0.1262
  155SAPE  H13R17243   3.215   4.441   7.797 -0.1825 -0.4690  0.4768
  155SAPE  H13S17244   3.363   4.489   7.714 -1.4862  0.2534 -0.2552
  155SAPE  C21417245   3.384   4.449   7.926 -0.5773 -0.3514 -0.7667
  155SAPE  H14R17246   3.467   4.521   7.927 -1.8675  1.1404 -1.1797
  155SAPE  C21517247   3.342   4.409   8.047  0.4019 -0.1869 -0.1982
  155SAPE  H15R17248   3.393   4.456   8.132 -1.9822 -0.5837  1.4783
  155SAPE  C21617249   3.213   4.343   8.079 -1.0772  1.1047  0.0424
  155SAPE  H16R17250   3.222   4.233   8.084 -0.9384  0.9947 -2.1176
  155SAPE  H16S17251   3.137   4.364   8.001 -0.9984 -0.5400 -0.4993
  155SAPE  C21717252   3.143   4.396   8.209  0.2456  0.6908  0.3061
  155SAPE  H17R17253   3.112   4.502   8.205  1.4601  1.1944  2.8589
  155SAPE  H17S17254   3.216   4.409   8.292  0.9903  2.7040 -0.6412
  155SAPE  C21817255   3.034   4.311   8.273  0.1187  0.4400  0.0233
  155SAPE  H18R17256   3.053   4.202   8.265 -1.1129  0.1242  1.3373
  155SAPE  H18S17257   2.941   4.325   8.215 -0.1151  1.4340  0.6237
  155SAPE  C21917258   3.006   4.345   8.422 -0.0072 -0.5301 -0.9143
  155SAPE  H19R17259   3.101   4.340   8.479  0.7316  0.8567 -2.0077
  155SAPE  H19S17260   2.947   4.260   8.464 -0.9667 -0.2416 -1.6471
  155SAPE  C22017261   2.936   4.475   8.447  0.0124  0.2411  0.0086
  155SAPE  H20R17262   2.843   4.470   8.386 -1.1396  0.8537  1.6783
  155SAPE  H20S17263   3.002   4.559   8.418  1.0149 -0.8399 -0.9276
  155SAPE  H20T17264   2.911   4.491   8.554 -0.7208  2.9963 -0.5361
  155SAPE   C3317265   3.192   4.719   7.058  0.3459  0.4404 -0.5302
  155SAPE   H3X17266   3.086   4.736   7.034 -0.4144  0.2149  2.4078
  155SAPE   H3Y17267   3.247   4.816   7.056 -0.2093  0.7499 -0.6128
  155SAPE   C3417268   3.200   4.650   7.198 -0.0996  0.7781  0.3182
  155SAPE   H4X17269   3.307   4.642   7.225 -0.0236  1.2060  0.1425
  155SAPE   H4Y17270   3.150   4.551   7.190 -3.0798  2.1428  1.2941
  155SAPE   C3517271   3.133   4.735   7.310 -0.2583 -0.4634  0.8334
  155SAPE   H5X17272   3.031   4.765   7.276  0.5797  2.5768  0.8832
  155SAPE   H5Y17273   3.195   4.827   7.317  0.6743 -1.0647  0.5851
  155SAPE   C3617274   3.133   4.665   7.442  0.2224  0.0780 -0.2913
  155SAPE   H6X17275   3.240   4.663   7.472  0.6899  0.4587 -1.8976
  155SAPE   H6Y17276   3.104   4.558   7.434  0.1229  0.1965 -1.5909
  155SAPE   C3717277   3.036   4.732   7.549 -0.6184  0.1199  1.0874
  155SAPE   H7X17278   2.936   4.708   7.508 -0.0741  0.5602 -0.5187
  155SAPE   H7Y17279   3.048   4.842   7.544  1.1658 -0.0815  0.3858
  155SAPE   C3817280   3.065   4.688   7.694  0.9118  0.0796  0.4564
  155SAPE   H8X17281   3.175   4.675   7.701  0.7867 -0.2889  1.8114
  155SAPE   H8Y17282   3.015   4.591   7.713  2.7050 -0.8744  0.4182
  155SAPE   C3917283   3.025   4.794   7.794  0.2224 -0.2484 -0.2330
  155SAPE   H9X17284   2.916   4.808   7.783 -0.1513 -2.5192  0.2599
  155SAPE   H9Y17285   3.065   4.894   7.768  2.0487 -0.8588  0.1487
  155SAPE  C31017286   3.060   4.746   7.936 -0.5305  0.1166 -0.1413
  155SAPE  H10X17287   3.163   4.706   7.927 -0.3801  0.5204 -0.2008
  155SAPE  H10Y17288   3.001   4.660   7.973  2.0181 -1.3690  0.5811
  155SAPE  C31117289   3.045   4.857   8.040 -0.2684 -0.3098  0.0769
  155SAPE  H11X17290   2.945   4.905   8.027  0.1342  0.9807  1.5922
  155SAPE  H11Y17291   3.120   4.938   8.025 -0.7032  0.3201  1.2339
  155SAPE  C31217292   3.049   4.803   8.177  0.4038  0.2619 -0.6893
  155SAPE  H12X17293   3.127   4.724   8.182 -0.3165 -0.2632  4.5428
  155SAPE  H12Y17294   2.952   4.752   8.193 -0.7105  2.0252 -1.6143
  155SAPE  C31317295   3.084   4.905   8.285 -0.2465  0.4593  0.7793
  155SAPE  H13X17296   3.022   4.997   8.273 -1.1723 -0.4043 -1.2060
  155SAPE  H13Y17297   3.193   4.926   8.278  0.2047 -2.3780 -1.8528
  155SAPE  C31417298   3.055   4.847   8.426  0.3816 -0.0524  0.2971
  155SAPE  H14X17299   3.102   4.747   8.437  1.1964  0.6351  3.7466
  155SAPE  H14Y17300   2.946   4.845   8.447  0.4336 -3.0499  0.5026
  155SAPE  C31517301   3.116   4.929   8.547 -0.8301  0.0748  0.5317
  155SAPE  H15X17302   3.108   5.040   8.542  1.0463  0.2923  1.9173
  155SAPE  H15Y17303   3.224   4.907   8.541 -1.0457 -0.5011 -1.4192
  155SAPE  C31617304   3.067   4.885   8.678 -0.3321 -0.7864 -0.4880
  155SAPE  H16X17305   3.065   4.774   8.692  0.9252 -0.9952 -1.8846
  155SAPE  H16Y17306   2.961   4.919   8.686 -0.1742 -0.9638  3.0657
  155SAPE  C31717307   3.149   4.940   8.795  0.1173 -0.1326  0.3291
  155SAPE  H17X17308   3.172   5.045   8.764  0.5395 -0.2738  0.1675
  155SAPE  H17Y17309   3.246   4.887   8.787  0.7378  1.3859 -3.5336
  155SAPE  C31817310   3.099   4.933   8.942 -0.4629  0.0214  0.2403
  155SAPE  H18X17311   3.065   4.831   8.971 -1.4947  0.7970  1.8503
  155SAPE  H18Y17312   3.014   5.004   8.949 -0.8474 -0.2597 -1.3410
  155SAPE  H18Z17313   3.178   4.965   9.013 -1.9953  0.3959  1.8038
  156SAPE     N17314   1.704   5.113   6.142 -0.8804  0.1311 -0.1804
  156SAPE   HN117315   1.614   5.148   6.103 -1.0460  0.6071  0.6131
  156SAPE   HN217316   1.728   5.167   6.228  1.7993 -1.7706  0.3244
  156SAPE   HN317317   1.784   5.128   6.077 -1.0406 -0.7968 -0.5945
  156SAPE   C1217318   1.686   4.960   6.162  0.3298 -0.1305  0.1694
  156SAPE  H12A17319   1.785   4.917   6.189  0.4399  0.5318  0.8255
  156SAPE  H12B17320   1.656   4.921   6.062  3.0634  1.1992 -1.2382
  156SAPE   C1117321   1.582   4.935   6.273 -0.5147  0.7982  0.4601
  156SAPE  H11A17322   1.617   4.969   6.373  1.3728  2.1968 -0.6259
  156SAPE  H11B17323   1.575   4.825   6.275 -0.7860  0.8032  0.0334
  156SAPE     P17324   1.397   5.118   6.327 -0.0139  0.3542  0.0255
  156SAPE   O1317325   1.456   5.239   6.264 -0.6170  0.7256 -0.4420
  156SAPE   O1417326   1.246   5.110   6.329  0.2016 -0.3365 -0.7695
  156SAPE   O1217327   1.453   4.995   6.252  0.3677 -0.2219 -0.1889
  156SAPE   O1117328   1.470   5.109   6.469  0.3948  0.2016  0.3346
  156SAPE    C117329   1.416   5.020   6.570  0.2299  0.6896 -0.1202
  156SAPE    HA17330   1.334   4.953   6.537  0.6606 -1.0807  2.2925
  156SAPE    HB17331   1.498   4.954   6.605  0.3290  1.9922  2.2117
  156SAPE    C217332   1.350   5.096   6.686 -0.3525 -0.2093  0.2357
  156SAPE    HS17333   1.270   5.158   6.641  1.0630  1.1408 -0.4869
  156SAPE   O2117334   1.453   5.186   6.745  0.2461  0.2190  0.0923
  156SAPE   C2117335   1.398   5.282   6.817 -0.5843 -0.0562  0.9110
  156SAPE   O2217336   1.280   5.299   6.825  0.3101 -0.0883 -0.1520
  156SAPE   C2217337   1.511   5.378   6.865 -0.3573  0.2440 -0.4547
  156SAPE   H2R17338   1.589   5.311   6.906 -1.3427 -0.3605  0.4375
  156SAPE   H2S17339   1.542   5.435   6.774 -1.5386  0.0586 -0.9818
  156SAPE    C317340   1.284   5.002   6.797 -0.5109  0.0539  0.1917
  156SAPE    HX17341   1.214   4.936   6.742  1.1664 -0.1704 -1.7458
  156SAPE    HY17342   1.231   5.060   6.876  2.6518  1.0531  1.6960
  156SAPE   O3117343   1.391   4.924   6.860 -0.3812  0.4419  0.4385
  156SAPE   C3117344   1.346   4.805   6.912  0.0332  0.4307  0.4764
  156SAPE   O3217345   1.233   4.769   6.899 -0.2976 -0.3903  0.0229
  156SAPE   C3217346   1.460   4.728   6.984 -0.4550 -0.0513 -0.0250
  156SAPE   H2X17347   1.556   4.782   7.000 -0.1649  0.1621 -2.3821
  156SAPE   H2Y17348   1.490   4.648   6.912  0.0082  0.5670 -0.5187
  156SAPE   C2317349   1.477   5.458   6.996  0.6979  0.4934 -0.7665
  156SAPE   H3R17350   1.570   5.514   7.021  0.5915  0.5925 -0.5886
  156SAPE   H3S17351   1.462   5.388   7.081  1.0356 -3.3627 -3.7589
  156SAPE   C2417352   1.366   5.555   6.980  0.1963 -0.0938 -0.1093
  156SAPE   H4R17353   1.272   5.502   7.008  0.2409  0.7650  1.6854
  156SAPE   H4S17354   1.359   5.587   6.874  1.4500  0.3799 -0.0501
  156SAPE   C2517355   1.388   5.673   7.076 -0.4217  0.1519 -0.2827
  156SAPE   H5R17356   1.422   5.766   7.028 -1.4217  1.2188  1.0241
  156SAPE   C2617357   1.380   5.666   7.215 -0.4517 -0.1160  0.0128
  156SAPE   H6R17358   1.397   5.755   7.277 -1.9340 -0.6055  1.1381
  156SAPE   C2717359   1.349   5.541   7.291  0.4035 -0.2101 -0.1666
  156SAPE   H7R17360   1.445   5.485   7.300  1.6629  1.8976 -0.3021
  156SAPE   H7S17361   1.280   5.481   7.228  0.2583  0.3197 -0.5115
  156SAPE   C2817362   1.285   5.568   7.427 -0.1055  0.2210 -0.1756
  156SAPE   H8R17363   1.176   5.583   7.431 -0.0138  0.4564  2.0267
  156SAPE   C2917364   1.345   5.566   7.548 -0.1339  0.2005 -0.4336
  156SAPE   H9R17365   1.280   5.573   7.637  0.9828 -1.4912  0.5491
  156SAPE  C21017366   1.489   5.540   7.580  0.1568 -0.0278 -0.3678
  156SAPE  H10R17367   1.548   5.544   7.486 -1.4190  0.1678 -1.3567
  156SAPE  H10S17368   1.510   5.435   7.611  0.8831  0.2220  0.0122
  156SAPE  C21117369   1.545   5.644   7.673  0.1325  0.3885  0.1718
  156SAPE  H11R17370   1.606   5.721   7.623  1.0367 -1.9844 -2.4535
  156SAPE  C21217371   1.533   5.661   7.807  0.8105 -0.5874 -0.5182
  156SAPE  H12R17372   1.585   5.743   7.859  0.6084  0.0060 -1.2380
  156SAPE  C21317373   1.431   5.579   7.891 -0.5628 -0.5016  0.0395
  156SAPE  H13R17374   1.415   5.493   7.823 -1.1636 -0.2103 -0.1844
  156SAPE  H13S17375   1.338   5.639   7.889 -0.3477 -0.1549  0.1770
  156SAPE  C21417376   1.484   5.536   8.030  0.0294 -0.0480 -0.6237
  156SAPE  H14R17377   1.536   5.439   8.037 -1.3690 -0.8654 -1.3229
  156SAPE  C21517378   1.474   5.613   8.136 -0.1727  0.1639 -0.6275
  156SAPE  H15R17379   1.514   5.578   8.232 -2.7511 -0.2539  0.3135
  156SAPE  C21617380   1.412   5.751   8.151 -0.3141 -0.8355 -0.4400
  156SAPE  H16R17381   1.350   5.757   8.243  0.1917  1.1089 -0.2092
  156SAPE  H16S17382   1.345   5.764   8.063  0.7113  0.4369 -1.0573
  156SAPE  C21717383   1.521   5.854   8.155  0.6170 -0.1217 -0.0652
  156SAPE  H17R17384   1.583   5.844   8.063 -3.9396 -0.5386 -3.2575
  156SAPE  H17S17385   1.590   5.838   8.241  2.5389  3.5208 -0.8338
  156SAPE  C21817386   1.470   6.001   8.179  0.9604 -0.1327  0.4106
  156SAPE  H18R17387   1.564   6.052   8.210  1.8325 -2.3435  1.5301
  156SAPE  H18S17388   1.400   6.003   8.266 -1.1700  3.7075 -1.2815
  156SAPE  C21917389   1.403   6.060   8.059  1.1985  0.2607 -0.6789
  156SAPE  H19R17390   1.363   6.163   8.074 -1.0703 -0.3014 -2.5213
  156SAPE  H19S17391   1.310   6.005   8.035  1.4643 -0.6976  0.4443
  156SAPE  C22017392   1.492   6.053   7.938 -0.0560  0.0614 -0.6675
  156SAPE  H20R17393   1.492   5.949   7.898 -0.8556 -0.0097 -0.4954
  156SAPE  H20S17394   1.592   6.086   7.972 -0.1788 -2.2666  2.1522
  156SAPE  H20T17395   1.446   6.109   7.854  0.6028  1.5316 -0.0563
  156SAPE   C3317396   1.396   4.662   7.110  0.0638  0.7053  0.4504
  156SAPE   H3X17397   1.474   4.590   7.143 -1.2571 -1.6461 -1.3893
  156SAPE   H3Y17398   1.299   4.613   7.086 -0.6587  2.5716 -0.4655
  156SAPE   C3417399   1.388   4.742   7.236 -0.8128 -0.2854  0.4094
  156SAPE   H4X17400   1.316   4.823   7.213 -0.1760  0.1918  0.0617
  156SAPE   H4Y17401   1.485   4.790   7.263 -0.5372 -0.4670 -0.2378
  156SAPE   C3517402   1.330   4.666   7.354  0.5471  0.1245  0.4001
  156SAPE   H5X17403   1.393   4.584   7.394 -0.1612 -0.0546  1.1509
  156SAPE   H5Y17404   1.232   4.625   7.322  1.2376 -0.3228 -1.1813
  156SAPE   C3617405   1.297   4.761   7.471 -0.2375 -0.3309  0.1348
  156SAPE   H6X17406   1.224   4.829   7.423  0.0116 -1.0380 -1.3026
  156SAPE   H6Y17407   1.381   4.831   7.490 -0.3125 -0.6050  1.5319
  156SAPE   C3717408   1.264   4.699   7.599 -0.2397  0.0987  0.1828
  156SAPE   H7X17409   1.361   4.668   7.645  0.5722 -0.2780 -1.7116
  156SAPE   H7Y17410   1.199   4.611   7.584 -2.1707  1.6993 -1.0706
  156SAPE   C3817411   1.210   4.798   7.705  0.2372  0.9190 -0.0169
  156SAPE   H8X17412   1.103   4.816   7.680 -0.5962  0.2467  2.8282
  156SAPE   H8Y17413   1.256   4.899   7.695 -0.1136  1.2732  1.6951
  156SAPE   C3917414   1.230   4.750   7.849  0.1191 -0.2533 -1.0190
  156SAPE   H9X17415   1.334   4.760   7.886  0.3369  1.4969 -2.0417
  156SAPE   H9Y17416   1.197   4.644   7.858  1.4686 -0.4347  3.0492
  156SAPE  C31017417   1.136   4.827   7.944  0.4266  0.0880 -0.0619
  156SAPE  H10X17418   1.031   4.815   7.908  1.0912 -1.2266 -1.6548
  156SAPE  H10Y17419   1.166   4.933   7.932 -0.7619  0.5914  1.2377
  156SAPE  C31117420   1.161   4.800   8.089 -0.0131  0.0546 -0.3437
  156SAPE  H11X17421   1.111   4.872   8.158 -0.2906  1.6966 -2.2259
  156SAPE  H11Y17422   1.269   4.818   8.107  0.3411 -0.5461 -1.7590
  156SAPE  C31217423   1.116   4.658   8.135  1.0804 -0.5060 -0.0370
  156SAPE  H12X17424   1.175   4.583   8.078  1.4152 -0.9426  0.8838
  156SAPE  H12Y17425   1.012   4.651   8.095  0.5042  0.6126  1.2344
  156SAPE  C31317426   1.127   4.625   8.283 -0.8405  0.2462 -0.2287
  156SAPE  H13X17427   1.224   4.662   8.322 -1.0000 -0.8230  1.2097
  156SAPE  H13Y17428   1.115   4.516   8.297  2.1486 -0.0299  0.5107
  156SAPE  C31417429   1.003   4.686   8.357 -0.1603 -0.4038  0.7236
  156SAPE  H14X17430   0.916   4.617   8.347  0.4264 -1.1928  1.0368
  156SAPE  H14Y17431   0.984   4.791   8.326  2.0855 -0.4487 -0.8866
  156SAPE  C31517432   1.023   4.680   8.511 -0.0637 -0.1247 -0.8245
  156SAPE  H15X17433   1.100   4.746   8.556 -0.6736  0.7107 -0.9867
  156SAPE  H15Y17434   1.054   4.575   8.534  1.3450  0.6445  0.9720
  156SAPE  C31617435   0.897   4.730   8.591  0.2101  0.8167 -0.1064
  156SAPE  H16X17436   0.810   4.670   8.557  0.1838 -0.7521  2.5696
  156SAPE  H16Y17437   0.888   4.838   8.565 -0.8774  0.5143 -1.0231
  156SAPE  C31717438   0.909   4.714   8.749 -0.8924  0.0350 -0.1934
  156SAPE  H17X17439   1.003   4.660   8.772 -1.9931 -1.6312  0.4282
  156SAPE  H17Y17440   0.831   4.646   8.787  0.2197 -0.1500  1.8056
  156SAPE  C31817441   0.917   4.849   8.821  0.2963 -0.1900  0.4669
  156SAPE  H18X17442   0.814   4.890   8.823  0.9708  1.5068  0.7314
  156SAPE  H18Y17443   0.971   4.932   8.771  0.7808 -0.2628  0.8631
  156SAPE  H18Z17444   0.963   4.845   8.922 -1.4954 -0.5784  1.2793
  157SAPE     N17445   6.052   0.646   6.289  0.0085 -0.2852  0.1004
  157SAPE   HN117446   6.005   0.561   6.327  0.0018 -1.0129 -1.4901
  157SAPE   HN217447   6.146   0.665   6.329  0.9578  1.2126 -2.6775
  157SAPE   HN317448   5.992   0.727   6.314  1.2773  1.1159 -1.2689
  157SAPE   C1217449   6.047   0.623   6.136  0.2867  0.3470 -0.5646
  157SAPE  H12A17450   6.123   0.545   6.114  0.9430  0.8670 -0.1783
  157SAPE  H12B17451   6.086   0.720   6.101  1.5500  0.6739  1.6067
  157SAPE   C1117452   5.904   0.595   6.093  0.8713 -0.0465  0.6282
  157SAPE  H11A17453   5.898   0.585   5.983 -0.7653  2.2914  0.4666
  157SAPE  H11B17454   5.846   0.686   6.121 -2.0642 -1.4344 -0.7077
  157SAPE     P17455   5.696   0.445   6.103  0.1221  0.3433 -0.1067
  157SAPE   O1317456   5.627   0.557   6.050  0.1418  0.3722  0.4730
  157SAPE   O1417457   5.694   0.313   6.035 -0.0305 -0.6600  0.3240
  157SAPE   O1217458   5.845   0.479   6.145 -0.6262 -0.6252  0.4556
  157SAPE   O1117459   5.645   0.421   6.244 -0.9319  0.1386  0.7177
  157SAPE    C117460   5.668   0.518   6.353 -0.4422 -0.1840 -0.2239
  157SAPE    HA17461   5.776   0.516   6.377 -0.2260 -1.9178 -1.2406
  157SAPE    HB17462   5.644   0.622   6.322  0.3010  0.4568  1.3171
  157SAPE    C217463   5.590   0.472   6.471 -0.9954 -0.1503  0.5639
  157SAPE    HS17464   5.629   0.534   6.555  0.6077 -1.1407  0.5708
  157SAPE   O2117465   5.612   0.332   6.496 -0.0760 -0.1696  0.3533
  157SAPE   C2117466   5.724   0.296   6.552 -0.1917 -0.6785 -0.2135
  157SAPE   O2217467   5.811   0.372   6.588 -0.5816 -0.4076  0.2709
  157SAPE   C2217468   5.740   0.148   6.553 -0.0450 -0.0705 -0.2262
  157SAPE   H2R17469   5.636   0.110   6.552  0.2603 -1.0091  1.6571
  157SAPE   H2S17470   5.779   0.119   6.453  3.0227  2.2773  0.2042
  157SAPE    C317471   5.439   0.501   6.450  0.0602  0.1223 -0.2108
  157SAPE    HX17472   5.413   0.461   6.350 -1.3007  2.3353 -0.7812
  157SAPE    HY17473   5.433   0.612   6.451  0.3607  0.1553  2.1618
  157SAPE   O3117474   5.358   0.463   6.561  0.1997  0.1311 -0.3045
  157SAPE   C3117475   5.306   0.345   6.563 -0.3866 -0.2719  0.7559
  157SAPE   O3217476   5.311   0.264   6.472  0.3855 -0.1575  0.1099
  157SAPE   C3217477   5.225   0.316   6.690 -0.9542  0.1361  0.1109
  157SAPE   H2X17478   5.149   0.241   6.660 -1.3950  0.5748  0.1268
  157SAPE   H2Y17479   5.172   0.406   6.728  1.4150  1.2858  0.8120
  157SAPE   C2317480   5.824   0.121   6.679 -0.2702 -0.1894  0.7198
  157SAPE   H3R17481   5.796   0.185   6.766  1.6740 -2.1168  2.8293
  157SAPE   H3S17482   5.927   0.150   6.649 -0.7269  1.3612  0.5909
  157SAPE   C2417483   5.834  -0.021   6.724  0.4373 -0.3664 -1.0933
  157SAPE   H4R17484   5.913  -0.038   6.800  0.6106 -0.5845 -1.3228
  157SAPE   H4S17485   5.871  -0.079   6.637  0.2288 -0.6456 -0.9963
  157SAPE   C2517486   5.699  -0.071   6.762 -0.4473 -0.0039  0.1903
  157SAPE   H5R17487   5.630  -0.065   6.677 -0.6001 -0.3182  0.2902
  157SAPE   C2617488   5.657  -0.140   6.870  0.2730  0.2729 -0.6954
  157SAPE   H6R17489   5.553  -0.175   6.873  0.7095 -1.1014 -1.0852
  157SAPE   C2717490   5.731  -0.177   6.996  0.4245  0.1429 -0.0661
  157SAPE   H7R17491   5.836  -0.184   6.964  0.9840  0.7612  1.5707
  157SAPE   H7S17492   5.703  -0.280   7.027  1.5424 -0.0538  0.3073
  157SAPE   C2817493   5.715  -0.060   7.100 -0.2468  0.3501  0.3591
  157SAPE   H8R17494   5.725   0.035   7.045 -2.6848  0.1753 -0.4147
  157SAPE   C2917495   5.675  -0.067   7.230  0.2300  0.5048 -0.3300
  157SAPE   H9R17496   5.672   0.020   7.296 -1.3476 -0.4948  0.9547
  157SAPE  C21017497   5.643  -0.207   7.285 -0.1079 -0.5840 -0.9420
  157SAPE  H10R17498   5.732  -0.265   7.319  0.4236  1.0303  0.4672
  157SAPE  H10S17499   5.590  -0.269   7.209 -0.8164 -0.4278 -0.5783
  157SAPE  C21117500   5.548  -0.177   7.402 -0.3230 -0.0333  0.1375
  157SAPE  H11R17501   5.444  -0.150   7.380 -0.1778  0.1691 -0.2904
  157SAPE  C21217502   5.585  -0.162   7.530  0.5271 -0.4287 -0.2977
  157SAPE  H12R17503   5.509  -0.148   7.608  0.1463  4.0315 -1.3119
  157SAPE  C21317504   5.731  -0.162   7.583  0.5521  0.2310 -0.3561
  157SAPE  H13R17505   5.795  -0.184   7.496  1.3787  3.0319 -0.5013
  157SAPE  H13S17506   5.744  -0.254   7.644 -1.3565 -1.3192 -2.1769
  157SAPE  C21417507   5.771  -0.035   7.663  0.5333 -0.2445  0.5459
  157SAPE  H14R17508   5.711   0.053   7.638  2.2222  0.7280 -0.2079
  157SAPE  C21517509   5.868  -0.028   7.761 -0.3654 -0.4342  0.2127
  157SAPE  H15R17510   5.875   0.061   7.824  1.9032 -1.2204  1.1133
  157SAPE  C21617511   5.957  -0.135   7.809  0.1272 -0.1714 -0.1106
  157SAPE  H16R17512   6.064  -0.105   7.814 -0.0895  1.0982 -2.6524
  157SAPE  H16S17513   5.945  -0.222   7.741 -0.1550 -0.4883  0.3403
  157SAPE  C21717514   5.912  -0.199   7.941  0.3467 -0.6185  0.4610
  157SAPE  H17R17515   5.987  -0.279   7.958 -2.0753 -2.4223  3.1037
  157SAPE  H17S17516   5.817  -0.257   7.938  0.2086 -0.3828  0.1824
  157SAPE  C21817517   5.905  -0.091   8.051  0.6736  0.2725 -1.2344
  157SAPE  H18R17518   5.808  -0.039   8.036  0.0540 -1.1715 -2.2806
  157SAPE  H18S17519   5.989  -0.018   8.047  1.3837 -0.3465  1.4306
  157SAPE  C21917520   5.910  -0.148   8.203 -0.6002  0.4358 -0.6482
  157SAPE  H19R17521   5.906  -0.054   8.262 -2.4034 -0.1057  0.1411
  157SAPE  H19S17522   6.006  -0.202   8.220 -0.3965  1.5369  1.9729
  157SAPE  C22017523   5.789  -0.230   8.243  0.4623 -0.4648  0.6372
  157SAPE  H20R17524   5.793  -0.322   8.181  0.9268  1.2090 -1.8826
  157SAPE  H20S17525   5.694  -0.175   8.224  0.5123  0.0833  1.9179
  157SAPE  H20T17526   5.797  -0.264   8.349  0.5411 -1.3745  0.3438
  157SAPE   C3317527   5.323   0.272   6.806  0.7110 -0.1480 -0.9307
  157SAPE   H3X17528   5.382   0.363   6.828 -1.8806  1.8547 -1.9493
  157SAPE   H3Y17529   5.375   0.180   6.772 -0.0084 -0.7211 -0.5063
  157SAPE   C3417530   5.254   0.255   6.943 -0.4624  0.6388 -0.2512
  157SAPE   H4X17531   5.169   0.185   6.924 -1.2473  0.5747  3.1041
  157SAPE   H4Y17532   5.198   0.345   6.978  0.5110  1.2767 -0.3336
  157SAPE   C3517533   5.353   0.212   7.050 -0.0793 -0.3295  0.0232
  157SAPE   H5X17534   5.433   0.289   7.056 -1.1247  0.6446  1.7217
  157SAPE   H5Y17535   5.392   0.113   7.017 -1.5412  0.3148 -3.8481
  157SAPE   C3617536   5.284   0.202   7.189  0.1843 -0.3406 -0.5642
  157SAPE   H6X17537   5.193   0.138   7.188 -0.0001 -0.0585 -1.6036
  157SAPE   H6Y17538   5.243   0.297   7.228 -0.3374  0.0381 -2.0246
  157SAPE   C3717539   5.381   0.149   7.301 -0.1219 -0.1452 -1.0094
  157SAPE   H7X17540   5.483   0.178   7.268 -0.5416  0.4339 -1.8320
  157SAPE   H7Y17541   5.374   0.040   7.281 -2.2192 -0.5780  1.7609
  157SAPE   C3817542   5.355   0.182   7.446 -0.9113  0.0092  0.4211
  157SAPE   H8X17543   5.383   0.284   7.478  0.3511 -0.8919  2.3085
  157SAPE   H8Y17544   5.434   0.125   7.500  1.1459  1.0923 -1.3710
  157SAPE   C3917545   5.209   0.142   7.487  0.4442  0.4856 -0.3773
  157SAPE   H9X17546   5.182   0.038   7.462  1.3656 -0.1070  1.0269
  157SAPE   H9Y17547   5.141   0.208   7.429 -0.9301  0.2025  0.8948
  157SAPE  C31017548   5.175   0.160   7.632 -0.5755 -0.3553  0.0773
  157SAPE  H10X17549   5.065   0.176   7.631 -0.3861  0.8716 -0.6611
  157SAPE  H10Y17550   5.225   0.247   7.680 -0.8931 -1.0041  1.6118
  157SAPE  C31117551   5.217   0.036   7.719  0.4645 -0.7308 -0.8302
  157SAPE  H11X17552   5.326   0.049   7.738  0.4606 -1.4765 -0.2841
  157SAPE  H11Y17553   5.196  -0.058   7.663 -0.9918 -0.8817 -0.0411
  157SAPE  C31217554   5.137   0.035   7.855 -0.3408 -0.0524 -0.2925
  157SAPE  H12X17555   5.029   0.052   7.838 -0.4057 -0.7408 -0.5775
  157SAPE  H12Y17556   5.155   0.128   7.914 -0.6849 -0.3943  0.3578
  157SAPE  C31317557   5.158  -0.093   7.935  0.0015 -0.0088  0.6682
  157SAPE  H13X17558   5.260  -0.138   7.946 -0.6469 -1.8521 -0.5810
  157SAPE  H13Y17559   5.095  -0.163   7.875 -0.8900  0.2517  1.2977
  157SAPE  C31417560   5.094  -0.073   8.072 -0.5988  0.6933  0.6974
  157SAPE  H14X17561   5.079  -0.176   8.113  3.0697  0.0475  0.5864
  157SAPE  H14Y17562   4.993  -0.028   8.062 -1.0030 -0.2740  0.3060
  157SAPE  C31517563   5.177   0.007   8.168 -0.4079  0.1486  0.4708
  157SAPE  H15X17564   5.202   0.110   8.133  1.1706  0.2784  1.9400
  157SAPE  H15Y17565   5.277  -0.036   8.188 -0.7689 -1.9127 -1.9306
  157SAPE  C31617566   5.103   0.034   8.298  0.3663 -0.6779 -0.9942
  157SAPE  H16X17567   5.011   0.086   8.263  0.6383  1.3441  1.2115
  157SAPE  H16Y17568   5.158   0.099   8.368 -0.8421  1.0082 -1.5716
  157SAPE  C31717569   5.070  -0.088   8.386 -0.3629  0.3522 -0.1465
  157SAPE  H17X17570   5.166  -0.141   8.406  0.3193  0.4729 -2.8883
  157SAPE  H17Y17571   5.010  -0.154   8.321  0.3796 -0.2109 -0.2599
  157SAPE  C31817572   5.002  -0.050   8.517 -0.1647  0.0029 -0.5211
  157SAPE  H18X17573   5.057   0.029   8.573 -0.7427  0.1128 -0.1132
  157SAPE  H18Y17574   4.991  -0.137   8.584  0.2812 -0.4974 -1.0884
  157SAPE  H18Z17575   4.905  -0.005   8.488 -0.7938 -1.0101 -0.0096
  158SAPE     N17576   1.032   3.603   6.374 -0.4984 -0.1340  0.1020
  158SAPE   HN117577   1.002   3.503   6.371 -0.2949 -0.1687 -1.2254
  158SAPE   HN217578   1.014   3.645   6.281  1.3612  1.4535  0.4211
  158SAPE   HN317579   1.134   3.604   6.396 -0.2533 -0.2700 -0.9934
  158SAPE   C1217580   0.952   3.665   6.487  0.2575 -1.3794  0.6252
  158SAPE  H12A17581   0.984   3.623   6.585  0.8882  0.9998  1.4654
  158SAPE  H12B17582   0.845   3.642   6.468  0.3196 -0.2280 -1.3213
  158SAPE   C1117583   0.987   3.814   6.499  0.2578  0.2359 -0.0822
  158SAPE  H11A17584   1.095   3.822   6.525  0.2209  0.0311  0.1350
  158SAPE  H11B17585   0.931   3.859   6.583 -0.7543 -2.0224  0.4855
  158SAPE     P17586   0.808   3.938   6.370 -0.5185  0.4903 -0.3562
  158SAPE   O1317587   0.801   4.016   6.243  0.3133 -0.2282  0.0900
  158SAPE   O1417588   0.713   3.831   6.400 -0.0486  0.2172  0.2518
  158SAPE   O1217589   0.955   3.881   6.387  0.3133  0.4230  0.3055
  158SAPE   O1117590   0.799   4.040   6.494 -0.3544  0.2984 -0.1923
  158SAPE    C117591   0.896   4.136   6.522  0.3552  0.1719 -0.1385
  158SAPE    HA17592   0.996   4.089   6.533  0.4322  0.1079 -1.1102
  158SAPE    HB17593   0.911   4.219   6.450 -0.3560 -0.2533 -0.7839
  158SAPE    C217594   0.854   4.226   6.642 -0.7085 -0.1228 -0.3920
  158SAPE    HS17595   0.943   4.287   6.667 -0.0443 -0.2923 -2.2074
  158SAPE   O2117596   0.803   4.152   6.749  0.0891  0.6433  0.1325
  158SAPE   C2117597   0.875   4.063   6.804  0.6843  0.4009  0.0422
  158SAPE   O2217598   0.995   4.037   6.780  0.5382 -0.5468  0.2860
  158SAPE   C2217599   0.794   3.990   6.910  0.2280 -0.3673  0.4685
  158SAPE   H2R17600   0.698   4.043   6.929  0.1860 -0.7996  1.4559
  158SAPE   H2S17601   0.782   3.886   6.873 -1.0687 -0.3130  0.7112
  158SAPE    C317602   0.742   4.331   6.595  0.0904  0.0790 -1.2347
  158SAPE    HX17603   0.651   4.273   6.569 -1.1215  1.2519  0.3130
  158SAPE    HY17604   0.781   4.383   6.504  1.8648  1.2552  0.1634
  158SAPE   O3117605   0.711   4.426   6.702 -0.4986 -0.0060 -0.2165
  158SAPE   C3117606   0.791   4.533   6.717  0.0915  0.2567 -0.6470
  158SAPE   O3217607   0.885   4.558   6.647  0.3597  0.0032 -0.2078
  158SAPE   C3217608   0.756   4.608   6.849 -0.2924  0.0389  0.0227
  158SAPE   H2X17609   0.668   4.551   6.883 -0.1254 -0.9116 -1.1003
  158SAPE   H2Y17610   0.735   4.713   6.818  1.9216  0.2285 -0.9666
  158SAPE   C2317611   0.880   3.962   7.042  0.6919  0.3513  0.0219
  158SAPE   H3R17612   0.986   3.938   7.021  0.6689 -0.6237  0.9964
  158SAPE   H3S17613   0.829   3.873   7.084 -0.1889 -1.5100 -4.6260
  158SAPE   C2417614   0.858   4.064   7.153  0.2927 -0.2493  0.5556
  158SAPE   H4R17615   0.906   4.160   7.123  0.9290 -0.6274  0.3429
  158SAPE   H4S17616   0.922   4.030   7.238  1.6603  0.6903 -0.0661
  158SAPE   C2517617   0.709   4.074   7.196  0.1015 -0.4805  0.1360
  158SAPE   H5R17618   0.679   3.990   7.260 -0.2428  0.0337  0.6516
  158SAPE   C2617619   0.617   4.163   7.157  0.3462 -0.1947  0.4708
  158SAPE   H6R17620   0.519   4.153   7.206 -0.4756  0.1422 -1.0776
  158SAPE   C2717621   0.651   4.287   7.065 -0.5134 -0.3328 -0.0288
  158SAPE   H7R17622   0.724   4.268   6.983 -0.6544 -0.7668 -0.0586
  158SAPE   H7S17623   0.706   4.362   7.125  0.7035 -0.0721 -1.4276
  158SAPE   C2817624   0.529   4.339   6.990  0.0292 -0.2874 -1.1888
  158SAPE   H8R17625   0.488   4.274   6.911  1.2722 -1.6277 -0.7682
  158SAPE   C2917626   0.446   4.445   7.018 -0.4192 -0.6521 -0.0147
  158SAPE   H9R17627   0.354   4.467   6.960  0.9807 -1.4186 -2.6198
  158SAPE  C21017628   0.472   4.539   7.128 -0.4692  0.0631 -0.5968
  158SAPE  H10R17629   0.426   4.637   7.105 -2.6449 -0.9358 -0.6501
  158SAPE  H10S17630   0.580   4.565   7.129  0.2842 -2.8673  0.1222
  158SAPE  C21117631   0.420   4.481   7.261 -0.4427 -0.2539 -0.5687
  158SAPE  H11R17632   0.392   4.375   7.264  2.6128 -1.0881  1.6747
  158SAPE  C21217633   0.419   4.561   7.368  0.1226  0.7730  0.2473
  158SAPE  H12R17634   0.384   4.518   7.463  1.5583  0.2522  0.5641
  158SAPE  C21317635   0.459   4.703   7.377 -0.5947 -0.4858  0.2133
  158SAPE  H13R17636   0.523   4.732   7.291 -0.8256  0.3037  0.2981
  158SAPE  H13S17637   0.528   4.692   7.464 -0.3758 -1.0417 -0.0338
  158SAPE  C21417638   0.345   4.799   7.395 -0.2460  0.1538  0.2099
  158SAPE  H14R17639   0.280   4.797   7.306  0.4912 -1.3543 -0.2976
  158SAPE  C21517640   0.313   4.876   7.506 -0.7439  0.0111  0.0612
  158SAPE  H15R17641   0.215   4.926   7.514 -0.3061  0.7339  1.0224
  158SAPE  C21617642   0.396   4.876   7.632 -0.0543 -0.2569  0.5921
  158SAPE  H16R17643   0.407   4.985   7.651  0.1140  0.3185 -2.4073
  158SAPE  H16S17644   0.500   4.847   7.604 -0.2765 -1.4509  1.0005
  158SAPE  C21717645   0.346   4.790   7.749  0.2998  0.2219  0.2544
  158SAPE  H17R17646   0.408   4.802   7.841  0.6400 -0.2470  0.0883
  158SAPE  H17S17647   0.372   4.684   7.731  0.3915  0.5234 -1.4960
  158SAPE  C21817648   0.201   4.814   7.796  0.1857  0.2546  0.6926
  158SAPE  H18R17649   0.161   4.712   7.810 -1.3328  1.1710  3.4050
  158SAPE  H18S17650   0.153   4.866   7.711  1.4529  0.5725  0.1518
  158SAPE  C21917651   0.193   4.888   7.928  0.8043  0.0983  0.0681
  158SAPE  H19R17652   0.234   4.990   7.909  0.2366  0.4520  0.7283
  158SAPE  H19S17653   0.257   4.845   8.008 -0.7353 -1.0297  0.7012
  158SAPE  C22017654   0.049   4.910   7.980  0.3509 -0.1128 -1.1433
  158SAPE  H20R17655  -0.002   4.812   7.987  0.9915 -0.4465 -1.0729
  158SAPE  H20S17656  -0.016   4.965   7.909 -0.3479  0.1010 -0.3461
  158SAPE  H20T17657   0.046   4.968   8.075  0.0009 -0.9283 -0.6512
  158SAPE   C3317658   0.870   4.599   6.948 -0.2789  0.1634  0.3035
  158SAPE   H3X17659   0.964   4.640   6.905 -0.5630  1.0233  0.5023
  158SAPE   H3Y17660   0.893   4.499   6.991 -1.6176 -0.4859 -0.4492
  158SAPE   C3417661   0.844   4.677   7.071 -0.5015  0.3765  1.1637
  158SAPE   H4X17662   0.776   4.614   7.132  0.7689 -1.9074  0.2535
  158SAPE   H4Y17663   0.787   4.772   7.059  0.3668  0.8275  0.4356
  158SAPE   C3517664   0.970   4.728   7.154  0.3193  0.2397  0.1411
  158SAPE   H5X17665   1.032   4.782   7.080 -1.9089  0.3273 -1.7351
  158SAPE   H5Y17666   1.022   4.634   7.184 -2.6922 -1.2138  1.0240
  158SAPE   C3617667   0.942   4.822   7.268  0.2811 -0.5440 -0.7315
  158SAPE   H6X17668   0.881   4.909   7.239 -0.3059 -0.4923  0.5975
  158SAPE   H6Y17669   1.041   4.863   7.297  0.6561 -2.1429  0.3738
  158SAPE   C3717670   0.881   4.753   7.392 -0.9008  0.0513  1.2427
  158SAPE   H7X17671   0.775   4.728   7.368 -0.6364  1.1080 -1.2888
  158SAPE   H7Y17672   0.949   4.667   7.408  1.0018  1.7849  2.6616
  158SAPE   C3817673   0.876   4.843   7.518 -0.4442  0.2095  0.4539
  158SAPE   H8X17674   0.813   4.933   7.506 -0.4533  0.2247  0.6143
  158SAPE   H8Y17675   0.979   4.882   7.533 -0.7845  0.7265  1.4902
  158SAPE   C3917676   0.827   4.772   7.648  0.4584 -0.2308  0.2568
  158SAPE   H9X17677   0.900   4.699   7.690  1.2977 -1.7344 -3.6051
  158SAPE   H9Y17678   0.741   4.710   7.615 -1.2538  2.8700 -1.3736
  158SAPE  C31017679   0.765   4.877   7.742 -0.8240 -0.2185 -0.3008
  158SAPE  H10X17680   0.692   4.943   7.692 -0.4141 -1.2037 -2.2267
  158SAPE  H10Y17681   0.850   4.938   7.780 -1.9849  1.2552 -0.0225
  158SAPE  C31117682   0.701   4.807   7.866 -0.1555 -0.4704  0.5608
  158SAPE  H11X17683   0.785   4.761   7.921  2.2207  0.0298 -2.4559
  158SAPE  H11Y17684   0.638   4.723   7.830  0.3867 -0.4139 -0.5540
  158SAPE  C31217685   0.644   4.900   7.972  0.3946  0.7205 -0.3020
  158SAPE  H12X17686   0.573   4.964   7.915  0.2148  0.8864  0.1127
  158SAPE  H12Y17687   0.721   4.967   8.016 -0.5569  0.7747  1.2973
  158SAPE  C31317688   0.566   4.838   8.087  0.3845 -0.1781  0.4911
  158SAPE  H13X17689   0.489   4.778   8.034  0.8008 -0.2909  0.0158
  158SAPE  H13Y17690   0.506   4.912   8.144  0.8951 -0.2884  1.1816
  158SAPE  C31417691   0.660   4.752   8.172 -0.0595 -0.0999  0.5640
  158SAPE  H14X17692   0.698   4.822   8.250  0.1570  0.3383  0.0686
  158SAPE  H14Y17693   0.741   4.702   8.114 -1.8219  0.4985 -2.5552
  158SAPE  C31517694   0.578   4.651   8.258  0.1879 -0.7769  0.9374
  158SAPE  H15X17695   0.491   4.704   8.301  0.8673  2.0897 -1.0838
  158SAPE  H15Y17696   0.646   4.620   8.340  2.3388  0.5325 -0.3004
  158SAPE  C31617697   0.532   4.537   8.163  0.0402  0.0686 -0.3738
  158SAPE  H16X17698   0.477   4.585   8.079  1.4760  0.8069 -0.9133
  158SAPE  H16Y17699   0.477   4.460   8.221 -3.5881  1.6759 -1.5177
  158SAPE  C31717700   0.643   4.454   8.098 -0.5343 -0.0607  0.6498
  158SAPE  H17X17701   0.697   4.416   8.187  0.2278  1.0140  0.6532
  158SAPE  H17Y17702   0.714   4.512   8.036 -1.6238 -1.7142 -2.2400
  158SAPE  C31817703   0.582   4.336   8.031  0.1461  0.0848 -0.9777
  158SAPE  H18X17704   0.537   4.282   8.116  2.0393  0.5555  0.3611
  158SAPE  H18Y17705   0.663   4.276   7.983  0.6158  0.1616 -0.2904
  158SAPE  H18Z17706   0.508   4.359   7.952 -5.2850 -1.5033  3.3837
  159SAPE     N17707   6.417   1.133   6.354  0.3585  0.2005 -0.5089
  159SAPE   HN117708   6.461   1.224   6.381  1.0003 -0.8776  2.2550
  159SAPE   HN217709   6.325   1.109   6.397 -0.9965 -1.0054 -3.9169
  159SAPE   HN317710   6.496   1.068   6.371  0.4818  0.5411  0.2660
  159SAPE   C1217711   6.384   1.128   6.203  0.3776  0.6433  0.2766
  159SAPE  H12A17712   6.455   1.186   6.139  1.7580 -0.9565  0.3098
  159SAPE  H12B17713   6.280   1.167   6.202  0.0236 -0.2801  0.4076
  159SAPE   C1117714   6.410   0.990   6.149  0.9104 -0.3003  0.3716
  159SAPE  H11A17715   6.378   1.003   6.043 -0.5097  2.0400  1.0269
  159SAPE  H11B17716   6.352   0.913   6.203  0.7728 -0.5879 -0.1827
  159SAPE     P17717   6.619   0.835   6.081  0.1217 -0.0718 -0.2084
  159SAPE   O1317718   6.544   0.711   6.112  0.0639 -0.4531 -0.0601
  159SAPE   O1417719   6.624   0.866   5.936  0.1243 -0.3747 -0.3306
  159SAPE   O1217720   6.547   0.952   6.161  0.2861 -0.1109 -0.0974
  159SAPE   O1117721   6.775   0.835   6.130 -0.7673 -0.9834 -0.9067
  159SAPE    C117722   6.819   0.926   6.238 -0.2519 -0.2675  0.4479
  159SAPE    HA17723   6.896   0.991   6.192  0.2670 -0.1634  1.4624
  159SAPE    HB17724   6.746   1.006   6.261  0.2263 -0.1616  1.6128
  159SAPE    C217725   6.857   0.848   6.367 -0.2669  0.2707 -0.3851
  159SAPE    HS17726   6.931   0.770   6.337  2.6842  2.6441  0.4285
  159SAPE   O2117727   6.752   0.784   6.431 -0.5331 -0.1097  0.2769
  159SAPE   C2117728   6.645   0.856   6.476 -0.2262 -0.4091  0.0529
  159SAPE   O2217729   6.627   0.972   6.448 -0.5581 -0.1743 -0.1046
  159SAPE   C2217730   6.557   0.756   6.567  0.0838 -0.2582 -0.3728
  159SAPE   H2R17731   6.546   0.658   6.515  1.7383 -1.4505  1.4779
  159SAPE   H2S17732   6.615   0.726   6.656  0.6698  1.1620 -0.2766
  159SAPE    C317733   6.940   0.951   6.459  0.5808 -0.6194 -0.1125
  159SAPE    HX17734   6.875   1.025   6.510 -0.6507 -1.3269 -0.6207
  159SAPE    HY17735   6.992   1.010   6.381  0.7709 -0.3500  0.2190
  159SAPE   O3117736   7.032   0.878   6.547  0.3413 -0.0382 -0.0844
  159SAPE   C3117737   6.982   0.851   6.664  0.5741  0.0507  0.3981
  159SAPE   O3217738   6.867   0.868   6.694 -0.1338 -0.2657  0.4056
  159SAPE   C3217739   7.098   0.787   6.741  0.5285 -0.6760 -0.2452
  159SAPE   H2X17740   7.195   0.829   6.703  0.7589 -0.2127  0.8361
  159SAPE   H2Y17741   7.099   0.681   6.709 -2.3607 -0.8100 -0.0066
  159SAPE   C2317742   6.422   0.814   6.603  0.6460  1.3926  0.8029
  159SAPE   H3R17743   6.358   0.732   6.642 -0.6084  2.6631  1.4695
  159SAPE   H3S17744   6.368   0.863   6.518 -0.8329 -0.5066  0.6167
  159SAPE   C2417745   6.429   0.924   6.713 -0.4007 -0.2333  0.0580
  159SAPE   H4R17746   6.461   1.020   6.665  0.1515 -0.0006  0.8827
  159SAPE   H4S17747   6.507   0.895   6.786  0.8854 -2.3147 -2.0885
  159SAPE   C2517748   6.298   0.955   6.767 -0.6081  0.4792  0.1734
  159SAPE   H5R17749   6.235   1.016   6.700 -0.2304  1.3933  0.6417
  159SAPE   C2617750   6.243   0.923   6.882 -0.4254 -0.1799  0.1985
  159SAPE   H6R17751   6.133   0.925   6.885 -0.4476  2.7027 -0.9825
  159SAPE   C2717752   6.321   0.845   6.993  0.5227 -0.2797  0.2112
  159SAPE   H7R17753   6.421   0.816   6.956  1.1135  0.7969  0.9347
  159SAPE   H7S17754   6.271   0.750   7.022 -2.5444  1.5706  1.2193
  159SAPE   C2817755   6.343   0.935   7.116 -0.1313  0.2516  0.1182
  159SAPE   H8R17756   6.355   1.040   7.086  1.1026 -0.1841 -0.9727
  159SAPE   C2917757   6.355   0.904   7.250 -0.1190  0.4571  0.4601
  159SAPE   H9R17758   6.379   0.985   7.320  1.5832  1.0079 -0.7264
  159SAPE  C21017759   6.335   0.761   7.304  0.1412 -0.3508 -0.0342
  159SAPE  H10R17760   6.269   0.702   7.237  0.5159  0.9890 -1.6015
  159SAPE  H10S17761   6.275   0.763   7.398  3.3484 -0.2192  2.0983
  159SAPE  C21117762   6.461   0.684   7.325  0.8001 -0.2597  0.1621
  159SAPE  H11R17763   6.499   0.646   7.229  1.0802 -0.3218  0.2989
  159SAPE  C21217764   6.517   0.651   7.443  0.4648  0.7143 -0.2724
  159SAPE  H12R17765   6.617   0.605   7.437  0.4295  0.9491 -3.0321
  159SAPE  C21317766   6.464   0.676   7.581 -0.3196  0.1018  0.3755
  159SAPE  H13R17767   6.354   0.661   7.578 -0.0404 -1.8731 -0.9659
  159SAPE  H13S17768   6.482   0.784   7.600  2.8948 -0.0936 -1.1445
  159SAPE  C21417769   6.528   0.589   7.691 -0.4758  0.0364  0.9509
  159SAPE  H14R17770   6.621   0.547   7.651  0.2930  1.7472  0.9152
  159SAPE  C21517771   6.475   0.546   7.811 -0.1089  0.4046  0.6281
  159SAPE  H15R17772   6.531   0.479   7.878  1.2047 -1.2279 -2.0489
  159SAPE  C21617773   6.343   0.583   7.868 -0.2630  0.6140 -0.1300
  159SAPE  H16R17774   6.311   0.668   7.803 -1.3946 -0.2429 -0.7278
  159SAPE  H16S17775   6.348   0.622   7.972 -0.5591 -2.4912  1.0985
  159SAPE  C21717776   6.219   0.499   7.862  0.0010 -0.1781  0.2488
  159SAPE  H17R17777   6.207   0.456   7.760  0.0323  1.6610 -0.5456
  159SAPE  H17S17778   6.130   0.562   7.882 -0.2856 -0.9248  1.3465
  159SAPE  C21817779   6.221   0.377   7.964  0.1696  0.2893 -0.1610
  159SAPE  H18R17780   6.302   0.391   8.039  1.6132  0.5149 -1.7392
  159SAPE  H18S17781   6.245   0.283   7.911  0.8064  1.8036 -2.6313
  159SAPE  C21917782   6.085   0.356   8.027 -0.6321  0.4643 -0.2750
  159SAPE  H19R17783   6.014   0.332   7.945  0.2064  1.5999 -1.3453
  159SAPE  H19S17784   6.048   0.453   8.067  0.7813  1.9436 -2.4868
  159SAPE  C22017785   6.086   0.243   8.135 -0.0398 -0.3648  0.0338
  159SAPE  H20R17786   5.980   0.213   8.149 -0.1460  1.0150  2.6735
  159SAPE  H20S17787   6.132   0.284   8.228 -0.8011  2.9341 -0.9656
  159SAPE  H20T17788   6.148   0.160   8.096 -0.9328 -0.5113 -1.1030
  159SAPE   C3317789   7.090   0.790   6.891  0.2149 -0.0928  0.4037
  159SAPE   H3X17790   6.995   0.745   6.927 -0.6660  2.2005  1.0808
  159SAPE   H3Y17791   7.098   0.898   6.917  1.6400 -0.1333  0.1765
  159SAPE   C3417792   7.209   0.738   6.977  0.6047  0.3471  0.2914
  159SAPE   H4X17793   7.302   0.779   6.933  0.3108  0.1765 -0.4928
  159SAPE   H4Y17794   7.214   0.628   6.958  1.6957  0.6508 -1.2963
  159SAPE   C3517795   7.181   0.769   7.127 -0.1319 -0.0403 -1.0560
  159SAPE   H5X17796   7.095   0.712   7.167  0.9640 -1.6102 -0.9047
  159SAPE   H5Y17797   7.182   0.880   7.142  2.1368  0.1421 -2.3339
  159SAPE   C3617798   7.299   0.718   7.211 -0.2136 -0.0224 -0.3362
  159SAPE   H6X17799   7.396   0.739   7.160 -0.9915  2.1055 -0.9842
  159SAPE   H6Y17800   7.299   0.607   7.217 -0.2322  0.0028  0.1590
  159SAPE   C3717801   7.310   0.782   7.350  0.4184 -0.5734 -0.0564
  159SAPE   H7X17802   7.213   0.817   7.392  1.4038 -1.0123  2.6512
  159SAPE   H7Y17803   7.355   0.882   7.332  0.0177 -0.2905  0.5151
  159SAPE   C3817804   7.363   0.681   7.452 -0.2814  0.2874  0.2471
  159SAPE   H8X17805   7.453   0.640   7.401 -0.7418 -1.6258  0.9200
  159SAPE   H8Y17806   7.288   0.600   7.470 -0.3597  0.1542 -0.6689
  159SAPE   C3917807   7.405   0.742   7.593  0.6548  0.0093 -0.1461
  159SAPE   H9X17808   7.308   0.767   7.640  0.1116 -1.5975 -0.3841
  159SAPE   H9Y17809   7.476   0.827   7.583 -1.4959  1.9902  1.0576
  159SAPE  C31017810   7.464   0.625   7.674 -0.6668 -0.0571 -0.2700
  159SAPE  H10X17811   7.544   0.574   7.616 -0.4628 -2.2711  1.8903
  159SAPE  H10Y17812   7.395   0.539   7.686 -0.1775 -0.1738  1.8407
  159SAPE  C31117813   7.515   0.669   7.810 -0.2154 -0.2814 -0.1738
  159SAPE  H11X17814   7.440   0.717   7.876  0.9799  1.8415 -0.3258
  159SAPE  H11Y17815   7.603   0.735   7.792 -0.7994  0.5183 -0.1040
  159SAPE  C31217816   7.564   0.546   7.886 -0.1033  0.4045 -0.7141
  159SAPE  H12X17817   7.637   0.496   7.819 -2.4358  0.6491 -3.5174
  159SAPE  H12Y17818   7.486   0.471   7.913 -1.0173  1.6342  0.1138
  159SAPE  C31317819   7.624   0.587   8.015 -0.5845  0.2150 -0.4476
  159SAPE  H13X17820   7.544   0.610   8.089 -1.0636 -2.6051 -0.0088
  159SAPE  H13Y17821   7.689   0.676   8.026 -3.0235  1.8668  1.0007
  159SAPE  C31417822   7.716   0.474   8.079 -0.1961  0.8142  0.0779
  159SAPE  H14X17823   7.810   0.461   8.022 -1.0034  0.4804 -1.2153
  159SAPE  H14Y17824   7.663   0.377   8.070  1.9949 -0.2214 -2.1354
  159SAPE  C31517825   7.740   0.486   8.222  0.6685 -0.1801 -0.5220
  159SAPE  H15X17826   7.776   0.392   8.268 -0.0290 -0.6380 -0.9072
  159SAPE  H15Y17827   7.645   0.520   8.268 -0.4450  0.3830 -3.1288
  159SAPE  C31617828   7.857   0.587   8.255  0.2719  0.5141 -0.1902
  159SAPE  H16X17829   7.822   0.692   8.259 -0.4762  0.2560  0.0655
  159SAPE  H16Y17830   7.926   0.579   8.168  1.2127  2.1493  0.3923
  159SAPE  C31717831   7.921   0.553   8.390  0.2442 -0.0414 -0.0149
  159SAPE  H17X17832   8.016   0.609   8.405 -0.2457  2.0772 -3.8729
  159SAPE  H17Y17833   7.940   0.444   8.380 -1.6340 -0.2084 -2.3171
  159SAPE  C31817834   7.825   0.564   8.518 -0.2555  0.0272 -0.2853
  159SAPE  H18X17835   7.865   0.526   8.614 -0.0033 -0.6111 -0.6361
  159SAPE  H18Y17836   7.736   0.505   8.488 -1.2096  1.6194 -0.5940
  159SAPE  H18Z17837   7.796   0.669   8.535 -0.1532 -0.0091  0.1187
  160SAPE     N17838   1.418   6.313   6.644  0.5407 -0.2997  0.1169
  160SAPE   HN117839   1.369   6.242   6.703 -0.8599  0.7189  0.1993
  160SAPE   HN217840   1.421   6.270   6.549 -0.2263  0.9938 -0.4949
  160SAPE   HN317841   1.518   6.308   6.673  0.9978  1.8164 -0.9716
  160SAPE   C1217842   1.340   6.447   6.635 -0.5003 -0.6916 -0.1753
  160SAPE  H12A17843   1.401   6.518   6.574 -1.7065  1.5578  1.1602
  160SAPE  H12B17844   1.337   6.487   6.739  0.8625  2.1070 -1.1340
  160SAPE   C1117845   1.199   6.422   6.586 -0.8485  0.0990 -0.3348
  160SAPE  H11A17846   1.157   6.520   6.554  1.6246  0.4150 -2.7431
  160SAPE  H11B17847   1.140   6.387   6.674 -0.3188 -1.3039 -0.5376
  160SAPE     P17848   1.049   6.305   6.416 -0.0614 -0.2848 -0.2135
  160SAPE   O1317849   0.975   6.434   6.376  0.4141 -0.0630 -0.0884
  160SAPE   O1417850   1.069   6.204   6.308  0.3648 -0.2362  0.1701
  160SAPE   O1217851   1.191   6.327   6.478  0.2823  0.2004  0.0842
  160SAPE   O1117852   0.969   6.241   6.537 -0.3595  0.0215 -0.8712
  160SAPE    C117853   1.001   6.132   6.614 -0.0895 -0.1592 -1.0709
  160SAPE    HA17854   1.106   6.095   6.609  0.4330  1.0467  0.7042
  160SAPE    HB17855   0.982   6.144   6.723  0.4960 -1.0047 -0.8708
  160SAPE    C217856   0.919   6.016   6.561  0.3347  0.4416  0.2948
  160SAPE    HS17857   0.897   6.035   6.454  1.2865 -1.3784 -0.2431
  160SAPE   O2117858   0.793   6.020   6.635  0.7108 -0.3683 -0.3065
  160SAPE   C2117859   0.689   5.960   6.572  0.2482 -0.1566 -0.2422
  160SAPE   O2217860   0.699   5.909   6.463 -0.6918  0.3253 -0.2996
  160SAPE   C2217861   0.562   5.979   6.653  1.0623 -0.7664  0.6878
  160SAPE   H2R17862   0.580   5.930   6.751 -0.9425 -1.4720  0.7147
  160SAPE   H2S17863   0.559   6.087   6.679 -2.8007 -0.5383 -0.4218
  160SAPE    C317864   0.985   5.879   6.575 -0.1097 -0.1295  0.5573
  160SAPE    HX17865   1.076   5.895   6.512 -1.2623 -1.0777 -1.4121
  160SAPE    HY17866   0.930   5.800   6.520  1.0466  0.5781 -1.6778
  160SAPE   O3117867   1.031   5.840   6.699 -0.7104 -0.2968  0.0620
  160SAPE   C3117868   0.940   5.757   6.764 -0.0019 -0.2827 -0.0944
  160SAPE   O3217869   0.824   5.736   6.733 -0.5817  0.1518  0.2264
  160SAPE   C3217870   1.008   5.695   6.891 -0.0040  0.3307  0.4026
  160SAPE   H2X17871   1.111   5.736   6.888  0.8628 -1.8958 -1.9752
  160SAPE   H2Y17872   1.013   5.586   6.871  0.3389  0.4668 -0.2624
  160SAPE   C2317873   0.431   5.915   6.585 -0.9416  0.0113 -0.0304
  160SAPE   H3R17874   0.449   5.806   6.571  0.2293  0.0603  1.0016
  160SAPE   H3S17875   0.409   5.966   6.488  0.8662  1.1744  0.1454
  160SAPE   C2417876   0.305   5.935   6.676  0.7555  0.2870  0.1454
  160SAPE   H4R17877   0.306   5.868   6.765 -2.0395  1.5218  1.1708
  160SAPE   H4S17878   0.218   5.910   6.612  2.2481 -0.1312 -1.7516
  160SAPE   C2517879   0.288   6.075   6.716 -0.2347  0.1075  0.2840
  160SAPE   H5R17880   0.274   6.144   6.631 -1.1732 -0.1870  0.1941
  160SAPE   C2617881   0.301   6.127   6.837 -0.3334  0.2246  0.3600
  160SAPE   H6R17882   0.296   6.237   6.846  0.7041  0.2764  0.3246
  160SAPE   C2717883   0.336   6.060   6.966  0.0622  0.1565 -0.0875
  160SAPE   H7R17884   0.371   5.956   6.948 -0.3222  0.2722 -1.6272
  160SAPE   H7S17885   0.251   6.054   7.037  0.9957 -0.3960  0.9981
  160SAPE   C2817886   0.452   6.132   7.024 -0.0127 -0.6455  1.1115
  160SAPE   H8R17887   0.542   6.118   6.962 -0.4268 -1.4248  0.6888
  160SAPE   C2917888   0.450   6.221   7.130  0.2827 -0.5553 -0.2531
  160SAPE   H9R17889   0.542   6.272   7.162 -1.3562  1.6838  1.0457
  160SAPE  C21017890   0.331   6.252   7.218 -0.2605 -1.1445 -0.1422
  160SAPE  H10R17891   0.248   6.181   7.194 -1.7203  1.0390 -1.7703
  160SAPE  H10S17892   0.292   6.353   7.195  0.3287 -0.7007  0.7692
  160SAPE  C21117893   0.363   6.237   7.364 -0.1519 -0.0035 -0.3744
  160SAPE  H11R17894   0.466   6.228   7.401 -1.0842 -1.7758  1.8368
  160SAPE  C21217895   0.261   6.234   7.458  0.1351  0.2601 -0.6370
  160SAPE  H12R17896   0.289   6.219   7.563 -0.5595  4.2832  0.1962
  160SAPE  C21317897   0.110   6.235   7.422  0.0949  0.1083 -0.1014
  160SAPE  H13R17898   0.062   6.136   7.434 -0.2401  0.4517  1.5219
  160SAPE  H13S17899   0.086   6.271   7.320 -0.6756  3.0116  1.0716
  160SAPE  C21417900   0.029   6.319   7.520 -0.2211  0.0029  1.0880
  160SAPE  H14R17901   0.070   6.331   7.621  2.0888 -1.3898  0.3557
  160SAPE  C21517902  -0.101   6.348   7.515 -0.7551 -0.7616 -0.1992
  160SAPE  H15R17903  -0.147   6.405   7.597 -0.5643  0.9038 -1.2293
  160SAPE  C21617904  -0.206   6.314   7.410 -0.4191 -0.2635 -0.0733
  160SAPE  H16R17905  -0.262   6.409   7.396  0.9874  0.7129  0.7542
  160SAPE  H16S17906  -0.279   6.240   7.448  0.7175 -0.6481  1.4436
  160SAPE  C21717907  -0.165   6.274   7.266 -0.0715  0.2312 -0.1439
  160SAPE  H17R17908  -0.113   6.177   7.280 -2.4815 -0.9374  1.0514
  160SAPE  H17S17909  -0.096   6.350   7.222 -0.7895 -0.0198 -1.7292
  160SAPE  C21817910  -0.287   6.250   7.176  0.1656  0.2206 -0.2992
  160SAPE  H18R17911  -0.353   6.340   7.181  2.3407  1.7592  2.5533
  160SAPE  H18S17912  -0.345   6.164   7.216  0.6630  0.3106  0.6264
  160SAPE  C21917913  -0.251   6.220   7.035 -0.0779  0.2632  0.7626
  160SAPE  H19R17914  -0.210   6.117   7.032 -2.3135 -0.7015  1.9926
  160SAPE  H19S17915  -0.173   6.288   6.993  0.8405 -1.0816  0.2747
  160SAPE  C22017916  -0.366   6.203   6.933 -0.5040  0.3468 -0.4815
  160SAPE  H20R17917  -0.319   6.212   6.833  3.0376 -0.8896  0.9913
  160SAPE  H20S17918  -0.441   6.282   6.957  0.1304  1.1147 -1.0123
  160SAPE  H20T17919  -0.416   6.104   6.946  1.4715 -0.5884  0.1126
  160SAPE   C3317920   0.945   5.744   7.021 -0.5457  0.4142  0.4375
  160SAPE   H3X17921   0.915   5.850   7.006 -1.6038 -0.1499 -1.7046
  160SAPE   H3Y17922   1.031   5.741   7.091  0.1681  1.2069 -0.4004
  160SAPE   C3417923   0.835   5.653   7.076  0.1971  0.0065 -0.0815
  160SAPE   H4X17924   0.872   5.548   7.076  1.1022  0.3170  0.6244
  160SAPE   H4Y17925   0.752   5.660   7.002  0.3584  0.2678 -0.2387
  160SAPE   C3517926   0.787   5.687   7.220 -0.2567  0.8409  0.3817
  160SAPE   H5X17927   0.685   5.647   7.241  0.0957 -0.9167 -1.1256
  160SAPE   H5Y17928   0.780   5.797   7.230 -0.6214  1.1938 -3.2272
  160SAPE   C3617929   0.870   5.617   7.327  0.0812  0.4838  0.5694
  160SAPE   H6X17930   0.970   5.663   7.326 -0.4433  1.6502  0.9662
  160SAPE   H6Y17931   0.872   5.509   7.301  0.8507  0.9658 -1.4096
  160SAPE   C3717932   0.826   5.655   7.470 -0.3969  0.1987 -0.4280
  160SAPE   H7X17933   0.749   5.580   7.497  1.8576 -1.5022  1.4938
  160SAPE   H7Y17934   0.784   5.758   7.471 -1.9181 -0.3651 -2.4821
  160SAPE   C3817935   0.936   5.636   7.579 -0.4029 -0.0544  0.0626
  160SAPE   H8X17936   1.014   5.707   7.544 -0.7874  1.1827  1.6361
  160SAPE   H8Y17937   0.978   5.533   7.577  1.1776  0.5107  2.1341
  160SAPE   C3917938   0.894   5.678   7.721 -0.4909 -0.2023  0.3261
  160SAPE   H9X17939   0.800   5.620   7.730 -0.3269 -0.4431  0.4785
  160SAPE   H9Y17940   0.880   5.788   7.737  0.5384 -0.0651  0.3118
  160SAPE  C31017941   1.001   5.634   7.823 -0.3179 -0.2442  0.1983
  160SAPE  H10X17942   1.088   5.703   7.814 -0.0930 -0.4153  1.0130
  160SAPE  H10Y17943   1.027   5.529   7.797 -1.7974 -0.3874 -0.7493
  160SAPE  C31117944   0.961   5.643   7.974 -0.4158 -0.7072  0.1378
  160SAPE  H11X17945   0.871   5.580   7.992 -0.4879 -0.6896 -0.1701
  160SAPE  H11Y17946   0.931   5.745   8.004  1.3284  0.4902 -2.0480
  160SAPE  C31217947   1.075   5.596   8.064  1.3826 -0.4851 -0.0362
  160SAPE  H12X17948   1.152   5.674   8.077 -0.2656  1.7219 -2.9089
  160SAPE  H12Y17949   1.130   5.515   8.011  3.1285  0.4351  0.3310
  160SAPE  C31317950   1.025   5.560   8.209 -0.2287  0.0369  0.4040
  160SAPE  H13X17951   0.940   5.490   8.201  0.9359 -1.2342 -1.1568
  160SAPE  H13Y17952   0.982   5.655   8.248  2.2132  2.5441 -2.7831
  160SAPE  C31417953   1.138   5.525   8.307  0.0980 -0.1833  0.8899
  160SAPE  H14X17954   1.237   5.572   8.291 -0.1245 -0.0838 -0.1976
  160SAPE  H14Y17955   1.154   5.417   8.284  0.1072  0.3320 -1.6440
  160SAPE  C31517956   1.120   5.522   8.455 -0.0138 -0.4704 -0.2561
  160SAPE  H15X17957   1.207   5.483   8.513 -0.4109  0.4849  1.0268
  160SAPE  H15Y17958   1.047   5.440   8.470  0.7380 -1.5003 -2.1401
  160SAPE  C31617959   1.066   5.656   8.509 -0.3509 -0.7087 -0.4363
  160SAPE  H16X17960   0.969   5.685   8.464 -0.1633  2.1755  0.9303
  160SAPE  H16Y17961   1.129   5.741   8.476  0.3923 -0.3994  1.7081
  160SAPE  C31717962   1.066   5.643   8.664  0.1630 -0.9611  0.0339
  160SAPE  H17X17963   1.014   5.732   8.707  1.4874 -1.3143  2.4505
  160SAPE  H17Y17964   1.172   5.652   8.696 -0.2191  2.9957  0.4202
  160SAPE  C31817965   1.002   5.517   8.730 -0.3584  0.2566 -0.4566
  160SAPE  H18X17966   1.007   5.530   8.840  0.0842  0.0339 -0.4520
  160SAPE  H18Y17967   1.049   5.419   8.705 -0.8844  0.2730 -1.5481
  160SAPE  H18Z17968   0.897   5.502   8.697 -0.8085  2.8069 -0.3151
  161SOPE     N17969   0.345   0.663  10.523  0.2813 -0.0467 -0.1517
  161SOPE   HN117970   0.319   0.734  10.594 -1.5269  0.0018 -0.8611
  161SOPE   HN217971   0.334   0.565  10.557  1.1753  0.2492  1.0437
  161SOPE   HN317972   0.441   0.681  10.486 -1.1436  2.3864 -2.7485
  161SOPE   C1217973   0.240   0.684  10.410  0.4899  0.8642  0.2160
  161SOPE  H12A17974   0.278   0.631  10.321  1.0002  2.9797 -0.8421
  161SOPE  H12B17975   0.241   0.792  10.386  1.9914  1.4366  2.6211
  161SOPE   C1117976   0.101   0.636  10.454  0.4318  0.0604  0.2636
  161SOPE  H11A17977   0.101   0.535  10.501  0.9762  0.0711  0.2852
  161SOPE  H11B17978   0.031   0.627  10.368 -0.0863  0.4881  0.6415
  161SOPE     P17979  -0.102   0.730  10.590  0.2938  0.2637  0.3703
  161SOPE   O1317980  -0.162   0.863  10.569  0.3750 -0.2067  0.6449
  161SOPE   O1417981  -0.095   0.675  10.728 -0.0783 -0.4519 -0.4255
  161SOPE   O1217982   0.048   0.735  10.542  0.5749 -0.1686 -0.0489
  161SOPE   O1117983  -0.175   0.617  10.507  0.1262 -0.2180 -0.1815
  161SOPE    C117984  -0.312   0.620  10.465 -0.3841  0.1275 -0.2375
  161SOPE    HA17985  -0.365   0.716  10.489  1.7936  2.1854 -3.3318
  161SOPE    HB17986  -0.362   0.541  10.525 -0.9521  0.6006 -0.0802
  161SOPE    C217987  -0.337   0.601  10.306 -0.4415  0.0164  0.2531
  161SOPE    HS17988  -0.258   0.529  10.276 -1.0970 -1.0389  0.9985
  161SOPE   O2117989  -0.312   0.731  10.244 -0.0858  0.0576 -0.4823
  161SOPE   C2117990  -0.267   0.727  10.117  0.0536  0.3004 -0.3424
  161SOPE   O2217991  -0.243   0.630  10.056  0.3905 -0.0039  0.3542
  161SOPE   C2217992  -0.258   0.878  10.071 -0.1229  0.7866 -0.1845
  161SOPE   H2R17993  -0.182   0.926  10.136 -1.2764  1.4053  0.7231
  161SOPE   H2S17994  -0.356   0.919  10.101 -0.0453 -0.0380  1.2356
  161SOPE    C317995  -0.482   0.548  10.264  0.0636  0.3929  0.1557
  161SOPE    HX17996  -0.554   0.625  10.300 -0.7281 -0.6187  0.7642
  161SOPE    HY17997  -0.497   0.449  10.312 -2.3275  1.0035  0.7334
  161SOPE   O3117998  -0.510   0.535  10.128 -0.1573 -0.0912  0.6391
  161SOPE   C3117999  -0.465   0.422  10.080 -0.4291  0.2342  0.7704
  161SOPE   O3218000  -0.406   0.339  10.141  0.4827 -0.0629 -0.3062
  161SOPE   C3218001  -0.501   0.409   9.930 -0.1900 -0.0273 -0.0047
  161SOPE   H2X18002  -0.555   0.503   9.902  2.0456  2.1503  2.6454
  161SOPE   H2Y18003  -0.565   0.320   9.913 -3.2730  2.3394 -1.5193
  161SOPE   C2318004  -0.249   0.909   9.916  0.0737 -0.6379 -0.3070
  161SOPE   H3R18005  -0.163   0.849   9.881  0.7977  0.0103  0.3384
  161SOPE   H3S18006  -0.216   1.015   9.920 -0.4514 -0.4519 -0.9114
  161SOPE   C2418007  -0.372   0.889   9.835 -0.0565 -0.5575  0.3282
  161SOPE   H4R18008  -0.395   0.782   9.850  0.7833 -0.9864 -1.2554
  161SOPE   H4S18009  -0.450   0.961   9.868  1.2054  0.2755  1.5389
  161SOPE   C2518010  -0.335   0.896   9.684  0.1610  0.0741 -0.2674
  161SOPE   H5R18011  -0.316   1.001   9.652  1.7006  0.8482  2.9070
  161SOPE   H5S18012  -0.243   0.836   9.665  1.1892  2.0677 -1.8389
  161SOPE   C2618013  -0.447   0.874   9.590 -0.2634  0.1924 -0.6422
  161SOPE   H6R18014  -0.487   0.771   9.573  0.9587 -0.0412 -2.1635
  161SOPE   H6S18015  -0.530   0.941   9.621  1.0919  1.1209  1.0618
  161SOPE   C2718016  -0.421   0.922   9.445  0.0966  1.0708  0.6583
  161SOPE   H7R18017  -0.523   0.935   9.403  0.4070  0.7406 -0.2154
  161SOPE   H7S18018  -0.378   1.024   9.448  1.6195  0.4180  1.2437
  161SOPE   C2818019  -0.348   0.820   9.360 -0.3194  0.1521 -0.6648
  161SOPE   H8R18020  -0.315   0.860   9.262  0.9755  0.1959 -0.2228
  161SOPE   H8S18021  -0.252   0.796   9.410  0.6964  0.1712 -2.5471
  161SOPE   C2918022  -0.432   0.693   9.327 -0.7467 -0.5065  1.0683
  161SOPE   H9118023  -0.412   0.607   9.393  1.0888 -0.1704  0.9689
  161SOPE  C21018024  -0.514   0.680   9.224 -0.3409  0.6441  0.1390
  161SOPE  H10118025  -0.551   0.581   9.195  0.6255 -0.6932  3.2691
  161SOPE  C21118026  -0.555   0.781   9.119 -0.1230  0.2714  0.4053
  161SOPE  H11R18027  -0.513   0.881   9.144  1.7109 -0.1536 -0.7932
  161SOPE  H11S18028  -0.663   0.780   9.095 -0.0298  1.5946 -0.0828
  161SOPE  C21218029  -0.501   0.752   8.970  0.1268  0.1213  0.1360
  161SOPE  H12R18030  -0.393   0.770   8.951  0.7138 -0.4522  2.7913
  161SOPE  H12S18031  -0.558   0.829   8.912 -0.0470 -0.2967 -0.2566
  161SOPE  C21318032  -0.541   0.613   8.901  0.2114  0.6688  0.0225
  161SOPE  H13R18033  -0.651   0.601   8.910  0.4261  0.2563  2.7750
  161SOPE  H13S18034  -0.494   0.546   8.977  0.1579  0.7165  0.0962
  161SOPE  C21418035  -0.467   0.574   8.770 -0.1294  0.0513  0.0775
  161SOPE  H14R18036  -0.359   0.565   8.796 -0.4484 -3.4130  0.4658
  161SOPE  H14S18037  -0.481   0.659   8.700  1.4162  0.3549  0.1077
  161SOPE  C21518038  -0.509   0.436   8.709  0.3621 -0.3422 -0.6693
  161SOPE  H15R18039  -0.614   0.457   8.678 -0.1453 -0.4794  0.9437
  161SOPE  H15S18040  -0.512   0.353   8.782  1.7199  0.3990  0.2429
  161SOPE  C21618041  -0.424   0.387   8.584 -0.5949 -0.4542 -0.5661
  161SOPE  H16R18042  -0.447   0.280   8.569 -1.3760 -0.2849 -0.5859
  161SOPE  H16S18043  -0.318   0.399   8.618 -1.3891  1.3261  1.4209
  161SOPE  C21718044  -0.440   0.482   8.462  0.4253  0.4149  0.8172
  161SOPE  H17R18045  -0.428   0.586   8.499  1.9366  0.5757 -0.0845
  161SOPE  H17S18046  -0.545   0.473   8.427  1.1101  2.5121 -1.9525
  161SOPE  C21818047  -0.349   0.465   8.344 -0.2573  0.3635 -0.9471
  161SOPE  H18R18048  -0.360   0.362   8.304  2.7560 -0.4211  0.0944
  161SOPE  H18S18049  -0.242   0.490   8.363 -0.8326  0.3446  2.6883
  161SOPE  H18T18050  -0.388   0.535   8.267  0.6274  0.7552 -1.0458
  161SOPE   C3318051  -0.385   0.398   9.835  0.1255  0.2495  0.4891
  161SOPE   H3X18052  -0.327   0.308   9.861 -1.1013 -0.8283 -0.4745
  161SOPE   H3Y18053  -0.327   0.493   9.835  0.8970 -0.2057 -1.5030
  161SOPE   C3418054  -0.447   0.377   9.692 -0.5939 -0.8864 -0.5196
  161SOPE   H4X18055  -0.481   0.478   9.660  1.7931 -0.0689 -0.5732
  161SOPE   H4Y18056  -0.537   0.312   9.700 -1.2020 -0.2124 -1.8083
  161SOPE   C3518057  -0.362   0.311   9.589 -0.0504 -0.4001  0.0277
  161SOPE   H5X18058  -0.279   0.384   9.580 -0.1521  0.0266  2.3990
  161SOPE   H5Y18059  -0.421   0.311   9.495 -0.1611 -3.9289  0.0083
  161SOPE   C3618060  -0.316   0.173   9.621  0.6782  0.2155 -0.3023
  161SOPE   H6X18061  -0.398   0.099   9.623 -1.3032  2.3731  0.3183
  161SOPE   H6Y18062  -0.282   0.177   9.727 -0.2659 -4.1780  0.2345
  161SOPE   C3718063  -0.199   0.126   9.534 -0.4196  0.1745  0.0556
  161SOPE   H7X18064  -0.164   0.029   9.574 -0.4257 -0.2727 -0.9932
  161SOPE   H7Y18065  -0.113   0.194   9.555  0.4776 -1.0962  0.5511
  161SOPE   C3818066  -0.232   0.120   9.378 -0.2752  0.4712 -0.6397
  161SOPE   H8X18067  -0.241   0.220   9.332 -0.5564  0.5248 -0.4696
  161SOPE   H8Y18068  -0.327   0.066   9.358  0.1842  0.0651 -1.7697
  161SOPE   C3918069  -0.125   0.044   9.295 -0.0287  0.3744 -0.3529
  161SOPE   H9X18070  -0.123  -0.060   9.333  0.5718  0.8699  1.0171
  161SOPE   H9Y18071  -0.022   0.081   9.313  0.6159  0.6025 -4.2821
  161SOPE  C31018072  -0.153   0.048   9.144  0.2443 -0.3474 -0.4801
  161SOPE  H10X18073  -0.177   0.153   9.120 -1.1402 -0.8970 -1.5316
  161SOPE  H10Y18074  -0.246  -0.012   9.139 -1.3846  2.2436 -1.9509
  161SOPE  C31118075  -0.038   0.005   9.051 -0.1342 -0.4237  0.2067
  161SOPE  H11X18076  -0.019  -0.103   9.069 -1.9302 -0.3001  3.3549
  161SOPE  H11Y18077   0.051   0.068   9.070 -1.2017  1.2664 -0.3580
  161SOPE  C31218078  -0.065   0.023   8.907 -0.7606 -0.5225  0.3936
  161SOPE  H12X18079   0.007  -0.022   8.835 -3.4607 -0.6165 -2.4006
  161SOPE  H12Y18080  -0.072   0.132   8.883 -4.0523 -0.4697  1.3185
  161SOPE  C31318081  -0.209  -0.024   8.864  0.1061 -0.0059 -0.5016
  161SOPE  H13X18082  -0.278   0.023   8.938  0.9926  0.4685  0.0463
  161SOPE  H13Y18083  -0.208  -0.133   8.884  1.9288  0.0504 -0.1433
  161SOPE  C31418084  -0.253   0.015   8.721  0.4018  0.1696 -0.1196
  161SOPE  H14X18085  -0.179  -0.032   8.652 -1.5652 -1.5700 -1.1215
  161SOPE  H14Y18086  -0.242   0.124   8.705 -0.1386  0.3214  0.5473
  161SOPE  C31518087  -0.397  -0.027   8.692 -0.1820  0.5330  0.2989
  161SOPE  H15X18088  -0.431   0.008   8.593  0.0160  0.8281  0.3357
  161SOPE  H15Y18089  -0.464   0.016   8.770 -0.2014  1.1990 -0.0853
  161SOPE  C31618090  -0.401  -0.178   8.689  0.2747  0.2843 -0.5430
  161SOPE  H16X18091  -0.400  -0.218   8.793 -1.3550  0.6506 -0.3738
  161SOPE  H16Y18092  -0.302  -0.212   8.654  0.3778  0.0173  0.0055
  161SOPE  C31718093  -0.513  -0.248   8.613 -0.5703 -0.0034 -0.0887
  161SOPE  H17X18094  -0.489  -0.356   8.600 -2.7243 -0.4329 -0.7098
  161SOPE  H17Y18095  -0.528  -0.197   8.516  0.5973 -2.5622 -1.6596
  161SOPE  C31818096  -0.641  -0.245   8.701  0.3044  0.3064  0.0420
  161SOPE  H18X18097  -0.719  -0.310   8.656  0.5619  0.2107 -0.2742
  161SOPE  H18Y18098  -0.694  -0.152   8.728 -1.5884 -1.1416  1.4501
  161SOPE  H18Z18099  -0.598  -0.288   8.794 -0.1066 -2.0212 -0.7830
  162SOPE     N18100   5.012   0.260  10.999 -0.3344  0.6704 -0.4004
  162SOPE   HN118101   5.041   0.197  11.076  0.8474  1.4489 -0.2058
  162SOPE   HN218102   5.066   0.224  10.918 -1.4665 -0.5913 -0.6048
  162SOPE   HN318103   5.047   0.353  11.028  0.9410 -1.0492  3.9184
  162SOPE   C1218104   4.864   0.273  10.987 -0.3064 -0.4891 -0.3406
  162SOPE  H12A18105   4.822   0.261  11.089 -0.2473 -1.0967 -0.3837
  162SOPE  H12B18106   4.823   0.186  10.930  0.1544 -0.7665 -0.2568
  162SOPE   C1118107   4.820   0.419  10.934  0.6031  0.2888  0.7969
  162SOPE  H11A18108   4.709   0.422  10.933  0.6161  1.0490 -1.5641
  162SOPE  H11B18109   4.866   0.427  10.833 -0.6490  2.6827  0.3865
  162SOPE     P18110   5.002   0.602  11.024  0.1877 -0.0261 -0.1398
  162SOPE   O1318111   5.110   0.497  11.028 -0.0288  0.1225  0.2263
  162SOPE   O1418112   4.999   0.698  11.137  0.1267 -0.2441  0.4519
  162SOPE   O1218113   4.862   0.522  11.023  0.4199  0.3267  0.7534
  162SOPE   O1118114   4.998   0.672  10.886  0.4068  0.0649  0.4256
  162SOPE    C118115   4.887   0.734  10.829 -0.1296  0.3022  0.4156
  162SOPE    HA18116   4.901   0.840  10.862 -0.5532  0.0648  1.3927
  162SOPE    HB18117   4.791   0.694  10.868  0.0701  0.9548  1.6003
  162SOPE    C218118   4.894   0.712  10.676  0.5761 -0.5331  0.0297
  162SOPE    HS18119   4.899   0.601  10.667  0.6556 -0.3878 -2.0031
  162SOPE   O2118120   5.016   0.777  10.628 -0.2642  0.4775  0.0735
  162SOPE   C2118121   5.073   0.730  10.526 -0.2371 -0.0327  0.6608
  162SOPE   O2218122   5.060   0.619  10.479  0.2589 -0.1258 -0.3770
  162SOPE   C2218123   5.172   0.850  10.478  0.3442  0.1044 -1.0157
  162SOPE   H2R18124   5.274   0.809  10.492 -0.9875 -2.1989  2.6834
  162SOPE   H2S18125   5.158   0.943  10.538 -1.8660 -0.1964 -1.0419
  162SOPE    C318126   4.768   0.747  10.592  0.1640  0.2329 -0.0139
  162SOPE    HX18127   4.749   0.855  10.611  0.9956  0.2380  0.8084
  162SOPE    HY18128   4.677   0.698  10.633 -1.1173  0.7700 -2.1097
  162SOPE   O3118129   4.787   0.735  10.451 -0.2407  0.3662 -0.4152
  162SOPE   C3118130   4.763   0.606  10.406  0.4235 -0.2878  0.4245
  162SOPE   O3218131   4.739   0.512  10.477  0.0555 -0.4753  0.0596
  162SOPE   C3218132   4.784   0.590  10.253 -0.0468 -0.5683 -0.4003
  162SOPE   H2X18133   4.798   0.692  10.212 -3.9771 -0.1192 -0.8756
  162SOPE   H2Y18134   4.681   0.574  10.212 -1.0676 -0.8665  2.1982
  162SOPE   C2318135   5.135   0.869  10.324  0.0797 -0.3197 -0.3839
  162SOPE   H3R18136   5.133   0.980  10.309  1.2335  0.1564  2.6271
  162SOPE   H3S18137   5.028   0.841  10.311  0.3266 -1.4131 -0.0893
  162SOPE   C2418138   5.229   0.790  10.226  0.7695  0.0634 -0.0908
  162SOPE   H4R18139   5.334   0.823  10.243  0.6728  0.8436 -1.0169
  162SOPE   H4S18140   5.208   0.685  10.259  0.4208 -0.2485 -1.3018
  162SOPE   C2518141   5.188   0.815  10.080  0.0029 -0.1290  0.9441
  162SOPE   H5R18142   5.084   0.777  10.067  0.1792  0.0174 -1.0630
  162SOPE   H5S18143   5.202   0.924  10.062 -1.8358  0.0577  0.5723
  162SOPE   C2618144   5.281   0.735   9.989  0.8002  0.7332 -0.2357
  162SOPE   H6R18145   5.388   0.731  10.018  1.1580 -2.0010 -1.7799
  162SOPE   H6S18146   5.242   0.633  10.008  1.6352  0.3397 -0.6094
  162SOPE   C2718147   5.273   0.754   9.833  0.3860 -0.3020  0.4557
  162SOPE   H7R18148   5.303   0.662   9.778 -1.3368 -1.1092  0.8417
  162SOPE   H7S18149   5.165   0.774   9.813  0.3344  0.2280  1.2477
  162SOPE   C2818150   5.356   0.865   9.776 -0.6826 -0.0400 -0.7686
  162SOPE   H8R18151   5.357   0.857   9.665  0.1638 -0.7907 -0.7108
  162SOPE   H8S18152   5.312   0.960   9.814  0.1915  0.2503 -0.4673
  162SOPE   C2918153   5.497   0.872   9.828  0.2421  0.2927  0.3209
  162SOPE   H9118154   5.497   0.923   9.926 -0.2386 -1.1016  1.0675
  162SOPE  C21018155   5.605   0.821   9.764 -0.6340 -0.2737 -0.5139
  162SOPE  H10118156   5.705   0.838   9.807 -1.7413 -0.4778  2.2815
  162SOPE  C21118157   5.590   0.754   9.627 -0.2889 -0.2630 -0.1188
  162SOPE  H11R18158   5.492   0.702   9.618 -0.8603  0.9498 -1.0397
  162SOPE  H11S18159   5.668   0.674   9.630  0.1064  0.1596  0.9681
  162SOPE  C21218160   5.602   0.820   9.491 -0.4277  0.5422 -0.1132
  162SOPE  H12R18161   5.706   0.851   9.468 -0.2081 -0.7142 -0.8526
  162SOPE  H12S18162   5.530   0.902   9.470 -0.4876  0.8009  1.0594
  162SOPE  C21318163   5.565   0.718   9.379  0.1474  0.3427  0.2374
  162SOPE  H13R18164   5.482   0.647   9.398  0.1940 -0.5160 -2.4933
  162SOPE  H13S18165   5.656   0.659   9.354 -0.1116  0.1069 -0.1614
  162SOPE  C21418166   5.538   0.796   9.246 -0.0209 -0.0488 -0.2270
  162SOPE  H14R18167   5.620   0.870   9.233 -0.0651  0.2875  1.2780
  162SOPE  H14S18168   5.438   0.843   9.246  0.5158  1.1420  0.8871
  162SOPE  C21518169   5.555   0.700   9.124 -0.6574  0.1414 -0.2000
  162SOPE  H15R18170   5.501   0.604   9.141  2.7718 -1.5210  1.6603
  162SOPE  H15S18171   5.663   0.680   9.107  0.0175  0.9943  2.7863
  162SOPE  C21618172   5.510   0.766   8.994  0.7195 -0.6629  0.0656
  162SOPE  H16R18173   5.549   0.870   8.982  0.7750 -0.6459  0.3814
  162SOPE  H16S18174   5.400   0.784   8.996  0.7094 -0.8096  1.9729
  162SOPE  C21718175   5.560   0.701   8.869 -0.9497  0.1345 -0.4729
  162SOPE  H17R18176   5.633   0.622   8.898 -1.1409 -0.6850 -2.1599
  162SOPE  H17S18177   5.621   0.782   8.823  0.1667  0.3902  1.3665
  162SOPE  C21818178   5.452   0.650   8.774  0.4470  0.1999  0.3507
  162SOPE  H18R18179   5.505   0.589   8.698 -0.2141  1.2441 -0.9624
  162SOPE  H18S18180   5.391   0.735   8.737  1.6304 -0.3749 -3.0999
  162SOPE  H18T18181   5.392   0.578   8.834  1.1877 -2.3225 -1.8176
  162SOPE   C3318182   4.868   0.481  10.188 -0.2967 -0.5213  0.3673
  162SOPE   H3X18183   4.833   0.377  10.203  0.8801 -0.6232  2.6250
  162SOPE   H3Y18184   4.975   0.470  10.218  0.4706  2.0735 -1.2887
  162SOPE   C3418185   4.898   0.515  10.035  0.4552  0.1849  0.8882
  162SOPE   H4X18186   4.963   0.439   9.986 -0.3135  0.5956 -0.8219
  162SOPE   H4Y18187   4.945   0.615  10.027  0.5250  0.1827  1.2933
  162SOPE   C3518188   4.765   0.508   9.950  0.7575  0.3948  0.4927
  162SOPE   H5X18189   4.674   0.561   9.986  1.4572  1.5096  0.6292
  162SOPE   H5Y18190   4.727   0.405   9.935 -0.5816  0.8820  0.4565
  162SOPE   C3618191   4.792   0.570   9.817 -0.9411 -0.5019  0.0523
  162SOPE   H6X18192   4.896   0.544   9.785 -0.3978  0.1545  1.2491
  162SOPE   H6Y18193   4.783   0.679   9.802 -2.1711 -0.9085 -2.5312
  162SOPE   C3718194   4.687   0.518   9.711 -0.3551  0.3756 -0.4625
  162SOPE   H7X18195   4.580   0.526   9.738 -0.3868 -1.7192  0.1694
  162SOPE   H7Y18196   4.711   0.409   9.706  1.7215  0.8648 -1.9173
  162SOPE   C3818197   4.712   0.580   9.573  0.0147  0.6638  0.3181
  162SOPE   H8X18198   4.820   0.589   9.545  0.1528  1.1452  0.9880
  162SOPE   H8Y18199   4.671   0.683   9.571 -0.1043  0.6044 -0.4207
  162SOPE   C3918200   4.643   0.489   9.465  0.4380  0.4657 -0.3208
  162SOPE   H9X18201   4.533   0.505   9.473  0.1509 -0.9258 -1.4071
  162SOPE   H9Y18202   4.670   0.383   9.479 -0.8413  0.2093  0.3919
  162SOPE  C31018203   4.679   0.547   9.331 -0.5497  0.1991 -0.0344
  162SOPE  H10X18204   4.790   0.554   9.322 -0.4866 -0.8123 -0.0562
  162SOPE  H10Y18205   4.632   0.648   9.338 -0.8270  0.0703 -0.0310
  162SOPE  C31118206   4.619   0.469   9.210 -0.0385 -0.2926  0.2582
  162SOPE  H11X18207   4.511   0.493   9.197 -0.1587 -0.9883 -0.0569
  162SOPE  H11Y18208   4.626   0.359   9.227 -0.2996 -0.1393  1.4225
  162SOPE  C31218209   4.681   0.528   9.080 -0.8337  0.1658 -0.3463
  162SOPE  H12X18210   4.785   0.529   9.118 -0.0003 -0.3950 -2.5255
  162SOPE  H12Y18211   4.651   0.633   9.061  1.1893  0.9601  0.6776
  162SOPE  C31318212   4.653   0.435   8.966 -0.2054  0.6675  0.2990
  162SOPE  H13X18213   4.548   0.398   8.963  0.8101 -2.2913 -1.2561
  162SOPE  H13Y18214   4.709   0.339   8.964  1.6980  1.7969 -1.1831
  162SOPE  C31418215   4.675   0.513   8.831  0.4434  0.3353  0.3721
  162SOPE  H14X18216   4.689   0.436   8.752  0.8866  0.3230  0.4596
  162SOPE  H14Y18217   4.774   0.558   8.857 -0.2515  1.9647  0.2562
  162SOPE  C31518218   4.555   0.599   8.786 -0.4282  0.3350  1.0421
  162SOPE  H15X18219   4.542   0.691   8.846  2.8067  0.4898  1.5957
  162SOPE  H15Y18220   4.463   0.536   8.786 -0.4669  0.3660  2.4848
  162SOPE  C31618221   4.577   0.648   8.646  0.4784 -0.3429  0.3077
  162SOPE  H16X18222   4.559   0.560   8.581  1.7275 -1.2706  1.1988
  162SOPE  H16Y18223   4.680   0.688   8.640  1.0444 -1.5026  1.9735
  162SOPE  C31718224   4.475   0.755   8.594  0.2803  0.3365  0.6139
  162SOPE  H17X18225   4.372   0.716   8.607 -0.2377  1.3906 -0.3018
  162SOPE  H17Y18226   4.490   0.759   8.484 -0.2136 -1.4421  0.4698
  162SOPE  C31818227   4.501   0.886   8.657  0.1064 -0.3999 -0.1161
  162SOPE  H18X18228   4.453   0.967   8.597  1.3136  0.9420  0.6855
  162SOPE  H18Y18229   4.609   0.908   8.665  0.1055 -1.1529  2.3493
  162SOPE  H18Z18230   4.458   0.901   8.758 -0.1342 -3.5952  0.2837
  163SOPE     N18231   4.656   5.051  11.109  0.2271 -0.9492  0.2012
  163SOPE   HN118232   4.585   5.096  11.171  2.9696  1.0637  2.0170
  163SOPE   HN218233   4.617   5.008  11.023 -0.1608  2.5249 -1.4400
  163SOPE   HN318234   4.700   4.974  11.163 -0.5302 -1.5788 -0.0637
  163SOPE   C1218235   4.773   5.134  11.071 -0.4409  0.0046  0.9761
  163SOPE  H12A18236   4.802   5.204  11.152  2.8855 -0.6235  0.4118
  163SOPE  H12B18237   4.740   5.198  10.986  0.1283  0.5521  1.1704
  163SOPE   C1118238   4.882   5.039  11.018 -0.2932 -0.0910  0.5621
  163SOPE  H11A18239   4.948   5.005  11.100  2.2857 -0.1299 -1.4857
  163SOPE  H11B18240   4.948   5.095  10.949 -1.6738 -0.2611 -0.9397
  163SOPE     P18241   4.887   4.821  10.860 -0.0219  0.1199  0.2664
  163SOPE   O1318242   4.819   4.854  10.735 -0.1435  0.3465  0.5051
  163SOPE   O1418243   4.872   4.679  10.903 -0.2135 -0.0528  0.2804
  163SOPE   O1218244   4.828   4.917  10.965  0.5947 -0.1948  0.3381
  163SOPE   O1118245   5.038   4.857  10.852  0.3619  0.1118  0.3416
  163SOPE    C118246   5.129   4.761  10.797  0.2345 -0.8071  0.1247
  163SOPE    HA18247   5.100   4.657  10.825  2.2847 -1.5637 -0.4577
  163SOPE    HB18248   5.230   4.786  10.835  0.1459  1.7856 -1.2564
  163SOPE    C218249   5.157   4.775  10.643  0.3681  0.5431  0.0710
  163SOPE    HS18250   5.160   4.885  10.629 -1.1401  0.6773  0.7371
  163SOPE   O2118251   5.039   4.717  10.577  0.0518  0.0638 -0.1886
  163SOPE   C2118252   5.001   4.783  10.471 -0.2119 -0.0097 -0.5420
  163SOPE   O2218253   5.038   4.892  10.438  0.2781 -0.0213  0.3221
  163SOPE   C2218254   4.888   4.712  10.402  0.0395  0.3757  0.0115
  163SOPE   H2R18255   4.792   4.749  10.445  0.2340  1.2629 -0.3272
  163SOPE   H2S18256   4.912   4.603  10.407  0.1736  0.3794 -0.6136
  163SOPE    C318257   5.289   4.709  10.591 -0.1502  0.0601  0.7181
  163SOPE    HX18258   5.291   4.600  10.615  0.2210 -0.1652 -0.3028
  163SOPE    HY18259   5.373   4.761  10.642 -0.5348  0.6047  0.7940
  163SOPE   O3118260   5.295   4.709  10.442 -0.1064 -0.0477  0.2730
  163SOPE   C3118261   5.347   4.831  10.399 -0.7167  0.1226  0.4401
  163SOPE   O3218262   5.377   4.922  10.471  0.5551  0.5746  0.5532
  163SOPE   C3218263   5.357   4.824  10.245  0.8555  0.2525  0.8564
  163SOPE   H2X18264   5.257   4.835  10.198  1.5627  1.1073 -0.5043
  163SOPE   H2Y18265   5.384   4.720  10.215  1.7521  0.6365  0.2921
  163SOPE   C2318266   4.899   4.752  10.251  0.1484  0.3728  0.8754
  163SOPE   H3R18267   4.903   4.862  10.233  1.2644  0.2201  0.0742
  163SOPE   H3S18268   4.810   4.721  10.192  0.2250 -1.4999  1.7073
  163SOPE   C2418269   5.018   4.679  10.176  0.0511 -1.0019  0.2830
  163SOPE   H4R18270   5.114   4.694  10.230  0.3086 -1.4647 -0.0462
  163SOPE   H4S18271   4.994   4.574  10.204  0.4879 -1.0067  0.6508
  163SOPE   C2518272   5.035   4.707  10.022  0.2195  0.2400  0.1164
  163SOPE   H5R18273   5.088   4.800   9.991 -1.4365  0.5024 -2.0243
  163SOPE   H5S18274   5.104   4.626   9.990  0.6695  0.2023  1.1723
  163SOPE   C2618275   4.917   4.686   9.929 -0.2192  0.0566 -0.7999
  163SOPE   H6R18276   4.846   4.606   9.962 -1.2037  1.1016 -0.3623
  163SOPE   H6S18277   4.854   4.777   9.935  2.2576  1.8806 -1.7057
  163SOPE   C2718278   4.961   4.679   9.781 -0.4899 -0.9328  0.7385
  163SOPE   H7R18279   5.039   4.755   9.763 -3.4168  1.5735 -1.9125
  163SOPE   H7S18280   5.011   4.581   9.765 -2.9719 -1.9868 -0.8617
  163SOPE   C2818281   4.848   4.698   9.672  1.1054  0.0254 -0.0129
  163SOPE   H8R18282   4.768   4.632   9.713  0.7577  0.7681  0.5207
  163SOPE   H8S18283   4.812   4.802   9.688  1.7242 -0.0810  2.3029
  163SOPE   C2918284   4.866   4.642   9.530 -0.1159 -0.4320  0.4090
  163SOPE   H9118285   4.822   4.544   9.507  2.7065 -1.5649 -0.3819
  163SOPE  C21018286   4.920   4.711   9.434  0.8411  1.0645  0.0501
  163SOPE  H10118287   4.924   4.661   9.336  0.9968 -0.7771  0.9752
  163SOPE  C21118288   4.970   4.858   9.444  0.0914 -0.2516  0.2448
  163SOPE  H11R18289   5.073   4.856   9.485  0.6740 -0.2167 -1.1751
  163SOPE  H11S18290   4.924   4.918   9.525  0.9892  2.3479 -1.1027
  163SOPE  C21218291   4.953   4.936   9.314  0.7894 -0.1759  0.4409
  163SOPE  H12R18292   5.000   4.886   9.226  0.6390 -0.8333  0.7301
  163SOPE  H12S18293   5.008   5.031   9.328  1.0038 -0.2607  0.1774
  163SOPE  C21318294   4.809   4.967   9.274 -0.1363  0.1860 -0.0689
  163SOPE  H13R18295   4.756   5.016   9.358 -0.7046 -2.9181  1.4707
  163SOPE  H13S18296   4.752   4.878   9.238  1.5627 -0.7223 -0.5805
  163SOPE  C21418297   4.805   5.076   9.160  0.9261  0.2066 -0.1955
  163SOPE  H14R18298   4.868   5.036   9.078 -0.8655  1.7715 -2.3894
  163SOPE  H14S18299   4.866   5.160   9.200  1.2655  0.3196 -0.9426
  163SOPE  C21518300   4.666   5.129   9.127 -0.1035 -0.1447  0.1381
  163SOPE  H15R18301   4.645   5.202   9.207 -1.2940 -0.0352 -0.2676
  163SOPE  H15S18302   4.589   5.050   9.142  1.4134 -1.4268  1.3548
  163SOPE  C21618303   4.641   5.201   9.000  0.4019  0.1301  0.0278
  163SOPE  H16R18304   4.739   5.248   8.973  1.0693 -1.7161 -0.8599
  163SOPE  H16S18305   4.570   5.286   9.008  0.7450  0.2611  1.8763
  163SOPE  C21718306   4.594   5.112   8.884 -0.2909  0.0689  0.6492
  163SOPE  H17R18307   4.580   5.179   8.796 -1.8999  1.2317  1.7683
  163SOPE  H17S18308   4.497   5.062   8.905 -2.0707  2.6987 -1.0639
  163SOPE  C21818309   4.695   5.001   8.859  0.2848 -0.1974  0.5371
  163SOPE  H18R18310   4.663   4.944   8.770 -0.8410 -1.5169  1.7570
  163SOPE  H18S18311   4.691   4.926   8.942 -1.8667  0.3548  0.9626
  163SOPE  H18T18312   4.798   5.043   8.858 -1.5249  5.0211  5.7722
  163SOPE   C3318313   5.444   4.926  10.185  0.2635 -0.4075 -0.3298
  163SOPE   H3X18314   5.549   4.897  10.209  0.5220 -0.4580 -1.4531
  163SOPE   H3Y18315   5.418   5.027  10.224 -0.1821 -0.4242 -0.5797
  163SOPE   C3418316   5.426   4.946  10.040  0.1702  0.2528  0.5635
  163SOPE   H4X18317   5.507   5.013  10.004  1.0456 -1.3200 -0.4552
  163SOPE   H4Y18318   5.329   4.996  10.016 -0.0562 -0.6534 -0.4919
  163SOPE   C3518319   5.440   4.821   9.960  0.0763 -0.7334  0.1429
  163SOPE   H5X18320   5.373   4.743  10.002  2.7381 -3.8278 -1.1750
  163SOPE   H5Y18321   5.545   4.786   9.963  0.3947  0.1965 -0.0245
  163SOPE   C3618322   5.392   4.831   9.815  0.2230 -0.0498  0.0116
  163SOPE   H6X18323   5.441   4.916   9.763 -0.4088  1.5134  1.9265
  163SOPE   H6Y18324   5.283   4.852   9.820 -0.0141 -1.4470  0.9367
  163SOPE   C3718325   5.399   4.700   9.737 -0.1153  0.8491  0.3167
  163SOPE   H7X18326   5.349   4.617   9.792  0.6739 -0.0243 -0.2482
  163SOPE   H7Y18327   5.505   4.665   9.737 -0.0117  1.0211 -2.7406
  163SOPE   C3818328   5.347   4.712   9.596  0.6155  0.1834  0.3598
  163SOPE   H8X18329   5.422   4.773   9.541  0.0610  0.9118  0.4037
  163SOPE   H8Y18330   5.247   4.758   9.581  0.9135  0.1185 -1.9144
  163SOPE   C3918331   5.343   4.567   9.541  0.3464 -0.5032  0.2805
  163SOPE   H9X18332   5.262   4.517   9.598 -0.3850 -0.3584 -0.6297
  163SOPE   H9Y18333   5.436   4.508   9.557 -0.7633 -2.9839 -2.0700
  163SOPE  C31018334   5.307   4.554   9.394 -0.6769 -0.2704 -0.4893
  163SOPE  H10X18335   5.398   4.560   9.331 -0.7602 -0.2919 -0.6110
  163SOPE  H10Y18336   5.240   4.638   9.368  0.6928  0.7288 -0.8317
  163SOPE  C31118337   5.252   4.415   9.339  0.1118 -0.0085 -0.3303
  163SOPE  H11X18338   5.159   4.407   9.400  0.3795 -0.5201  0.0126
  163SOPE  H11Y18339   5.324   4.345   9.385  0.4331  0.8113  0.4369
  163SOPE  C31218340   5.242   4.402   9.190  0.5139  0.1131  0.5123
  163SOPE  H12X18341   5.336   4.440   9.147 -0.1956  0.0459 -1.1238
  163SOPE  H12Y18342   5.168   4.477   9.155  0.7056 -1.0503 -2.5204
  163SOPE  C31318343   5.197   4.264   9.126 -0.0631  0.1217  0.2235
  163SOPE  H13X18344   5.103   4.231   9.175  0.0878 -1.1164 -0.2964
  163SOPE  H13Y18345   5.268   4.189   9.166 -0.1742  0.7853  1.7121
  163SOPE  C31418346   5.172   4.252   8.976  0.0445 -0.3345  0.4878
  163SOPE  H14X18347   5.260   4.290   8.920 -0.5907 -0.0632 -0.3295
  163SOPE  H14Y18348   5.092   4.329   8.969  0.8501  0.3598 -1.4338
  163SOPE  C31518349   5.135   4.113   8.930  0.6016  0.4941  0.4155
  163SOPE  H15X18350   5.036   4.088   8.974  0.2397  0.7111 -0.2705
  163SOPE  H15Y18351   5.206   4.039   8.972  1.1261  1.5585  1.4336
  163SOPE  C31618352   5.130   4.093   8.774  0.3739 -0.1637  0.3372
  163SOPE  H16X18353   5.128   3.987   8.743  1.1611  0.1955 -0.9912
  163SOPE  H16Y18354   5.225   4.134   8.732  0.1344  1.2690  1.1523
  163SOPE  C31718355   5.009   4.169   8.717 -0.2718  1.0690  0.1860
  163SOPE  H17X18356   5.025   4.278   8.735 -0.6019  1.2220 -0.4299
  163SOPE  H17Y18357   4.917   4.127   8.762  0.9634 -2.0235 -0.0274
  163SOPE  C31818358   4.992   4.143   8.563  0.2429 -0.6524  0.6423
  163SOPE  H18X18359   4.892   4.176   8.527  0.6103  0.4318  0.6057
  163SOPE  H18Y18360   4.985   4.033   8.553  1.7630 -0.6423 -0.8809
  163SOPE  H18Z18361   5.076   4.190   8.507 -1.8006  2.3608 -0.0529
  164SOPE     N18362   2.055   2.959  10.968  0.6014  0.6075 -0.0688
  164SOPE   HN118363   2.008   2.950  10.876 -0.9456 -1.3603  0.8556
  164SOPE   HN218364   2.147   2.911  10.969  0.6869  0.7770  0.5245
  164SOPE   HN318365   2.000   2.893  11.027  1.5294 -0.6609 -0.5947
  164SOPE   C1218366   2.043   3.105  11.016  0.2748  0.3260  0.5232
  164SOPE  H12A18367   2.121   3.165  10.965 -0.8653  4.0180  2.8992
  164SOPE  H12B18368   2.071   3.098  11.124  0.8851 -1.3384  0.2830
  164SOPE   C1118369   1.905   3.161  11.000 -0.0838  0.0452  0.7045
  164SOPE  H11A18370   1.900   3.251  11.065 -0.2055  0.8835 -0.4543
  164SOPE  H11B18371   1.827   3.093  11.041  1.1053 -2.8195 -1.6007
  164SOPE     P18372   1.919   3.310  10.793  0.2004  0.2429 -0.1817
  164SOPE   O1318373   2.066   3.304  10.789  0.4320  0.7429  0.2642
  164SOPE   O1418374   1.860   3.426  10.860 -0.3064 -0.8912  0.2854
  164SOPE   O1218375   1.859   3.187  10.870  0.2328  0.4504  0.1225
  164SOPE   O1118376   1.857   3.287  10.646 -0.2308 -0.5218 -0.3241
  164SOPE    C118377   1.849   3.152  10.598  0.8752  0.0107  0.3421
  164SOPE    HA18378   1.758   3.104  10.641 -0.6147  1.6291 -0.9666
  164SOPE    HB18379   1.930   3.084  10.634  2.5370  1.2033 -1.0575
  164SOPE    C218380   1.858   3.152  10.435  0.1137  0.3368 -0.0715
  164SOPE    HS18381   1.877   3.048  10.400  0.2448  0.4561 -0.3577
  164SOPE   O2118382   1.963   3.239  10.389 -0.1111 -0.4455  0.4037
  164SOPE   C2118383   2.079   3.195  10.411 -0.3173 -0.2011 -0.1698
  164SOPE   O2218384   2.116   3.080  10.437  0.9956 -0.3199  0.2401
  164SOPE   C2218385   2.173   3.319  10.423 -0.0198 -0.2202  0.0562
  164SOPE   H2R18386   2.147   3.372  10.517  0.2874  1.6610 -0.8887
  164SOPE   H2S18387   2.141   3.388  10.342 -0.4087  3.8599  3.4953
  164SOPE    C318388   1.727   3.215  10.379 -0.3801 -0.2030 -0.1218
  164SOPE    HX18389   1.719   3.321  10.410  1.1717  0.7525 -2.7580
  164SOPE    HY18390   1.632   3.172  10.416 -0.0973 -0.1136  0.7265
  164SOPE   O3118391   1.718   3.220  10.235  0.6655  0.0549  0.1411
  164SOPE   C3118392   1.709   3.104  10.173  0.1577  0.3962  0.0457
  164SOPE   O3218393   1.675   2.996  10.222 -0.1358  0.3608  0.4130
  164SOPE   C3218394   1.711   3.149  10.030 -0.3275 -0.0591  0.3570
  164SOPE   H2X18395   1.629   3.224  10.020 -1.7437 -1.5388  0.6810
  164SOPE   H2Y18396   1.684   3.060   9.969 -0.4483  0.5839 -0.5322
  164SOPE   C2318397   2.327   3.290  10.409 -0.5218  0.2258  0.3695
  164SOPE   H3R18398   2.358   3.223  10.492  1.3014 -0.2797 -0.6896
  164SOPE   H3S18399   2.379   3.388  10.415 -0.9883  0.4001  1.6179
  164SOPE   C2418400   2.376   3.233  10.281 -0.4410 -0.1288 -0.0608
  164SOPE   H4R18401   2.478   3.195  10.302 -0.0674  0.3248 -1.0233
  164SOPE   H4S18402   2.318   3.142  10.252  3.5649 -2.5608 -0.8981
  164SOPE   C2518403   2.378   3.329  10.166 -0.0931 -0.4361  0.3177
  164SOPE   H5R18404   2.282   3.384  10.156  2.5135  4.2851 -0.2152
  164SOPE   H5S18405   2.458   3.405  10.179 -0.0772 -0.1761 -1.2449
  164SOPE   C2618406   2.388   3.258  10.029  0.8417  0.3176  0.1857
  164SOPE   H6R18407   2.468   3.182  10.011  0.9468  0.0852  1.6298
  164SOPE   H6S18408   2.294   3.203  10.010  2.3099 -2.2495  0.1616
  164SOPE   C2718409   2.400   3.357   9.915 -0.3552  0.5669 -0.9048
  164SOPE   H7R18410   2.310   3.421   9.930 -0.9816 -0.8515  1.6793
  164SOPE   H7S18411   2.493   3.419   9.916  0.5360 -0.7376  0.6130
  164SOPE   C2818412   2.394   3.288   9.778 -0.2276 -1.0566 -0.1251
  164SOPE   H8R18413   2.478   3.219   9.755  0.4492  0.1302 -1.2714
  164SOPE   H8S18414   2.295   3.237   9.780  0.4310 -2.3373  0.5729
  164SOPE   C2918415   2.402   3.401   9.677  0.2605  0.3191 -0.2556
  164SOPE   H9118416   2.441   3.492   9.724 -2.3226  0.7127  1.1837
  164SOPE  C21018417   2.379   3.395   9.544  0.2215  0.1098 -0.4985
  164SOPE  H10118418   2.404   3.483   9.482 -2.9036  2.1237  0.9427
  164SOPE  C21118419   2.327   3.263   9.474 -0.2539  0.2232 -0.2994
  164SOPE  H11R18420   2.223   3.244   9.506 -0.2675 -1.0256 -1.0680
  164SOPE  H11S18421   2.378   3.172   9.513 -1.0839 -1.1550 -2.3698
  164SOPE  C21218422   2.343   3.271   9.317  0.0312  0.3983 -0.1755
  164SOPE  H12R18423   2.305   3.369   9.281 -0.1652  1.0219  1.6809
  164SOPE  H12S18424   2.287   3.186   9.274 -0.7092  0.1897  1.2000
  164SOPE  C21318425   2.485   3.244   9.264 -0.8843 -0.2748 -0.2391
  164SOPE  H13R18426   2.517   3.143   9.297 -2.1422  0.0999  2.2118
  164SOPE  H13S18427   2.551   3.307   9.327 -0.2873  0.1681 -1.2908
  164SOPE  C21418428   2.500   3.279   9.119 -0.3262 -0.0832 -0.2606
  164SOPE  H14R18429   2.523   3.387   9.119  0.3926 -0.2227 -1.7795
  164SOPE  H14S18430   2.418   3.260   9.047  1.7568 -2.8726 -2.0301
  164SOPE  C21518431   2.625   3.213   9.055  0.6517 -0.4600  0.3709
  164SOPE  H15R18432   2.602   3.107   9.032  0.4938 -0.0924 -1.2514
  164SOPE  H15S18433   2.717   3.229   9.116 -1.0722  1.4880  2.5351
  164SOPE  C21618434   2.664   3.272   8.919 -0.0399  0.2943 -0.0258
  164SOPE  H16R18435   2.699   3.375   8.941 -0.2865  0.2503  0.5722
  164SOPE  H16S18436   2.577   3.272   8.850  0.4409 -1.4350 -0.6693
  164SOPE  C21718437   2.789   3.206   8.854  0.4408  0.1625  0.0734
  164SOPE  H17R18438   2.792   3.095   8.851 -1.3615  0.1178 -0.4751
  164SOPE  H17S18439   2.874   3.215   8.926  1.7261 -0.4930 -1.3382
  164SOPE  C21818440   2.834   3.277   8.731 -0.7708  0.9245 -0.0714
  164SOPE  H18R18441   2.869   3.381   8.746 -0.9168  0.8340  0.9559
  164SOPE  H18S18442   2.758   3.278   8.650  0.1172 -1.1166 -0.9623
  164SOPE  H18T18443   2.922   3.222   8.691  0.1901  0.9575  1.9143
  164SOPE   C3318444   1.846   3.217   9.997  0.0098  0.3853 -0.2452
  164SOPE   H3X18445   1.890   3.282  10.076 -1.5099 -1.0646  1.8746
  164SOPE   H3Y18446   1.849   3.290   9.913 -0.3216  0.4734 -0.1833
  164SOPE   C3418447   1.947   3.106   9.961 -0.5680 -0.0946  0.1026
  164SOPE   H4X18448   1.943   3.014  10.023  0.4485 -0.1035  0.1709
  164SOPE   H4Y18449   2.050   3.148   9.966 -0.2396 -0.5972 -1.7541
  164SOPE   C3518450   1.926   3.056   9.818 -0.3775 -0.1720 -0.1797
  164SOPE   H5X18451   1.819   3.060   9.789 -0.4995  1.0052  0.3818
  164SOPE   H5Y18452   1.969   2.960   9.782 -0.8967  0.0535 -1.3903
  164SOPE   C3618453   1.993   3.153   9.722  0.5338 -0.3932  0.4326
  164SOPE   H6X18454   2.102   3.133   9.724  0.2760 -1.6857  1.7966
  164SOPE   H6Y18455   1.967   3.258   9.749  1.0933 -0.2535  0.4338
  164SOPE   C3718456   1.958   3.128   9.572 -0.2652  0.4933 -0.0211
  164SOPE   H7X18457   2.029   3.205   9.535 -0.6226  0.4780 -0.7490
  164SOPE   H7Y18458   1.854   3.159   9.546 -1.3354 -2.4348  0.5235
  164SOPE   C3818459   2.005   2.999   9.507 -0.3359  0.5474 -0.0082
  164SOPE   H8X18460   1.952   2.913   9.554  2.3496 -0.9155  0.4532
  164SOPE   H8Y18461   2.110   3.000   9.541 -0.4492 -0.4857  0.4203
  164SOPE   C3918462   2.013   3.006   9.351 -0.0423  0.3246  0.0030
  164SOPE   H9X18463   2.057   3.101   9.313  0.7701 -0.4467 -0.9974
  164SOPE   H9Y18464   1.913   3.001   9.303 -0.1125 -0.4390  0.2341
  164SOPE  C31018465   2.105   2.889   9.298 -0.6274 -0.1319  0.3288
  164SOPE  H10X18466   2.052   2.793   9.312 -2.7944  1.1066  0.8793
  164SOPE  H10Y18467   2.202   2.883   9.350 -0.0866  1.3181 -0.4790
  164SOPE  C31118468   2.155   2.901   9.156 -0.7529 -0.1393 -0.2576
  164SOPE  H11X18469   2.210   2.810   9.125 -0.6522 -0.3284  0.4747
  164SOPE  H11Y18470   2.222   2.989   9.146 -2.1234  0.8892 -0.4912
  164SOPE  C31218471   2.042   2.920   9.046  0.2115 -0.5923 -0.1144
  164SOPE  H12X18472   2.007   3.025   9.041 -2.6011 -1.5319 -1.2673
  164SOPE  H12Y18473   1.954   2.863   9.081 -1.4093 -0.5784 -3.9634
  164SOPE  C31318474   2.084   2.861   8.910 -0.0327  0.1134 -0.0815
  164SOPE  H13X18475   2.183   2.901   8.881  0.4108 -0.8857  0.0466
  164SOPE  H13Y18476   2.006   2.884   8.834  0.3960  1.4646 -0.1215
  164SOPE  C31418477   2.096   2.707   8.893  0.6206 -0.2380  0.1058
  164SOPE  H14X18478   2.007   2.656   8.934 -0.6399  3.6800  2.5087
  164SOPE  H14Y18479   2.181   2.673   8.956  1.6265 -1.8516 -2.0527
  164SOPE  C31518480   2.129   2.651   8.749 -0.1495 -0.2087  0.4945
  164SOPE  H15X18481   2.212   2.717   8.715 -1.8224  2.5885  1.6520
  164SOPE  H15Y18482   2.042   2.663   8.681  0.6023 -0.7967 -0.5822
  164SOPE  C31618483   2.173   2.505   8.752 -0.0609 -0.0520  0.3081
  164SOPE  H16X18484   2.083   2.444   8.777 -1.0036  0.2454 -2.1671
  164SOPE  H16Y18485   2.247   2.485   8.832  0.5503 -0.9960 -0.4913
  164SOPE  C31718486   2.223   2.455   8.620 -0.0382 -0.3343 -0.1944
  164SOPE  H17X18487   2.254   2.351   8.645 -2.3293 -0.9658  0.1507
  164SOPE  H17Y18488   2.311   2.512   8.582 -0.2560  0.1909  0.0807
  164SOPE  C31818489   2.115   2.456   8.508 -0.1159 -0.2383 -0.6378
  164SOPE  H18X18490   2.023   2.399   8.534 -1.1252  1.5537 -0.1163
  164SOPE  H18Y18491   2.149   2.423   8.408 -1.2077 -1.7645 -0.5209
  164SOPE  H18Z18492   2.078   2.560   8.491 -0.1087 -0.5204 -2.4438
  165SOPE     N18493   6.767   3.941  11.007  0.5144  0.3517  0.4701
  165SOPE   HN118494   6.695   4.006  10.969  0.4412 -1.0941 -1.9788
  165SOPE   HN218495   6.729   3.846  11.028 -3.1252  1.4693 -0.6829
  165SOPE   HN318496   6.802   3.972  11.100 -0.5711  0.9412  0.6871
  165SOPE   C1218497   6.866   3.914  10.906 -1.3613 -0.6708 -0.7155
  165SOPE  H12A18498   6.962   3.886  10.955 -1.6456  1.5392  1.1908
  165SOPE  H12B18499   6.884   4.001  10.839 -3.0157  0.4571  0.2892
  165SOPE   C1118500   6.824   3.793  10.822 -0.3225  0.0142 -0.0995
  165SOPE  H11A18501   6.907   3.781  10.749 -0.7522  1.7010 -0.8821
  165SOPE  H11B18502   6.738   3.816  10.756  1.3073  0.6130 -2.0473
  165SOPE     P18503   6.740   3.550  10.816 -0.1984 -0.6901  0.5629
  165SOPE   O1318504   6.596   3.565  10.784 -0.1942 -0.6353  0.0911
  165SOPE   O1418505   6.782   3.422  10.872 -0.7677 -0.0978 -0.7366
  165SOPE   O1218506   6.796   3.674  10.896  0.3981 -0.1875 -0.3843
  165SOPE   O1118507   6.816   3.563  10.686  0.3453  0.3566 -0.6611
  165SOPE    C118508   6.955   3.542  10.669  0.1435 -0.0245 -0.4952
  165SOPE    HA18509   6.981   3.434  10.662  2.0015  0.3112  0.7901
  165SOPE    HB18510   7.017   3.567  10.757  0.4689 -1.1979 -0.3776
  165SOPE    C218511   7.010   3.611  10.550 -0.6074  0.0156  0.4097
  165SOPE    HS18512   6.970   3.715  10.557  1.5646  1.0451 -1.6867
  165SOPE   O2118513   6.974   3.531  10.436  0.4542  0.4905 -0.4763
  165SOPE   C2118514   6.890   3.594  10.350 -1.0700 -0.1512 -0.3662
  165SOPE   O2218515   6.865   3.711  10.351  0.2274  0.3434  0.3616
  165SOPE   C2218516   6.844   3.493  10.243  0.2440 -0.5644 -0.3689
  165SOPE   H2R18517   6.747   3.453  10.278  0.9613  1.1082  3.8235
  165SOPE   H2S18518   6.918   3.410  10.246  0.3746 -0.4211  0.7155
  165SOPE    C318519   7.163   3.619  10.561 -0.0508 -0.3421  0.2812
  165SOPE    HX18520   7.200   3.514  10.560  0.4560 -0.2023  2.0815
  165SOPE    HY18521   7.190   3.658  10.661 -1.4763 -2.3696  1.4962
  165SOPE   O3118522   7.223   3.698  10.457 -0.7310  0.0664 -0.0983
  165SOPE   C3118523   7.360   3.694  10.477 -0.4022 -0.3375  0.2647
  165SOPE   O3218524   7.418   3.652  10.572  0.5926 -0.3844 -0.3648
  165SOPE   C3218525   7.425   3.730  10.341  0.2134  0.3784 -0.2875
  165SOPE   H2X18526   7.532   3.737  10.369 -0.0506 -2.9003  1.8489
  165SOPE   H2Y18527   7.377   3.824  10.307  1.0632  0.6670 -0.6993
  165SOPE   C2318528   6.834   3.543  10.102 -0.9428 -0.4589 -0.6064
  165SOPE   H3R18529   6.937   3.569  10.070 -0.2463  0.7647  2.4676
  165SOPE   H3S18530   6.771   3.634  10.107  1.2886  1.1790 -1.3964
  165SOPE   C2418531   6.776   3.437  10.006 -0.4667  0.0219  0.5697
  165SOPE   H4R18532   6.845   3.350  10.003 -0.0680  0.3850 -2.2797
  165SOPE   H4S18533   6.675   3.408  10.044 -1.3933  1.8701 -0.3795
  165SOPE   C2518534   6.754   3.491   9.865 -0.1064 -0.2603 -0.5146
  165SOPE   H5R18535   6.723   3.597   9.874  0.1807 -0.1943 -0.2842
  165SOPE   H5S18536   6.843   3.495   9.799  0.4366 -0.8965  0.1750
  165SOPE   C2618537   6.646   3.413   9.790 -0.9306 -0.0817  0.0950
  165SOPE   H6R18538   6.667   3.304   9.789 -1.5646 -0.2128  0.8122
  165SOPE   H6S18539   6.549   3.446   9.833 -0.0592 -0.2654  2.2393
  165SOPE   C2718540   6.633   3.469   9.646 -0.4586  0.0156  0.6620
  165SOPE   H7R18541   6.612   3.578   9.658  0.4675  0.2270  0.3674
  165SOPE   H7S18542   6.729   3.460   9.591  1.0774 -0.8278  3.3929
  165SOPE   C2818543   6.507   3.407   9.574  0.6840 -0.3288 -0.1889
  165SOPE   H8R18544   6.427   3.407   9.651 -0.6760 -0.5801 -1.5770
  165SOPE   H8S18545   6.479   3.479   9.495 -2.9402 -2.5617 -1.0196
  165SOPE   C2918546   6.540   3.271   9.517  0.2077 -0.8308  0.1861
  165SOPE   H9118547   6.612   3.220   9.582  0.6485 -3.5101 -2.2932
  165SOPE  C21018548   6.500   3.217   9.396  0.1639  0.0192  0.3295
  165SOPE  H10118549   6.539   3.122   9.356 -1.6379 -0.5577 -0.0868
  165SOPE  C21118550   6.408   3.287   9.297 -0.8735 -0.5702 -0.7174
  165SOPE  H11R18551   6.397   3.396   9.314  0.3217 -0.5834  0.1926
  165SOPE  H11S18552   6.309   3.244   9.324 -1.6222  2.2317  1.2288
  165SOPE  C21218553   6.445   3.272   9.147  0.1421  0.4105 -0.0991
  165SOPE  H12R18554   6.457   3.168   9.111  1.8944 -0.1156  1.9233
  165SOPE  H12S18555   6.532   3.339   9.128 -0.5898  0.9360 -1.6190
  165SOPE  C21318556   6.333   3.334   9.057  0.2349  0.4154  0.0902
  165SOPE  H13R18557   6.317   3.441   9.078 -0.8426  0.5320 -1.2977
  165SOPE  H13S18558   6.234   3.286   9.072  0.1865  0.5105  0.0711
  165SOPE  C21418559   6.370   3.339   8.908 -0.6931  0.1886 -0.2738
  165SOPE  H14R18560   6.412   3.240   8.879  0.5331  0.5977  0.0640
  165SOPE  H14S18561   6.452   3.414   8.903 -0.5886  0.0974  0.0620
  165SOPE  C21518562   6.254   3.373   8.818 -0.0968  0.5168 -0.3783
  165SOPE  H15R18563   6.235   3.481   8.838 -1.0766  0.0396  1.3633
  165SOPE  H15S18564   6.164   3.313   8.840  0.3671 -0.1528 -0.3046
  165SOPE  C21618565   6.306   3.367   8.670  0.5742 -0.3889  0.2703
  165SOPE  H16R18566   6.253   3.288   8.613  0.3619  0.2340 -0.4124
  165SOPE  H16S18567   6.414   3.339   8.670  0.3486 -1.2625  0.5084
  165SOPE  C21718568   6.293   3.498   8.595  1.0576 -0.0447 -0.5206
  165SOPE  H17R18569   6.193   3.537   8.626  1.4424 -0.6225  1.5364
  165SOPE  H17S18570   6.287   3.481   8.485  0.4790  0.3608 -0.5555
  165SOPE  C21818571   6.401   3.606   8.627  0.4919 -0.2810  0.7984
  165SOPE  H18R18572   6.361   3.709   8.614  1.7128  0.2129  0.9293
  165SOPE  H18S18573   6.485   3.585   8.558 -0.1598 -0.7168  0.1281
  165SOPE  H18T18574   6.420   3.584   8.734  0.0419  0.2319  0.9841
  165SOPE   C3318575   7.419   3.621  10.231 -0.5839  0.5841  0.2584
  165SOPE   H3X18576   7.312   3.592  10.223 -0.8245  1.1346  1.4344
  165SOPE   H3Y18577   7.470   3.526  10.260 -0.3597  0.0972 -1.6598
  165SOPE   C3418578   7.477   3.682  10.103  0.3860  0.0002  0.3961
  165SOPE   H4X18579   7.584   3.658  10.084  0.4409  0.0452  0.6443
  165SOPE   H4Y18580   7.468   3.793  10.107 -0.3196  0.1046 -2.7431
  165SOPE   C3518581   7.403   3.634   9.981  0.6511  0.4680  0.0875
  165SOPE   H5X18582   7.294   3.654   9.979 -0.0553 -3.2140 -0.4773
  165SOPE   H5Y18583   7.404   3.523   9.979  0.0153  0.4463  0.6290
  165SOPE   C3618584   7.471   3.674   9.851 -0.6805  0.2366  0.3364
  165SOPE   H6X18585   7.559   3.610   9.829  0.4999  2.2089 -0.7547
  165SOPE   H6Y18586   7.508   3.778   9.854 -1.3838  0.6093 -2.1844
  165SOPE   C3718587   7.378   3.664   9.726  0.4125 -0.4486 -0.4113
  165SOPE   H7X18588   7.299   3.743   9.731 -1.6029 -2.4124 -0.3016
  165SOPE   H7Y18589   7.320   3.569   9.729 -1.0080  0.4290  1.0672
  165SOPE   C3818590   7.458   3.681   9.594 -0.5639  0.3304  0.1389
  165SOPE   H8X18591   7.553   3.630   9.620 -0.7510 -0.7580 -1.2755
  165SOPE   H8Y18592   7.479   3.790   9.587  2.7315 -0.3562 -1.2456
  165SOPE   C3918593   7.395   3.633   9.465  0.1191 -0.9755  0.2416
  165SOPE   H9X18594   7.300   3.687   9.445  1.6578  1.7526  0.0590
  165SOPE   H9Y18595   7.371   3.526   9.480 -0.4406 -0.9126 -0.2378
  165SOPE  C31018596   7.500   3.650   9.344 -0.4166 -0.6315  0.4581
  165SOPE  H10X18597   7.592   3.600   9.381 -1.8987 -2.1975  2.1202
  165SOPE  H10Y18598   7.533   3.756   9.343 -2.1495 -0.0805  0.5852
  165SOPE  C31118599   7.456   3.598   9.211 -0.2515  0.0136  0.4942
  165SOPE  H11X18600   7.375   3.661   9.169  1.5676  0.1639 -2.9431
  165SOPE  H11Y18601   7.406   3.502   9.236  1.2635 -1.1568 -0.9065
  165SOPE  C31218602   7.573   3.593   9.109 -0.0409 -0.0438 -0.3885
  165SOPE  H12X18603   7.652   3.521   9.140 -1.4638 -1.3569  0.2702
  165SOPE  H12Y18604   7.611   3.698   9.108  0.4681 -0.2031  1.1845
  165SOPE  C31318605   7.541   3.555   8.961  0.0762  0.0575 -0.3792
  165SOPE  H13X18606   7.637   3.541   8.908  0.0376 -0.4926 -0.3067
  165SOPE  H13Y18607   7.490   3.641   8.912  0.7052 -0.6781 -2.3795
  165SOPE  C31418608   7.453   3.423   8.943  0.6373  0.2997 -0.1610
  165SOPE  H14X18609   7.344   3.448   8.944  0.9641  1.7194  0.3275
  165SOPE  H14Y18610   7.475   3.368   9.037 -0.6782  2.9570  1.7899
  165SOPE  C31518611   7.488   3.335   8.820 -0.2467 -0.4687 -0.6430
  165SOPE  H15X18612   7.410   3.258   8.805  0.2672 -1.7098  2.6333
  165SOPE  H15Y18613   7.587   3.293   8.846 -1.3132 -0.8831  2.9503
  165SOPE  C31618614   7.524   3.396   8.680 -0.0958 -0.4691 -0.1475
  165SOPE  H16X18615   7.605   3.472   8.687  0.9017 -1.5103 -0.2507
  165SOPE  H16Y18616   7.445   3.463   8.639 -3.4447 -2.3686  2.8662
  165SOPE  C31718617   7.551   3.304   8.560  0.5533 -0.4038  0.5825
  165SOPE  H17X18618   7.581   3.368   8.474  1.1396 -1.7402 -0.2130
  165SOPE  H17Y18619   7.453   3.259   8.534  0.3851  0.1783  0.1976
  165SOPE  C31818620   7.657   3.198   8.570 -0.3182 -0.3350  0.3685
  165SOPE  H18X18621   7.659   3.161   8.675 -1.7644  0.7389  0.7920
  165SOPE  H18Y18622   7.759   3.234   8.545 -1.0144  0.1569 -1.9114
  165SOPE  H18Z18623   7.643   3.114   8.499  0.3661  0.2868 -0.5131
  166SOPE     N18624   4.043   4.045  10.747 -0.2204  0.2457  0.0487
  166SOPE   HN118625   4.057   3.947  10.716 -0.5866 -0.4182  1.9179
  166SOPE   HN218626   3.990   4.092  10.671 -0.4917  0.1938  0.2052
  166SOPE   HN318627   4.138   4.086  10.758  0.4234 -1.1117 -0.2813
  166SOPE   C1218628   3.982   4.051  10.886 -0.4584  1.0185 -0.1254
  166SOPE  H12A18629   4.008   4.153  10.923  0.6570  0.6902  0.0237
  166SOPE  H12B18630   4.027   3.967  10.942 -0.2538 -1.2035 -3.4669
  166SOPE   C1118631   3.831   4.041  10.868 -0.0744 -0.4635 -0.2693
  166SOPE  H11A18632   3.804   4.126  10.802  0.7476  0.1168  0.1385
  166SOPE  H11B18633   3.789   4.053  10.971 -1.2088  1.7473 -0.9444
  166SOPE     P18634   3.659   3.842  10.839  0.0482 -0.1535  0.1359
  166SOPE   O1318635   3.646   3.826  10.989 -0.4085  0.7294  0.5719
  166SOPE   O1418636   3.662   3.713  10.766 -0.1611 -0.5794 -0.4203
  166SOPE   O1218637   3.792   3.921  10.804  0.0131 -0.5018 -0.2483
  166SOPE   O1118638   3.539   3.934  10.777  0.2378 -0.1789 -0.4061
  166SOPE    C118639   3.568   4.006  10.655 -0.3043  0.3858  0.4028
  166SOPE    HA18640   3.664   3.967  10.615 -1.6956 -4.1619  1.1941
  166SOPE    HB18641   3.577   4.117  10.661  2.5578  0.2470 -0.8258
  166SOPE    C218642   3.470   3.962  10.537 -0.2369 -0.0616  0.1767
  166SOPE    HS18643   3.525   3.993  10.446 -0.8664 -2.1324 -0.9399
  166SOPE   O2118644   3.346   4.033  10.560  0.3531  0.6892  0.1102
  166SOPE   C2118645   3.338   4.144  10.485  0.3764  0.4414  0.0543
  166SOPE   O2218646   3.425   4.183  10.411 -0.4205 -0.2163 -0.4788
  166SOPE   C2218647   3.192   4.192  10.493 -0.0790  0.3857 -0.1828
  166SOPE   H2R18648   3.166   4.218  10.598  0.7019 -0.1902  0.1574
  166SOPE   H2S18649   3.142   4.096  10.468  1.2938 -0.6324  0.9227
  166SOPE    C318650   3.456   3.805  10.525 -0.2871  0.2524 -0.1522
  166SOPE    HX18651   3.394   3.773  10.612 -1.6822  0.1223 -1.1858
  166SOPE    HY18652   3.550   3.745  10.530 -0.0017  0.7940  1.6263
  166SOPE   O3118653   3.381   3.766  10.406  0.5943  0.2062  0.0581
  166SOPE   C3118654   3.447   3.778  10.291  0.6916  0.1615 -0.2724
  166SOPE   O3218655   3.566   3.797  10.290 -0.4661 -0.1040 -0.2628
  166SOPE   C3218656   3.348   3.765  10.166  0.0658  0.5686 -0.1771
  166SOPE   H2X18657   3.248   3.730  10.199  1.0710 -0.2356  2.1272
  166SOPE   H2Y18658   3.391   3.678  10.111  1.5774  0.1266  1.6489
  166SOPE   C2318659   3.158   4.307  10.393  0.1594  0.3548  0.5234
  166SOPE   H3R18660   3.240   4.382  10.389  0.5046 -0.0578 -0.3300
  166SOPE   H3S18661   3.069   4.362  10.432 -0.1928  0.3862 -0.3052
  166SOPE   C2418662   3.138   4.251  10.254  0.4734  0.5583 -0.2933
  166SOPE   H4R18663   3.220   4.177  10.235 -0.7558 -1.1685  0.9441
  166SOPE   H4S18664   3.048   4.186  10.255 -0.0511  1.2689  1.8204
  166SOPE   C2518665   3.134   4.361  10.145  0.3871  0.3496  0.3381
  166SOPE   H5R18666   3.060   4.443  10.163  1.8748  1.7735  0.0926
  166SOPE   H5S18667   3.224   4.424  10.159 -0.5543  1.3804  2.0496
  166SOPE   C2618668   3.123   4.310  10.000 -0.1040  0.3292  0.2567
  166SOPE   H6R18669   3.216   4.259   9.966 -1.6038 -2.7007  0.5471
  166SOPE   H6S18670   3.044   4.233   9.990  0.6753 -0.5008  0.3896
  166SOPE   C2718671   3.088   4.420   9.898 -0.0061 -0.4866 -0.4250
  166SOPE   H7R18672   3.024   4.485   9.961  0.6566 -0.6049  0.3866
  166SOPE   H7S18673   3.178   4.483   9.883 -0.7890  0.7624  0.1403
  166SOPE   C2818674   3.021   4.381   9.771  0.7654  0.1744 -0.1696
  166SOPE   H8R18675   2.931   4.320   9.796  0.9014 -0.1064 -0.3650
  166SOPE   H8S18676   2.976   4.478   9.741  0.9259  0.4721  0.5491
  166SOPE   C2918677   3.114   4.311   9.676  0.0196 -0.8002  0.1342
  166SOPE   H9118678   3.162   4.221   9.719 -1.6951 -2.1134 -0.6586
  166SOPE  C21018679   3.130   4.343   9.548  0.1594 -0.0405  0.7549
  166SOPE  H10118680   3.198   4.281   9.488 -0.2509 -1.6762  1.9367
  166SOPE  C21118681   3.066   4.456   9.476  0.6384  0.3775 -0.4262
  166SOPE  H11R18682   3.028   4.533   9.547 -0.1365 -0.3990  0.0016
  166SOPE  H11S18683   2.977   4.425   9.417  1.1140  0.4073 -1.1782
  166SOPE  C21218684   3.157   4.530   9.377  0.7923  0.4006  0.0622
  166SOPE  H12R18685   3.250   4.569   9.423  0.9873 -0.3116  0.2741
  166SOPE  H12S18686   3.105   4.625   9.352 -1.0049 -0.5210  0.1634
  166SOPE  C21318687   3.186   4.453   9.255  0.8270 -0.0618  0.0867
  166SOPE  H13R18688   3.204   4.346   9.280 -2.3431 -0.7187 -0.2419
  166SOPE  H13S18689   3.269   4.491   9.191  1.2093  1.2881  1.3606
  166SOPE  C21418690   3.068   4.454   9.154 -0.1271  0.5053  0.0368
  166SOPE  H14R18691   3.054   4.555   9.110 -0.6448 -0.5340 -2.2158
  166SOPE  H14S18692   2.973   4.417   9.198  2.8911 -3.6216  3.4357
  166SOPE  C21518693   3.091   4.346   9.045 -0.0727  0.5498 -0.4954
  166SOPE  H15R18694   3.084   4.245   9.090 -0.6994 -0.0481 -1.9160
  166SOPE  H15S18695   3.187   4.364   8.993  0.6931 -3.0987 -0.4621
  166SOPE  C21618696   2.981   4.337   8.936  0.4793 -0.3962  0.6540
  166SOPE  H16R18697   2.981   4.431   8.878 -2.2421 -1.8869 -1.9411
  166SOPE  H16S18698   2.882   4.333   8.986  0.8222  3.3188  1.7179
  166SOPE  C21718699   3.012   4.222   8.837  0.8821  0.7112 -0.1786
  166SOPE  H17R18700   3.034   4.132   8.899 -2.1104 -1.1564 -1.7077
  166SOPE  H17S18701   3.102   4.249   8.777 -0.0486 -0.2677 -2.0548
  166SOPE  C21818702   2.886   4.200   8.758  0.0906 -0.5328  0.3454
  166SOPE  H18R18703   2.851   4.290   8.702 -1.0195  0.7667  3.0464
  166SOPE  H18S18704   2.811   4.182   8.839  0.2648  3.4424  1.4939
  166SOPE  H18T18705   2.900   4.113   8.691  0.9115  0.7598 -1.1864
  166SOPE   C3318706   3.335   3.904  10.095  0.7256  0.1319 -0.4187
  166SOPE   H3X18707   3.341   3.979  10.177 -3.2910 -0.9549  1.0049
  166SOPE   H3Y18708   3.234   3.907  10.049 -0.6727  0.7045  2.5508
  166SOPE   C3418709   3.437   3.917   9.991  0.7294 -0.0686  0.3570
  166SOPE   H4X18710   3.422   3.838   9.915 -0.7470  0.0307  0.5451
  166SOPE   H4Y18711   3.539   3.911  10.036  1.5914  3.1306 -1.0161
  166SOPE   C3518712   3.416   4.050   9.911 -0.3762  0.6550 -0.5771
  166SOPE   H5X18713   3.436   4.120   9.995  1.8326 -3.6716  2.6926
  166SOPE   H5Y18714   3.309   4.048   9.879 -0.3663 -3.5879 -0.7216
  166SOPE   C3618715   3.502   4.071   9.793 -0.0049  0.5756  0.2225
  166SOPE   H6X18716   3.514   3.973   9.741  0.0153  0.7294 -0.0652
  166SOPE   H6Y18717   3.602   4.094   9.836 -0.3912  0.7790  1.0211
  166SOPE   C3718718   3.444   4.158   9.683  0.0976 -0.2141  0.4806
  166SOPE   H7X18719   3.440   4.268   9.698  0.4961  0.0134 -0.9884
  166SOPE   H7Y18720   3.343   4.118   9.662  0.7239 -1.3449 -0.4580
  166SOPE   C3818721   3.497   4.132   9.537 -0.1286  0.0996  0.1535
  166SOPE   H8X18722   3.445   4.185   9.455  0.5029  2.9875  1.5496
  166SOPE   H8Y18723   3.494   4.022   9.521  0.1153  0.1960 -0.5589
  166SOPE   C3918724   3.648   4.180   9.524 -0.2420 -0.6673  0.3690
  166SOPE   H9X18725   3.712   4.096   9.558 -0.0020  0.4954  2.8729
  166SOPE   H9Y18726   3.652   4.268   9.591  1.7256  1.1947 -2.0941
  166SOPE  C31018727   3.685   4.232   9.380  0.8271 -0.0639 -0.7184
  166SOPE  H10X18728   3.633   4.329   9.366 -0.8176 -0.7363  0.5891
  166SOPE  H10Y18729   3.644   4.159   9.307  1.9335 -1.5139  0.0759
  166SOPE  C31118730   3.829   4.254   9.345  0.4335 -0.6846  0.6550
  166SOPE  H11X18731   3.892   4.163   9.340  2.0097  0.3988  0.3975
  166SOPE  H11Y18732   3.885   4.317   9.418  2.4107  0.3737 -1.6964
  166SOPE  C31218733   3.832   4.336   9.218 -0.1535  0.0854  0.2588
  166SOPE  H12X18734   3.811   4.443   9.236 -1.4450 -0.1025 -0.1026
  166SOPE  H12Y18735   3.745   4.301   9.159  0.7735 -1.2006 -0.3628
  166SOPE  C31318736   3.955   4.325   9.125  0.4092 -0.6712 -0.2189
  166SOPE  H13X18737   3.947   4.225   9.077 -2.6840 -1.6347  2.1877
  166SOPE  H13Y18738   4.053   4.338   9.177  1.3541 -0.8989 -1.8845
  166SOPE  C31418739   3.949   4.422   9.006 -0.8038  0.2043  0.1579
  166SOPE  H14X18740   3.967   4.525   9.045 -2.9351  0.8094 -0.4324
  166SOPE  H14Y18741   3.846   4.426   8.966 -0.7183 -0.6444 -0.1597
  166SOPE  C31518742   4.051   4.393   8.893  0.2780  0.7039 -0.3966
  166SOPE  H15X18743   4.147   4.353   8.932 -0.0343  0.1753 -0.1695
  166SOPE  H15Y18744   4.076   4.494   8.854  1.0495  0.7795  0.2904
  166SOPE  C31618745   4.001   4.311   8.774 -0.1058 -0.5125 -0.2667
  166SOPE  H16X18746   4.067   4.344   8.691 -0.5478  1.6056  0.1965
  166SOPE  H16Y18747   3.903   4.353   8.744 -0.3646 -0.3402  0.8266
  166SOPE  C31718748   3.985   4.156   8.796 -0.6229  0.2922 -0.2769
  166SOPE  H17X18749   3.939   4.101   8.712 -2.4752  3.0679 -1.1637
  166SOPE  H17Y18750   3.917   4.152   8.884 -0.5400  0.7419 -0.1874
  166SOPE  C31818751   4.107   4.074   8.831  0.2823 -0.0722  0.1715
  166SOPE  H18X18752   4.090   3.964   8.835  0.0377 -0.0075  0.9780
  166SOPE  H18Y18753   4.156   4.108   8.925  1.8226 -0.7851 -0.3580
  166SOPE  H18Z18754   4.176   4.084   8.745  0.1403 -1.4999 -0.1249
  167SOPE     N18755   5.596   2.741   5.987 -0.0896 -0.1321 -0.0839
  167SOPE   HN118756   5.620   2.666   6.055 -1.4454  0.7901  1.4276
  167SOPE   HN218757   5.684   2.755   5.933 -0.1824 -0.9385 -0.4589
  167SOPE   HN318758   5.583   2.830   6.037 -1.7912 -0.5084  0.1531
  167SOPE   C1218759   5.505   2.695   5.883 -0.0924  0.0781  0.2850
  167SOPE  H12A18760   5.542   2.593   5.859  1.1492  0.4299  0.6392
  167SOPE  H12B18761   5.527   2.763   5.798  0.5324  0.3445  0.6516
  167SOPE   C1118762   5.357   2.695   5.934  1.1759 -0.2062  0.3708
  167SOPE  H11A18763   5.299   2.653   5.849 -0.1845 -1.3837  1.8449
  167SOPE  H11B18764   5.329   2.801   5.949  0.0672 -0.4262 -0.1218
  167SOPE     P18765   5.210   2.584   6.114 -0.4213 -0.0840 -0.2370
  167SOPE   O1318766   5.195   2.441   6.137  0.3988  0.0930  0.1377
  167SOPE   O1418767   5.106   2.648   6.027  0.0832  0.5950  0.7548
  167SOPE   O1218768   5.349   2.625   6.056 -0.0646  0.5674  0.5875
  167SOPE   O1118769   5.218   2.652   6.251 -0.1136  0.0134  0.0329
  167SOPE    C118770   5.283   2.597   6.369  0.2206  0.4660  0.4256
  167SOPE    HA18771   5.324   2.679   6.432 -0.4454  2.4843 -1.6639
  167SOPE    HB18772   5.361   2.521   6.346  0.1691  1.3216 -2.8617
  167SOPE    C218773   5.190   2.510   6.462 -0.1943 -0.0914  0.6370
  167SOPE    HS18774   5.179   2.416   6.404  1.1458 -1.8904  3.1727
  167SOPE   O2118775   5.072   2.581   6.490  0.3727  0.2512  0.3802
  167SOPE   C2118776   4.971   2.514   6.519  0.6857  0.3915 -0.2488
  167SOPE   O2218777   4.957   2.392   6.508 -0.6408  0.4996  0.4439
  167SOPE   C2218778   4.861   2.601   6.576 -0.5894  0.1634 -0.1441
  167SOPE   H2R18779   4.775   2.530   6.571 -1.9481  1.7058  0.6258
  167SOPE   H2S18780   4.855   2.694   6.516 -0.0265  0.8916  0.9178
  167SOPE    C318781   5.265   2.490   6.597  0.1666 -0.4168  0.3796
  167SOPE    HX18782   5.278   2.594   6.633 -1.8560  0.3176 -0.9314
  167SOPE    HY18783   5.360   2.439   6.571 -0.0967 -1.2027  0.9288
  167SOPE   O3118784   5.181   2.416   6.694  0.1412 -0.0766  0.5698
  167SOPE   C3118785   5.238   2.410   6.815  0.4821 -0.0823  0.4170
  167SOPE   O3218786   5.341   2.466   6.847  0.0028 -0.3187  0.1045
  167SOPE   C3218787   5.157   2.312   6.890  0.3296 -0.2122  0.6863
  167SOPE   H2X18788   5.178   2.212   6.845 -3.1008 -0.1580 -1.1961
  167SOPE   H2Y18789   5.048   2.333   6.890  0.5252  0.8994  2.6668
  167SOPE   C2318790   4.907   2.653   6.718  0.2826 -0.4802 -0.4696
  167SOPE   H3R18791   4.957   2.572   6.776  0.6109 -1.3821 -1.9708
  167SOPE   H3S18792   4.823   2.682   6.785 -0.5368  2.9675 -2.8695
  167SOPE   C2418793   4.995   2.776   6.707  0.2548 -0.0114  0.9367
  167SOPE   H4R18794   5.092   2.742   6.662 -0.2356  0.2608 -0.3387
  167SOPE   H4S18795   4.939   2.842   6.638  0.3842 -0.0355  0.8084
  167SOPE   C2518796   5.036   2.842   6.840 -0.9067 -0.1860  0.6915
  167SOPE   H5R18797   5.129   2.894   6.809  0.0646 -1.1399  1.9102
  167SOPE   H5S18798   4.970   2.927   6.869 -1.4087  0.3946 -2.0728
  167SOPE   C2618799   5.077   2.751   6.953  0.2360 -0.5922  0.2259
  167SOPE   H6R18800   4.980   2.709   6.987 -0.6827 -0.8938 -2.6570
  167SOPE   H6S18801   5.139   2.673   6.904  0.6681  0.4983 -0.9831
  167SOPE   C2718802   5.149   2.829   7.058  0.3583  0.1242  0.0544
  167SOPE   H7R18803   5.194   2.766   7.138 -0.6656  2.1982  2.3644
  167SOPE   H7S18804   5.234   2.876   7.004 -1.0547  0.1865 -2.1643
  167SOPE   C2818805   5.070   2.951   7.137 -0.2170  0.0904 -0.2209
  167SOPE   H8R18806   5.010   3.006   7.063 -0.7402 -0.8978 -0.5423
  167SOPE   H8S18807   4.993   2.897   7.196  2.2119 -0.8218  2.2788
  167SOPE   C2918808   5.162   3.038   7.217 -0.4182  0.6837 -0.2022
  167SOPE   H9118809   5.245   3.090   7.168  0.7109  0.4359  1.4269
  167SOPE  C21018810   5.142   3.065   7.347 -0.0379 -0.3256 -0.1026
  167SOPE  H10118811   5.201   3.140   7.401 -1.4288  1.2961 -0.7953
  167SOPE  C21118812   5.037   3.006   7.432 -0.0311  0.6871 -0.1151
  167SOPE  H11R18813   4.953   2.956   7.379  1.2568  0.7737 -2.3113
  167SOPE  H11S18814   4.981   3.096   7.464 -0.4854  0.2370  0.3827
  167SOPE  C21218815   5.090   2.927   7.551  0.2871 -0.2164 -0.3829
  167SOPE  H12R18816   5.194   2.952   7.579  0.2909 -1.6159  0.9509
  167SOPE  H12S18817   5.097   2.829   7.500 -1.3761 -0.3749 -0.3283
  167SOPE  C21318818   4.996   2.928   7.673 -0.2117 -0.2081  0.4774
  167SOPE  H13R18819   4.901   2.882   7.638 -1.3068  1.8444  0.6604
  167SOPE  H13S18820   4.977   3.030   7.714 -0.2068 -0.1405  0.3129
  167SOPE  C21418821   5.049   2.832   7.781 -0.0029  0.0811  0.1012
  167SOPE  H14R18822   5.141   2.876   7.826 -0.6915  2.2464 -0.5604
  167SOPE  H14S18823   5.086   2.738   7.735 -1.6706 -0.4709 -0.1520
  167SOPE  C21518824   4.953   2.794   7.896  0.4474 -0.3179  0.2144
  167SOPE  H15R18825   4.860   2.741   7.866 -1.5216  1.8135  2.2690
  167SOPE  H15S18826   4.910   2.887   7.939 -0.5120  0.6061 -2.6831
  167SOPE  C21618827   5.021   2.701   8.000  0.4152 -0.1348 -0.2059
  167SOPE  H16R18828   5.127   2.727   8.021  0.3286  0.6738 -0.7107
  167SOPE  H16S18829   5.031   2.598   7.961 -0.5378 -0.1538 -0.4179
  167SOPE  C21718830   4.955   2.688   8.139  0.2576  0.5136  0.4673
  167SOPE  H17R18831   4.844   2.682   8.140  0.2428  0.2231  3.7458
  167SOPE  H17S18832   4.972   2.790   8.179  1.8052  0.3673  0.2180
  167SOPE  C21818833   5.010   2.578   8.234 -0.1797  0.8860 -0.1502
  167SOPE  H18R18834   4.999   2.478   8.187  0.4540 -0.4358  2.3954
  167SOPE  H18S18835   4.951   2.571   8.328 -0.8392  0.2785 -0.6037
  167SOPE  H18T18836   5.118   2.595   8.255  0.8902 -2.9939 -2.0578
  167SOPE   C3318837   5.183   2.307   7.034  0.3730  0.6122  0.1730
  167SOPE   H3X18838   5.292   2.288   7.043 -0.0151 -0.5565  3.2170
  167SOPE   H3Y18839   5.131   2.218   7.077 -0.2621  0.6235 -0.5613
  167SOPE   C3418840   5.154   2.433   7.114 -0.2256 -0.2247 -0.4714
  167SOPE   H4X18841   5.053   2.471   7.087 -1.5822 -1.8912  2.0598
  167SOPE   H4Y18842   5.221   2.521   7.102 -0.0132 -0.1946  0.8067
  167SOPE   C3518843   5.147   2.396   7.263 -0.5408  0.7822 -0.2766
  167SOPE   H5X18844   5.230   2.324   7.283 -1.5219 -0.0682  0.7565
  167SOPE   H5Y18845   5.050   2.349   7.288  1.5321 -1.7732  3.5358
  167SOPE   C3618846   5.174   2.522   7.356 -0.1266 -0.2316  0.8705
  167SOPE   H6X18847   5.123   2.612   7.316 -0.4545 -0.4829  0.7259
  167SOPE   H6Y18848   5.284   2.534   7.365 -0.4129  1.7684  1.9706
  167SOPE   C3718849   5.107   2.514   7.493 -0.2943 -0.5619  0.1101
  167SOPE   H7X18850   5.000   2.526   7.467 -0.4083 -0.1287  0.7639
  167SOPE   H7Y18851   5.130   2.604   7.554  0.4298  0.8906 -2.2246
  167SOPE   C3818852   5.124   2.383   7.569  0.5233 -1.0432 -0.3755
  167SOPE   H8X18853   5.230   2.351   7.560  0.1869 -2.4854  0.5472
  167SOPE   H8Y18854   5.068   2.304   7.514 -0.9227 -0.4913  0.2911
  167SOPE   C3918855   5.084   2.381   7.720  0.3843  0.0194  0.0185
  167SOPE   H9X18856   4.977   2.406   7.735 -0.2584  2.0681 -6.1712
  167SOPE   H9Y18857   5.137   2.466   7.767 -0.6016  2.5317 -3.1989
  167SOPE  C31018858   5.115   2.250   7.775 -0.5450  0.0493 -0.6695
  167SOPE  H10X18859   5.224   2.234   7.760 -0.8649 -1.6476 -1.3184
  167SOPE  H10Y18860   5.067   2.166   7.720 -0.9322  0.0274 -0.3028
  167SOPE  C31118861   5.081   2.259   7.926  0.3825  0.4364  0.8760
  167SOPE  H11X18862   4.999   2.185   7.944  0.3656  0.4975  1.0521
  167SOPE  H11Y18863   5.050   2.363   7.950 -1.1226  0.2565 -0.1830
  167SOPE  C31218864   5.199   2.218   8.017  0.1734  0.1570 -0.5557
  167SOPE  H12X18865   5.286   2.287   8.005  1.3681 -1.4742 -1.3691
  167SOPE  H12Y18866   5.237   2.120   7.981  1.1104  0.4627 -0.4182
  167SOPE  C31318867   5.159   2.210   8.169 -0.5730 -0.8787  1.2743
  167SOPE  H13X18868   5.113   2.309   8.190 -1.0336 -0.4350 -1.6487
  167SOPE  H13Y18869   5.251   2.197   8.230 -0.9779 -2.3615  1.5798
  167SOPE  C31418870   5.053   2.101   8.218  0.0554 -0.4394  0.1375
  167SOPE  H14X18871   5.094   2.009   8.171 -0.9509  0.1147 -1.8576
  167SOPE  H14Y18872   4.953   2.121   8.175  1.0670  1.8797 -1.2618
  167SOPE  C31518873   5.050   2.081   8.368  0.0481 -0.1741 -0.1702
  167SOPE  H15X18874   4.990   2.159   8.419 -0.1254 -0.2441 -0.2651
  167SOPE  H15Y18875   5.149   2.079   8.418 -0.2717  0.8511  0.5017
  167SOPE  C31618876   4.984   1.947   8.408  0.5295 -0.1793 -0.3091
  167SOPE  H16X18877   5.052   1.877   8.355  1.9203  3.1271 -3.1166
  167SOPE  H16Y18878   4.879   1.951   8.372  0.8660  1.0193 -1.2199
  167SOPE  C31718879   4.993   1.909   8.560  0.1260  0.0403  1.0801
  167SOPE  H17X18880   4.911   1.970   8.604 -0.4967 -0.5822  0.7875
  167SOPE  H17Y18881   5.088   1.942   8.607 -0.2547  0.4116  1.5912
  167SOPE  C31818882   4.964   1.759   8.584  0.1489 -0.3313 -0.4243
  167SOPE  H18X18883   5.039   1.699   8.528 -0.6950 -2.0702  0.2712
  167SOPE  H18Y18884   4.867   1.742   8.532 -0.3152  0.2280  0.2476
  167SOPE  H18Z18885   4.979   1.728   8.689 -2.8062  3.0576  1.1203
  168SOPE     N18886   4.211   6.507   6.416  0.2627 -0.6977  0.5598
  168SOPE   HN118887   4.118   6.553   6.413  0.6354 -0.0116 -1.0231
  168SOPE   HN218888   4.204   6.410   6.452 -1.1745 -1.4381 -1.6487
  168SOPE   HN318889   4.266   6.569   6.479  0.7143 -0.1126 -0.3935
  168SOPE   C1218890   4.279   6.493   6.282  0.0619 -0.0771 -0.2983
  168SOPE  H12A18891   4.278   6.598   6.246 -1.9823  0.6421  1.7161
  168SOPE  H12B18892   4.221   6.426   6.217  1.4895  1.6496 -3.4665
  168SOPE   C1118893   4.423   6.451   6.293  0.4094 -0.0436  0.1375
  168SOPE  H11A18894   4.479   6.536   6.337  2.8667 -1.0049 -1.0296
  168SOPE  H11B18895   4.475   6.436   6.196  1.0793 -1.3581  0.6872
  168SOPE     P18896   4.557   6.283   6.432  0.0542  0.1310  0.1818
  168SOPE   O1318897   4.673   6.295   6.339 -0.0657  0.0642 -0.0376
  168SOPE   O1418898   4.542   6.147   6.485  0.4276  0.8624 -0.5653
  168SOPE   O1218899   4.426   6.328   6.365  0.6963 -0.2770  0.5242
  168SOPE   O1118900   4.580   6.383   6.552  0.3090 -0.4608  0.0865
  168SOPE    C118901   4.502   6.391   6.670  0.3443  0.0584  0.5212
  168SOPE    HA18902   4.398   6.356   6.652 -0.2928  0.7270  2.6754
  168SOPE    HB18903   4.481   6.497   6.695 -1.5701  0.0365 -0.8443
  168SOPE    C218904   4.573   6.337   6.798 -0.0055 -0.9633  0.1058
  168SOPE    HS18905   4.677   6.377   6.796  0.3161 -1.7544  0.4759
  168SOPE   O2118906   4.574   6.188   6.802 -0.3973 -0.1382  0.3785
  168SOPE   C2118907   4.683   6.135   6.742 -0.0515 -1.1190 -0.2609
  168SOPE   O2218908   4.771   6.201   6.686 -0.2732  0.1257  0.4228
  168SOPE   C2218909   4.690   5.987   6.764  0.2485 -0.0180  0.5350
  168SOPE   H2R18910   4.702   5.929   6.670 -0.3061  0.8337 -0.0656
  168SOPE   H2S18911   4.595   5.956   6.813  0.7832  0.9878  2.2680
  168SOPE    C318912   4.498   6.391   6.924 -0.3180  0.5605 -0.1274
  168SOPE    HX18913   4.390   6.369   6.912 -0.5559  2.8010 -2.3759
  168SOPE    HY18914   4.484   6.501   6.928 -1.5075  0.4143 -0.0643
  168SOPE   O3118915   4.552   6.343   7.052 -0.5578 -0.0906  0.6131
  168SOPE   C3118916   4.485   6.241   7.108  0.1219 -0.1039 -0.2741
  168SOPE   O3218917   4.392   6.178   7.057 -0.7007 -0.5801  0.3717
  168SOPE   C3218918   4.537   6.220   7.245  0.7017  0.1269 -0.9701
  168SOPE   H2X18919   4.532   6.318   7.297 -0.2547 -1.4388  1.9874
  168SOPE   H2Y18920   4.646   6.203   7.246  0.2063 -3.4330  0.9944
  168SOPE   C2318921   4.801   5.952   6.873 -0.5995  0.1379  0.0735
  168SOPE   H3R18922   4.898   6.000   6.847  0.2161 -1.9933 -0.9278
  168SOPE   H3S18923   4.829   5.844   6.882  1.9556  0.7146 -0.4674
  168SOPE   C2418924   4.780   6.008   7.009  0.3384  0.8894  0.0209
  168SOPE   H4R18925   4.825   6.108   7.027 -1.3496  1.5077  0.9270
  168SOPE   H4S18926   4.674   6.019   7.040  0.3792  1.5720 -0.0742
  168SOPE   C2518927   4.837   5.909   7.109 -0.9279 -0.2297 -0.3323
  168SOPE   H5R18928   4.770   5.821   7.117  1.7341 -2.2558  0.3620
  168SOPE   H5S18929   4.938   5.881   7.073  0.4110  1.7100  1.7566
  168SOPE   C2618930   4.855   5.970   7.248  0.1338 -0.1610  0.1426
  168SOPE   H6R18931   4.940   6.042   7.251  0.5397 -0.6853  1.5626
  168SOPE   H6S18932   4.765   6.030   7.274 -0.6560 -1.3865  0.2535
  168SOPE   C2718933   4.885   5.854   7.349  1.4849 -0.1798 -0.1401
  168SOPE   H7R18934   4.788   5.813   7.385  2.2829 -2.6481 -0.7125
  168SOPE   H7S18935   4.940   5.771   7.300  0.0569 -1.6168  0.6544
  168SOPE   C2818936   4.961   5.887   7.473 -0.3176 -0.8984 -0.6476
  168SOPE   H8R18937   5.055   5.933   7.436  1.1913 -1.3296  2.4534
  168SOPE   H8S18938   4.911   5.957   7.544  0.7181 -1.2868  0.5004
  168SOPE   C2918939   4.995   5.753   7.541 -0.0682 -0.0297 -0.6183
  168SOPE   H9118940   5.055   5.675   7.491 -0.1341 -0.5638  0.1310
  168SOPE  C21018941   4.974   5.716   7.671 -0.4745  0.4183 -0.8180
  168SOPE  H10118942   5.009   5.615   7.696 -0.2673  0.5387 -0.6029
  168SOPE  C21118943   4.906   5.795   7.777  0.0038  0.3725  1.0539
  168SOPE  H11R18944   4.848   5.876   7.727 -1.2380 -2.8523 -3.0012
  168SOPE  H11S18945   4.980   5.836   7.849 -0.5048 -0.7073  2.2142
  168SOPE  C21218946   4.788   5.716   7.843 -0.0793  0.9967 -0.6517
  168SOPE  H12R18947   4.726   5.663   7.768 -3.6287  0.7450  2.3346
  168SOPE  H12S18948   4.723   5.777   7.910 -0.8688  1.2535 -1.6412
  168SOPE  C21318949   4.845   5.602   7.928  0.4829  0.1860 -0.3316
  168SOPE  H13R18950   4.922   5.542   7.873  0.1802  1.4833 -2.2224
  168SOPE  H13S18951   4.768   5.523   7.943  2.1300 -0.8624  3.0145
  168SOPE  C21418952   4.925   5.631   8.066  0.1566  0.0809  0.5350
  168SOPE  H14R18953   4.847   5.657   8.142 -3.1987 -0.9220 -2.4505
  168SOPE  H14S18954   4.993   5.717   8.048  0.8859 -1.0579 -2.4204
  168SOPE  C21518955   5.008   5.511   8.105 -0.6657 -0.5781 -0.6835
  168SOPE  H15R18956   5.086   5.495   8.027 -2.4079 -1.2096 -2.3160
  168SOPE  H15S18957   4.938   5.426   8.115 -1.1953 -0.3571 -2.3202
  168SOPE  C21618958   5.093   5.539   8.231 -0.0797 -1.0738  0.3892
  168SOPE  H16R18959   5.023   5.569   8.312  0.9058 -0.7676  1.1427
  168SOPE  H16S18960   5.163   5.625   8.228 -0.5198 -0.5571  3.3512
  168SOPE  C21718961   5.179   5.415   8.273  0.4811  1.4079  0.1411
  168SOPE  H17R18962   5.216   5.361   8.183  0.4752  0.8151  0.4922
  168SOPE  H17S18963   5.118   5.344   8.333  0.7300  1.6508  0.6834
  168SOPE  C21818964   5.302   5.446   8.355  0.3823 -0.4413  0.4511
  168SOPE  H18R18965   5.362   5.352   8.353  0.9087 -0.0937 -0.7155
  168SOPE  H18S18966   5.290   5.479   8.460 -0.7589 -1.9941  0.8304
  168SOPE  H18T18967   5.373   5.516   8.305  0.4506 -1.2885 -0.6659
  168SOPE   C3318968   4.471   6.105   7.327 -0.1612  0.7773 -0.3702
  168SOPE   H3X18969   4.511   6.008   7.291  0.6026  1.3017 -0.9490
  168SOPE   H3Y18970   4.363   6.092   7.303  0.0114 -1.8619  0.1541
  168SOPE   C3418971   4.483   6.118   7.474 -0.4804 -0.6682  0.5173
  168SOPE   H4X18972   4.429   6.211   7.505  2.7326  0.8129  1.9048
  168SOPE   H4Y18973   4.588   6.134   7.507 -0.0636 -0.5567 -0.8288
  168SOPE   C3518974   4.427   5.991   7.550 -0.1472 -0.0613 -0.5087
  168SOPE   H5X18975   4.490   5.902   7.530  2.2124  1.3139  0.4935
  168SOPE   H5Y18976   4.329   5.978   7.500 -0.1217  0.1366 -0.6106
  168SOPE   C3618977   4.430   6.008   7.702 -0.6270 -0.8411  1.0019
  168SOPE   H6X18978   4.369   5.925   7.744 -2.2892 -0.8929 -1.3926
  168SOPE   H6Y18979   4.381   6.104   7.726 -0.0260 -0.1900 -0.3060
  168SOPE   C3718980   4.568   6.001   7.764 -0.5259  0.7824 -0.4273
  168SOPE   H7X18981   4.645   6.070   7.723 -0.4788  1.3565  0.6171
  168SOPE   H7Y18982   4.625   5.906   7.761  1.2095  1.7646  0.6473
  168SOPE   C3818983   4.551   6.033   7.913  0.2598 -0.2343 -0.2466
  168SOPE   H8X18984   4.497   6.130   7.915 -0.2245 -0.4848 -0.9938
  168SOPE   H8Y18985   4.652   6.058   7.951 -0.6998 -0.8020  2.7746
  168SOPE   C3918986   4.488   5.927   8.001  0.4767  0.1444  0.2113
  168SOPE   H9X18987   4.546   5.834   7.984  0.5737  0.2409  0.0119
  168SOPE   H9Y18988   4.383   5.897   7.979 -1.2060  4.4188  1.8449
  168SOPE  C31018989   4.486   5.957   8.150  0.1535 -0.3717  0.3003
  168SOPE  H10X18990   4.405   5.903   8.205 -0.3045  0.1681  0.1681
  168SOPE  H10Y18991   4.470   6.067   8.159  4.6357  0.4786 -1.3136
  168SOPE  C31118992   4.614   5.904   8.214  0.4257 -0.2430  0.4154
  168SOPE  H11X18993   4.694   5.912   8.138  0.4656  2.6676  0.6712
  168SOPE  H11Y18994   4.609   5.795   8.231  0.9062  0.0697  2.7327
  168SOPE  C31218995   4.653   5.977   8.340 -0.4883  0.0936  0.4458
  168SOPE  H12X18996   4.747   5.924   8.366 -0.6131 -1.0945 -1.4602
  168SOPE  H12Y18997   4.568   5.965   8.409 -0.8557  0.0372 -0.0136
  168SOPE  C31318998   4.686   6.126   8.330  0.2444 -0.8671  1.0644
  168SOPE  H13X18999   4.594   6.188   8.327  1.5950  1.0893 -0.8065
  168SOPE  H13Y19000   4.729   6.136   8.228  1.1466 -0.3626  1.4912
  168SOPE  C31419001   4.790   6.157   8.441 -0.5758  0.1991  0.8858
  168SOPE  H14X19002   4.889   6.109   8.424  0.6198  2.4814  1.2287
  168SOPE  H14Y19003   4.748   6.124   8.538  1.2441 -1.2941  1.1899
  168SOPE  C31519004   4.812   6.308   8.457  0.6445  0.1379 -0.8436
  168SOPE  H15X19005   4.707   6.345   8.460  1.6858  3.0893  0.5498
  168SOPE  H15Y19006   4.860   6.357   8.369  1.0886 -0.6749 -1.0559
  168SOPE  C31619007   4.886   6.355   8.585 -0.1766 -0.0871  0.3620
  168SOPE  H16X19008   4.844   6.302   8.673 -2.2216  0.1814 -0.4432
  168SOPE  H16Y19009   4.877   6.464   8.603  1.2498 -0.0845  1.1833
  168SOPE  C31719010   5.035   6.318   8.574 -0.2820  0.0128  0.1411
  168SOPE  H17X19011   5.079   6.381   8.493 -0.1403 -1.8780 -1.2938
  168SOPE  H17Y19012   5.041   6.214   8.535 -0.7292  0.9105 -2.4469
  168SOPE  C31819013   5.122   6.325   8.700 -0.0561  0.0407  0.5201
  168SOPE  H18X19014   5.123   6.430   8.735 -1.8244  0.1725  0.1863
  168SOPE  H18Y19015   5.226   6.286   8.685  0.1011 -0.0622  1.7439
  168SOPE  H18Z19016   5.082   6.250   8.772 -0.5602 -2.0506 -1.8535
  169SOPE     N19017   6.810   1.493   6.159 -0.5738  0.0667 -0.2356
  169SOPE   HN119018   6.763   1.407   6.195 -2.1545  1.6434  1.5506
  169SOPE   HN219019   6.825   1.481   6.057  3.0318  1.3382  0.0727
  169SOPE   HN319020   6.901   1.504   6.209 -0.8398  1.7752 -0.1116
  169SOPE   C1219021   6.715   1.609   6.192  0.0277  1.5876 -0.3963
  169SOPE  H12A19022   6.609   1.580   6.175 -0.3637  1.3118  2.3604
  169SOPE  H12B19023   6.742   1.692   6.123 -2.1044  2.7429  0.1355
  169SOPE   C1119024   6.735   1.643   6.337  0.1589  0.5507  0.1149
  169SOPE  H11A19025   6.680   1.734   6.370  0.2712  0.5726  0.2412
  169SOPE  H11B19026   6.840   1.666   6.363 -0.1809  1.9176  0.3338
  169SOPE     P19027   6.550   1.500   6.457 -0.5343 -0.3394 -0.4168
  169SOPE   O1319028   6.521   1.359   6.433  0.1885 -0.0407 -0.1615
  169SOPE   O1419029   6.465   1.596   6.391  0.6379 -0.3207  0.3230
  169SOPE   O1219030   6.697   1.528   6.420  0.1439 -0.0445  0.4701
  169SOPE   O1119031   6.543   1.531   6.614  0.6130 -0.2767  0.4906
  169SOPE    C119032   6.656   1.570   6.697  0.3223  0.9728  0.1907
  169SOPE    HA19033   6.629   1.560   6.805  0.9799  1.2281  0.3776
  169SOPE    HB19034   6.689   1.674   6.682 -0.0326  0.9639 -0.6696
  169SOPE    C219035   6.789   1.483   6.700 -0.0281  0.6797 -0.3072
  169SOPE    HS19036   6.824   1.459   6.597  0.0109 -1.3432  0.1581
  169SOPE   O2119037   6.755   1.364   6.774 -0.3153 -0.1664  0.9794
  169SOPE   C2119038   6.840   1.258   6.762  1.2213 -0.7963 -0.1650
  169SOPE   O2219039   6.938   1.244   6.688  0.5741 -0.2766  0.0132
  169SOPE   C2219040   6.788   1.147   6.857 -0.5219 -0.1471  1.0637
  169SOPE   H2R19041   6.878   1.082   6.867 -1.3052 -1.5892 -0.7871
  169SOPE   H2S19042   6.711   1.088   6.802 -0.9513  1.7279 -0.4148
  169SOPE    C319043   6.899   1.568   6.768 -0.1195 -0.4333  0.3497
  169SOPE    HX19044   6.927   1.644   6.692 -0.2841 -0.0455  0.6710
  169SOPE    HY19045   6.989   1.505   6.780  1.1597  1.4366  0.8353
  169SOPE   O3119046   6.853   1.643   6.887 -0.3195 -0.0324 -0.0268
  169SOPE   C3119047   6.878   1.570   6.999  0.1114 -0.2894 -0.3770
  169SOPE   O3219048   6.954   1.474   7.002 -0.2636  0.0727 -0.2850
  169SOPE   C3219049   6.788   1.625   7.110 -0.4424 -0.0398 -0.4656
  169SOPE   H2X19050   6.687   1.642   7.069 -0.2413  3.1588  0.2584
  169SOPE   H2Y19051   6.844   1.720   7.126  2.9260 -2.2175  1.5230
  169SOPE   C2319052   6.741   1.204   6.991 -0.0728  0.3582  0.0615
  169SOPE   H3R19053   6.648   1.264   6.978  0.6955  1.3480 -0.9516
  169SOPE   H3S19054   6.811   1.277   7.038  0.0038  1.1076 -1.2036
  169SOPE   C2419055   6.733   1.097   7.100  0.8874 -0.5351 -0.2734
  169SOPE   H4R19056   6.659   1.026   7.058 -0.3124  1.4869 -1.6729
  169SOPE   H4S19057   6.834   1.054   7.113  1.1626 -0.0044 -0.6774
  169SOPE   C2519058   6.704   1.151   7.241 -1.0114  0.3827  0.0044
  169SOPE   H5R19059   6.780   1.231   7.259 -1.2051  0.5573  0.0455
  169SOPE   H5S19060   6.602   1.194   7.232 -1.0143  0.2931 -0.4189
  169SOPE   C2619061   6.707   1.037   7.337 -0.5536 -0.4492 -0.3794
  169SOPE   H6R19062   6.660   1.066   7.433  1.0088 -2.6686  1.1247
  169SOPE   H6S19063   6.640   0.965   7.286 -1.4786 -0.9264  1.4751
  169SOPE   C2719064   6.847   0.983   7.365 -0.2084 -0.1856  0.0482
  169SOPE   H7R19065   6.890   0.937   7.274 -0.2021  1.5972 -0.8606
  169SOPE   H7S19066   6.909   1.065   7.406 -2.4220  0.9952  1.1393
  169SOPE   C2819067   6.859   0.845   7.454 -0.3555  1.4850 -0.9372
  169SOPE   H8R19068   6.795   0.773   7.399 -0.5580 -0.4390  1.7115
  169SOPE   H8S19069   6.965   0.813   7.449 -0.8827 -0.2276 -1.3361
  169SOPE   C2919070   6.802   0.846   7.596 -0.1665  0.1738  0.0313
  169SOPE   H9119071   6.693   0.843   7.610 -0.5794  0.6983 -2.7397
  169SOPE  C21019072   6.879   0.840   7.703  0.2076  0.3535 -0.1727
  169SOPE  H10119073   6.833   0.854   7.802  1.8635  3.4888  0.2273
  169SOPE  C21119074   7.028   0.837   7.698  0.2342  0.0390  0.5293
  169SOPE  H11R19075   7.058   0.918   7.627 -0.4897 -1.0669 -1.0771
  169SOPE  H11S19076   7.048   0.739   7.648 -0.0473 -0.2206  0.9265
  169SOPE  C21219077   7.102   0.833   7.840 -0.1281 -0.4572  0.8715
  169SOPE  H12R19078   7.049   0.908   7.903  0.4503 -0.8783  1.8717
  169SOPE  H12S19079   7.207   0.869   7.831 -0.2955  0.1576  1.2758
  169SOPE  C21319080   7.095   0.700   7.917 -0.1010 -0.0056 -0.1745
  169SOPE  H13R19081   7.149   0.626   7.854  0.1652  0.7468 -0.8459
  169SOPE  H13S19082   6.989   0.669   7.932  0.1351 -0.3421  0.7793
  169SOPE  C21419083   7.165   0.716   8.057 -0.3669 -0.6078  0.5903
  169SOPE  H14R19084   7.097   0.774   8.123  0.1348  0.1403  0.4544
  169SOPE  H14S19085   7.259   0.775   8.056  0.2425 -1.5853  0.0167
  169SOPE  C21519086   7.198   0.591   8.130  0.6570 -0.0230  0.0280
  169SOPE  H15R19087   7.284   0.546   8.075  1.3540 -0.2891  1.3229
  169SOPE  H15S19088   7.116   0.516   8.124 -0.4477  0.8746  3.1790
  169SOPE  C21619089   7.245   0.615   8.274 -0.1620 -0.1334 -0.0081
  169SOPE  H16R19090   7.151   0.611   8.334  1.0321 -1.0697  1.8624
  169SOPE  H16S19091   7.299   0.712   8.285 -1.0180  0.2519  0.8495
  169SOPE  C21719092   7.327   0.505   8.338  0.3437  0.9732  0.6854
  169SOPE  H17R19093   7.389   0.537   8.425  3.8737 -0.3477 -1.2705
  169SOPE  H17S19094   7.401   0.468   8.264 -1.6678 -3.1953  0.6546
  169SOPE  C21819095   7.248   0.376   8.386  0.8435  0.1530  0.2077
  169SOPE  H18R19096   7.185   0.345   8.301 -0.7617 -0.5932  1.6359
  169SOPE  H18S19097   7.187   0.395   8.477 -0.0827  0.3095 -0.4387
  169SOPE  H18T19098   7.321   0.294   8.398 -0.1500 -0.8921 -0.7858
  169SOPE   C3319099   6.789   1.550   7.247  0.2096  0.0339  0.6421
  169SOPE   H3X19100   6.760   1.444   7.229  3.2714 -0.6732 -0.4022
  169SOPE   H3Y19101   6.712   1.597   7.311  0.4149  2.7840 -1.0589
  169SOPE   C3419102   6.921   1.566   7.325  0.1649  0.2135 -0.1443
  169SOPE   H4X19103   6.919   1.666   7.372 -1.9702  0.5467 -0.9276
  169SOPE   H4Y19104   7.005   1.556   7.252 -0.7918  0.4951 -1.2931
  169SOPE   C3519105   6.932   1.456   7.430  0.5021 -0.2672 -0.5501
  169SOPE   H5X19106   7.016   1.490   7.493  0.6176  1.5205 -1.6577
  169SOPE   H5Y19107   6.949   1.359   7.378 -3.6858 -0.5557 -1.6122
  169SOPE   C3619108   6.799   1.427   7.508 -0.4100 -0.1733  0.0151
  169SOPE   H6X19109   6.725   1.389   7.434 -0.8043  1.4402 -0.4284
  169SOPE   H6Y19110   6.753   1.521   7.545 -0.9298  0.3625 -1.9235
  169SOPE   C3719111   6.811   1.327   7.624  0.2368 -0.0306  0.2887
  169SOPE   H7X19112   6.907   1.346   7.677  0.0665  0.5813  0.3744
  169SOPE   H7Y19113   6.826   1.227   7.577 -1.3242 -0.3713  0.5091
  169SOPE   C3819114   6.692   1.327   7.724 -0.2431  0.4083 -0.4600
  169SOPE   H8X19115   6.665   1.432   7.750 -0.8084  0.7803 -2.4835
  169SOPE   H8Y19116   6.611   1.277   7.666  1.0359 -1.6268 -0.5212
  169SOPE   C3919117   6.712   1.250   7.852 -0.5868 -0.4297  0.4286
  169SOPE   H9X19118   6.723   1.141   7.835  0.0422 -0.4072  0.6667
  169SOPE   H9Y19119   6.618   1.261   7.910 -1.1455 -0.4216 -0.4670
  169SOPE  C31019120   6.829   1.297   7.933 -0.1200 -0.1981  0.3646
  169SOPE  H10X19121   6.807   1.402   7.962  0.4284  0.1431 -0.4205
  169SOPE  H10Y19122   6.927   1.300   7.881  0.6951  0.1089  1.8971
  169SOPE  C31119123   6.865   1.216   8.063 -0.0748  0.2688  0.5112
  169SOPE  H11X19124   6.926   1.285   8.124  0.0523 -0.7295  1.5391
  169SOPE  H11Y19125   6.927   1.128   8.035  0.5943  0.4804  1.3254
  169SOPE  C31219126   6.741   1.176   8.155 -0.6588 -0.0031  0.1432
  169SOPE  H12X19127   6.679   1.095   8.111 -1.0270 -1.0103  2.4414
  169SOPE  H12Y19128   6.677   1.264   8.177 -0.3103  0.1494  0.5555
  169SOPE  C31319129   6.787   1.121   8.294 -0.0724 -0.1642  0.9528
  169SOPE  H13X19130   6.873   1.053   8.276 -0.5623 -0.6570  0.4629
  169SOPE  H13Y19131   6.698   1.070   8.336 -0.1485 -0.9334 -0.1153
  169SOPE  C31419132   6.828   1.229   8.397 -0.7893 -0.0239  0.2433
  169SOPE  H14X19133   6.739   1.290   8.425 -0.8588  0.1241 -0.3090
  169SOPE  H14Y19134   6.910   1.295   8.364  0.6182 -0.8554  1.9823
  169SOPE  C31519135   6.872   1.157   8.534  0.2151 -0.2613 -0.2104
  169SOPE  H15X19136   6.925   1.061   8.514 -0.9738 -0.7515 -1.1379
  169SOPE  H15Y19137   6.780   1.111   8.576  0.2600  0.5535  0.7774
  169SOPE  C31619138   6.941   1.248   8.634  0.5330  0.5872  0.1491
  169SOPE  H16X19139   6.959   1.187   8.726  1.1852  0.5110 -0.0256
  169SOPE  H16Y19140   6.874   1.334   8.656 -1.6010 -1.0762  0.3558
  169SOPE  C31719141   7.076   1.297   8.583 -0.1607  0.2553  0.2533
  169SOPE  H17X19142   7.063   1.352   8.487 -0.3760  1.9806  1.2464
  169SOPE  H17Y19143   7.140   1.214   8.547  0.3401 -0.5848  2.9862
  169SOPE  C31819144   7.142   1.386   8.678 -0.7724 -0.4284 -0.6506
  169SOPE  H18X19145   7.070   1.469   8.693  1.8765  1.9253 -0.4372
  169SOPE  H18Y19146   7.235   1.437   8.644 -0.6172 -0.4200 -0.2180
  169SOPE  H18Z19147   7.162   1.338   8.776  0.0584 -0.3781 -0.7914
  170SOPE     N19148   0.520   0.001   6.140 -0.2036  0.1448 -0.2369
  170SOPE   HN119149   0.433   0.057   6.132 -0.4955 -0.3234 -0.3677
  170SOPE   HN219150   0.572  -0.014   6.051  0.0414  0.6619 -0.1785
  170SOPE   HN319151   0.484  -0.091   6.175 -0.5491 -0.3153 -1.7363
  170SOPE   C1219152   0.595   0.078   6.238 -0.1715  0.1620 -0.7951
  170SOPE  H12A19153   0.527   0.155   6.278  2.5371  1.3910  1.6089
  170SOPE  H12B19154   0.681   0.128   6.189  1.7255  0.3815  2.6283
  170SOPE   C1119155   0.646  -0.013   6.343  0.3185 -0.7059 -0.4247
  170SOPE  H11A19156   0.724  -0.088   6.318  0.9667 -0.0681 -0.3438
  170SOPE  H11B19157   0.561  -0.066   6.391  0.1110 -0.0473 -0.0671
  170SOPE     P19158   0.841   0.134   6.442  0.0547  0.2162  0.1369
  170SOPE   O1319159   0.823   0.280   6.423 -0.0913  0.4833  0.4018
  170SOPE   O1419160   0.934   0.057   6.350  0.0625 -0.4638  0.2756
  170SOPE   O1219161   0.696   0.070   6.451 -0.1321  0.1980 -1.1341
  170SOPE   O1119162   0.890   0.115   6.589  0.0571 -0.1176  0.0480
  170SOPE    C119163   0.854   0.007   6.671 -0.0877  0.6215 -0.0613
  170SOPE    HA19164   0.869  -0.090   6.620 -0.4916 -0.4810  1.8926
  170SOPE    HB19165   0.748   0.013   6.702 -0.4840 -0.3589 -1.2043
  170SOPE    C219166   0.945  -0.010   6.794 -0.1227 -0.1777 -0.1519
  170SOPE    HS19167   1.048   0.011   6.758  0.3432 -1.6005  0.3206
  170SOPE   O2119168   0.932  -0.144   6.849 -0.7939 -0.1038 -0.2145
  170SOPE   C2119169   1.044  -0.202   6.883 -0.2981 -0.3028  0.6651
  170SOPE   O2219170   1.156  -0.154   6.873 -0.0606  0.5784 -0.4232
  170SOPE   C2219171   1.018  -0.341   6.934 -0.2390  0.7052 -0.7660
  170SOPE   H2R19172   1.116  -0.373   6.976 -0.3907 -0.2880 -1.1489
  170SOPE   H2S19173   0.984  -0.411   6.854 -0.1369 -0.9381  0.5914
  170SOPE    C319174   0.909   0.093   6.908 -0.0397 -0.0149 -0.0808
  170SOPE    HX19175   0.803   0.072   6.930  0.1325 -3.2725 -1.9673
  170SOPE    HY19176   0.931   0.192   6.862 -2.6195 -0.5570 -2.6217
  170SOPE   O3119177   0.988   0.078   7.029 -0.4472  0.7106  0.1126
  170SOPE   C3119178   1.107   0.127   7.042 -0.2190  0.1981 -0.1279
  170SOPE   O3219179   1.164   0.196   6.957  0.4030 -0.6515 -0.0760
  170SOPE   C3219180   1.165   0.101   7.182 -0.2122  0.9496 -0.1497
  170SOPE   H2X19181   1.236   0.182   7.207 -1.7047  1.3488  3.1294
  170SOPE   H2Y19182   1.226   0.008   7.175 -0.9399  0.6166 -2.5057
  170SOPE   C2319183   0.910  -0.336   7.041  0.0170 -0.2591 -0.1414
  170SOPE   H3R19184   0.807  -0.351   7.003  0.4895 -1.3425 -1.0044
  170SOPE   H3S19185   0.908  -0.238   7.094  1.9395  0.3377 -1.0945
  170SOPE   C2419186   0.923  -0.442   7.149 -0.0764 -0.2423 -0.0199
  170SOPE   H4R19187   1.019  -0.438   7.205  1.3075 -0.0301 -2.3417
  170SOPE   H4S19188   0.849  -0.424   7.230  0.2802  0.8007  0.0782
  170SOPE   C2519189   0.901  -0.586   7.099  0.1478 -0.0814 -0.5401
  170SOPE   H5R19190   0.800  -0.585   7.052  0.8361  0.5972 -2.0128
  170SOPE   H5S19191   0.963  -0.617   7.013 -0.7569 -2.0200 -0.5151
  170SOPE   C2619192   0.931  -0.689   7.208  0.2693  0.0892 -0.4714
  170SOPE   H6R19193   0.944  -0.782   7.148  0.5474  1.2781 -2.2840
  170SOPE   H6S19194   1.019  -0.659   7.269  0.2293 -0.6832 -0.0260
  170SOPE   C2719195   0.813  -0.726   7.302 -0.1113  0.6508  0.2172
  170SOPE   H7R19196   0.743  -0.641   7.314 -1.8853 -0.6004 -1.0384
  170SOPE   H7S19197   0.748  -0.802   7.253 -0.4607  0.2374  1.2919
  170SOPE   C2819198   0.868  -0.771   7.439 -0.2259 -0.6934  0.3950
  170SOPE   H8R19199   0.928  -0.863   7.424 -5.2295 -4.5475  2.5689
  170SOPE   H8S19200   0.937  -0.690   7.471  0.1471 -1.3907  1.3850
  170SOPE   C2919201   0.769  -0.800   7.546 -0.2151 -0.0828 -0.0365
  170SOPE   H9119202   0.686  -0.864   7.512 -0.0971 -0.5627  0.5743
  170SOPE  C21019203   0.776  -0.753   7.668 -0.3721  0.4397  0.1012
  170SOPE  H10119204   0.697  -0.779   7.741 -1.9800  1.1225 -1.3475
  170SOPE  C21119205   0.882  -0.659   7.729 -0.0574  0.0449  0.1126
  170SOPE  H11R19206   0.831  -0.567   7.764 -0.7385 -0.0612 -0.5936
  170SOPE  H11S19207   0.957  -0.617   7.658 -0.1877  0.6620  0.3372
  170SOPE  C21219208   0.960  -0.727   7.843  0.9920 -0.0988 -0.4502
  170SOPE  H12R19209   1.016  -0.806   7.788 -1.9567 -1.3226 -1.7524
  170SOPE  H12S19210   0.891  -0.768   7.920  0.3258 -0.5237 -1.2709
  170SOPE  C21319211   1.059  -0.643   7.917  0.4287 -1.6246 -0.7805
  170SOPE  H13R19212   1.111  -0.580   7.843  1.5093 -1.9527 -0.3082
  170SOPE  H13S19213   1.126  -0.717   7.964 -0.5918 -0.5905  2.4668
  170SOPE  C21419214   0.997  -0.544   8.020 -0.2804 -0.5318 -0.5101
  170SOPE  H14R19215   0.890  -0.533   7.992 -0.1289  1.3757 -0.4207
  170SOPE  H14S19216   1.034  -0.440   8.008 -0.4168 -0.3841  0.3020
  170SOPE  C21519217   1.001  -0.581   8.169  0.1486  0.0437 -0.1220
  170SOPE  H15R19218   0.934  -0.516   8.229 -1.1532 -1.6285  0.2785
  170SOPE  H15S19219   1.106  -0.579   8.204 -0.3842 -0.9124  1.5882
  170SOPE  C21619220   0.948  -0.718   8.195  0.7434 -0.5611 -0.1188
  170SOPE  H16R19221   0.990  -0.787   8.119  1.8229 -0.0312 -0.0116
  170SOPE  H16S19222   0.837  -0.722   8.195  0.7371 -0.4089  0.2095
  170SOPE  C21719223   0.972  -0.766   8.338 -0.5504  0.0311  0.5711
  170SOPE  H17R19224   0.879  -0.820   8.369 -1.2708  0.2898 -1.0748
  170SOPE  H17S19225   0.973  -0.696   8.424  0.1003 -1.4642  1.8045
  170SOPE  C21819226   1.091  -0.858   8.342 -0.0170 -0.5184 -0.5051
  170SOPE  H18R19227   1.183  -0.818   8.295 -0.5920  1.1813 -0.2113
  170SOPE  H18S19228   1.061  -0.956   8.299 -1.8338 -0.2509  0.0859
  170SOPE  H18T19229   1.126  -0.868   8.447  1.1428  0.2882 -0.8076
  170SOPE   C3319230   1.050   0.090   7.283  0.2523  0.0100 -0.4084
  170SOPE   H3X19231   0.977   0.173   7.272  0.4839  0.6437  2.5173
  170SOPE   H3Y19232   1.098   0.108   7.381 -0.6633 -1.5886  0.3430
  170SOPE   C3419233   0.975  -0.045   7.307 -0.4579  0.2649  0.0297
  170SOPE   H4X19234   1.055  -0.120   7.321  0.2571  1.0133 -0.0359
  170SOPE   H4Y19235   0.923  -0.080   7.215 -3.6348  4.2662  0.1399
  170SOPE   C3519236   0.883  -0.032   7.424 -1.2334  0.4233 -0.2949
  170SOPE   H5X19237   0.812   0.051   7.410 -0.7100  0.7407 -1.1278
  170SOPE   H5Y19238   0.950  -0.015   7.512 -0.9393 -0.3526 -0.3632
  170SOPE   C3619239   0.804  -0.159   7.442 -0.2551 -0.5695 -0.7748
  170SOPE   H6X19240   0.773  -0.164   7.548  1.9640  0.6793 -0.0506
  170SOPE   H6Y19241   0.866  -0.248   7.421  0.4595 -0.2119 -0.1824
  170SOPE   C3719242   0.682  -0.175   7.348 -0.1806 -0.7072 -0.2824
  170SOPE   H7X19243   0.721  -0.190   7.245 -1.3445 -1.1724 -0.6610
  170SOPE   H7Y19244   0.610  -0.090   7.357  0.7728  0.2275 -1.2964
  170SOPE   C3819245   0.598  -0.299   7.380  0.0114 -0.3359 -0.4057
  170SOPE   H8X19246   0.651  -0.395   7.364  2.7304  1.4798 -2.7014
  170SOPE   H8Y19247   0.515  -0.281   7.308  0.2268 -0.6722 -0.7447
  170SOPE   C3919248   0.531  -0.303   7.521 -0.3203 -0.4503 -1.2380
  170SOPE   H9X19249   0.421  -0.317   7.513 -0.1865 -0.4885 -3.5932
  170SOPE   H9Y19250   0.540  -0.195   7.547  0.4509 -0.8742  0.2835
  170SOPE  C31019251   0.607  -0.383   7.632 -0.0230  0.5559  1.1370
  170SOPE  H10X19252   0.717  -0.384   7.619 -0.0638  1.9960  0.5800
  170SOPE  H10Y19253   0.574  -0.489   7.627 -0.9047  0.9023 -1.5436
  170SOPE  C31119254   0.573  -0.326   7.772  0.4523  0.1154  0.7734
  170SOPE  H11X19255   0.464  -0.308   7.782  0.7288  0.7409  2.7271
  170SOPE  H11Y19256   0.620  -0.226   7.783 -0.7412  0.7273  0.4484
  170SOPE  C31219257   0.625  -0.413   7.888 -0.8737 -0.1789  0.2611
  170SOPE  H12X19258   0.736  -0.424   7.888 -0.9852 -1.3438 -0.4741
  170SOPE  H12Y19259   0.589  -0.518   7.879 -0.5931 -0.2076 -0.5502
  170SOPE  C31319260   0.580  -0.369   8.027 -0.3300  0.5812  0.1236
  170SOPE  H13X19261   0.471  -0.386   8.039  0.3659 -2.3579  3.0940
  170SOPE  H13Y19262   0.608  -0.263   8.045  0.9895  0.2836 -0.0831
  170SOPE  C31419263   0.638  -0.466   8.135 -0.3294  0.0139 -1.1957
  170SOPE  H14X19264   0.749  -0.460   8.130 -0.2954  1.6421  0.9089
  170SOPE  H14Y19265   0.619  -0.573   8.110  2.6625 -0.8926  0.2246
  170SOPE  C31519266   0.594  -0.430   8.270 -0.9936 -0.4487  0.6978
  170SOPE  H15X19267   0.603  -0.320   8.279 -0.6011 -0.3575 -0.5741
  170SOPE  H15Y19268   0.664  -0.479   8.341  1.0932 -0.2793 -1.1685
  170SOPE  C31619269   0.453  -0.484   8.292  1.0837 -0.9526  0.4150
  170SOPE  H16X19270   0.446  -0.595   8.294  0.5823 -0.9213  3.7506
  170SOPE  H16Y19271   0.388  -0.440   8.214 -3.6949  0.4266  4.8426
  170SOPE  C31719272   0.392  -0.450   8.435 -0.5541  0.4428 -0.3089
  170SOPE  H17X19273   0.392  -0.339   8.440 -0.8512  0.4137  0.3483
  170SOPE  H17Y19274   0.470  -0.489   8.503 -0.9539  0.0405 -0.0796
  170SOPE  C31819275   0.256  -0.513   8.455 -0.0665 -0.2279  0.5199
  170SOPE  H18X19276   0.183  -0.459   8.390 -1.0124 -0.5524  1.2995
  170SOPE  H18Y19277   0.218  -0.501   8.559 -0.6501  0.1404  0.2677
  170SOPE  H18Z19278   0.263  -0.621   8.431 -0.0652 -0.2647  0.6883
  171SOPE     N19279   1.084   2.506   6.567  0.3676  0.4475 -0.0422
  171SOPE   HN119280   1.154   2.518   6.491  1.6164  1.5514  1.2576
  171SOPE   HN219281   1.114   2.436   6.639  0.2636  1.4165  0.9499
  171SOPE   HN319282   0.995   2.472   6.527 -0.6454  1.8836  0.9721
  171SOPE   C1219283   1.066   2.639   6.636  0.5097 -0.0613 -0.2268
  171SOPE  H12A19284   1.165   2.664   6.681  0.0101  1.6766 -0.0521
  171SOPE  H12B19285   0.991   2.628   6.717 -0.8080 -0.4742 -1.4693
  171SOPE   C1119286   1.027   2.759   6.541  0.1106  0.3648 -0.8425
  171SOPE  H11A19287   1.010   2.843   6.612 -2.5617 -0.0073 -0.9936
  171SOPE  H11B19288   0.929   2.733   6.495  1.1625 -2.3493 -1.6334
  171SOPE     P19289   1.126   2.870   6.327  0.2613 -0.1569  0.0168
  171SOPE   O1319290   0.986   2.885   6.281  0.3650  0.3530 -0.1438
  171SOPE   O1419291   1.219   2.828   6.229 -0.0894  0.3528  0.5037
  171SOPE   O1219292   1.127   2.775   6.447  0.9438  0.1959  0.4138
  171SOPE   O1119293   1.176   3.007   6.391 -0.2254 -0.0677  0.4914
  171SOPE    C119294   1.316   3.017   6.425 -0.2552  0.2862  0.6267
  171SOPE    HA19295   1.347   3.123   6.413  1.1935 -0.5700 -4.4525
  171SOPE    HB19296   1.380   2.958   6.356 -1.0007 -0.7468  0.8240
  171SOPE    C219297   1.329   2.963   6.577  0.5161  0.3918  0.9551
  171SOPE    HS19298   1.294   2.858   6.585 -0.3952  0.5272 -0.8991
  171SOPE   O2119299   1.256   3.043   6.667  0.1449  0.2004  0.3409
  171SOPE   C2119300   1.196   2.993   6.768 -0.1182  0.0837  0.6974
  171SOPE   O2219301   1.181   2.873   6.799  0.0225 -0.3368 -0.0763
  171SOPE   C2219302   1.143   3.113   6.851  0.3991  0.0415 -0.2731
  171SOPE   H2R19303   1.069   3.170   6.790  0.0238 -1.9609 -1.7711
  171SOPE   H2S19304   1.224   3.179   6.888 -0.4263  1.6450 -1.2576
  171SOPE    C319305   1.479   2.965   6.613 -0.3070  0.2856 -0.0681
  171SOPE    HX19306   1.515   3.064   6.578 -1.3702  0.2177 -1.3984
  171SOPE    HY19307   1.525   2.881   6.557 -1.7625 -0.4555 -0.1602
  171SOPE   O3119308   1.502   2.953   6.756 -0.3665 -0.2569  0.0307
  171SOPE   C3119309   1.532   2.830   6.806  0.2516  0.1067 -0.1803
  171SOPE   O3219310   1.508   2.726   6.747 -0.0575 -0.3300 -0.1213
  171SOPE   C3219311   1.562   2.850   6.956  0.3936  0.5570 -0.2881
  171SOPE   H2X19312   1.590   2.957   6.972  0.4323  0.2884  1.5829
  171SOPE   H2Y19313   1.656   2.791   6.959 -0.6080 -1.0723 -0.6373
  171SOPE   C2319314   1.077   3.056   6.985  0.4388 -0.0654 -0.0414
  171SOPE   H3R19315   1.143   3.004   7.058  0.0994 -0.9717 -0.3735
  171SOPE   H3S19316   0.985   3.000   6.959  1.1505 -2.1409  1.7207
  171SOPE   C2419317   1.011   3.184   7.052 -1.2009  0.8211  0.3480
  171SOPE   H4R19318   1.084   3.264   7.079  0.4952 -0.0474 -1.5605
  171SOPE   H4S19319   0.944   3.225   6.973 -1.2472  0.7594  0.3545
  171SOPE   C2519320   0.914   3.145   7.167 -0.1601  0.0883  0.8208
  171SOPE   H5R19321   0.855   3.057   7.134 -1.0482 -0.4965  3.8120
  171SOPE   H5S19322   0.978   3.117   7.254 -0.3937 -2.1580  0.3062
  171SOPE   C2619323   0.816   3.255   7.193 -0.3077  0.0538 -0.1521
  171SOPE   H6R19324   0.864   3.356   7.194  1.1000 -0.5041 -3.8909
  171SOPE   H6S19325   0.754   3.251   7.102  0.3185 -3.7646 -0.4877
  171SOPE   C2719326   0.721   3.222   7.309  0.7378 -0.6304  0.1173
  171SOPE   H7R19327   0.632   3.288   7.315  1.0092 -0.4399  2.4616
  171SOPE   H7S19328   0.679   3.119   7.300  0.0274 -0.2893 -0.5892
  171SOPE   C2819329   0.788   3.235   7.449 -0.5038 -0.2870 -0.3959
  171SOPE   H8R19330   0.754   3.153   7.516  0.6589 -0.2393  0.2659
  171SOPE   H8S19331   0.896   3.221   7.430 -0.3036 -2.5851  2.1765
  171SOPE   C2919332   0.771   3.370   7.515 -0.2660  0.3644  0.5535
  171SOPE   H9119333   0.830   3.457   7.481 -1.4358  0.8691 -0.2122
  171SOPE  C21019334   0.681   3.400   7.600 -0.6768 -0.4315 -0.2158
  171SOPE  H10119335   0.686   3.500   7.646  0.1816 -1.6485  2.4651
  171SOPE  C21119336   0.580   3.310   7.671  0.2013  0.3576  0.5925
  171SOPE  H11R19337   0.559   3.214   7.619 -0.3322  1.4579 -1.2643
  171SOPE  H11S19338   0.486   3.366   7.686  0.2862  0.6034  0.2242
  171SOPE  C21219339   0.608   3.251   7.809 -0.1286 -0.1203  0.4248
  171SOPE  H12R19340   0.700   3.189   7.800  0.2922  0.5596 -0.0236
  171SOPE  H12S19341   0.519   3.191   7.837  0.6791 -2.1013 -1.1234
  171SOPE  C21319342   0.638   3.360   7.918 -0.8032  0.2579  0.2533
  171SOPE  H13R19343   0.690   3.453   7.885 -1.1555  0.1192 -0.7051
  171SOPE  H13S19344   0.717   3.322   7.986  2.4482  2.5387 -2.0646
  171SOPE  C21419345   0.523   3.394   8.004 -0.1138  0.6398 -0.8303
  171SOPE  H14R19346   0.467   3.302   8.031 -1.8076  2.1533  0.9618
  171SOPE  H14S19347   0.464   3.466   7.944 -0.5189  1.2583  0.3040
  171SOPE  C21519348   0.562   3.456   8.143 -0.5610 -0.1886 -0.4573
  171SOPE  H15R19349   0.631   3.541   8.125 -1.8857  0.7325 -1.2820
  171SOPE  H15S19350   0.613   3.391   8.217 -0.9847 -1.4529 -1.2601
  171SOPE  C21619351   0.438   3.510   8.220  0.1570  0.1518  0.7704
  171SOPE  H16R19352   0.361   3.431   8.225 -0.3140  0.5173 -0.4276
  171SOPE  H16S19353   0.379   3.588   8.166 -1.2514 -1.0502  0.5571
  171SOPE  C21719354   0.480   3.566   8.353 -0.8409  0.7744 -0.5269
  171SOPE  H17R19355   0.533   3.660   8.326 -0.5795  1.0228  0.8041
  171SOPE  H17S19356   0.565   3.505   8.392 -1.3017  0.3210 -0.2241
  171SOPE  C21819357   0.380   3.587   8.464 -0.1353 -0.3411 -0.4397
  171SOPE  H18R19358   0.298   3.641   8.413 -1.5148  0.3597  2.3870
  171SOPE  H18S19359   0.412   3.665   8.537 -1.0202  0.1566 -0.5768
  171SOPE  H18T19360   0.348   3.488   8.502  0.7786  0.0294  1.3506
  171SOPE   C3319361   1.447   2.815   7.052 -0.1014 -0.4488 -0.4138
  171SOPE   H3X19362   1.413   2.710   7.038  0.0803 -0.3718 -1.4784
  171SOPE   H3Y19363   1.355   2.876   7.039 -1.7055 -2.9158 -1.1618
  171SOPE   C3419364   1.491   2.836   7.199  0.0718 -0.0753  0.1614
  171SOPE   H4X19365   1.520   2.941   7.221  0.5633  0.1541 -1.5609
  171SOPE   H4Y19366   1.583   2.779   7.225  1.0707  1.0222 -0.9217
  171SOPE   C3519367   1.372   2.789   7.293  0.1172  0.4273 -0.4676
  171SOPE   H5X19368   1.313   2.704   7.253 -0.6199  1.4343 -1.5511
  171SOPE   H5Y19369   1.296   2.870   7.288  0.6283  0.9956  0.7006
  171SOPE   C3619370   1.423   2.773   7.432 -0.6951  0.2567 -0.2187
  171SOPE   H6X19371   1.473   2.869   7.455  1.6774 -1.3005  1.3417
  171SOPE   H6Y19372   1.504   2.697   7.433  1.0938  2.1273  0.2750
  171SOPE   C3719373   1.320   2.711   7.529 -0.6434 -0.0590  0.6280
  171SOPE   H7X19374   1.313   2.601   7.513 -1.2181  0.4406 -3.0249
  171SOPE   H7Y19375   1.216   2.747   7.515 -0.2154  0.8632 -0.2192
  171SOPE   C3819376   1.362   2.749   7.668  0.1154 -0.1309 -0.2238
  171SOPE   H8X19377   1.350   2.858   7.688 -0.3278 -0.6639  2.5033
  171SOPE   H8Y19378   1.469   2.725   7.678 -0.0810  0.0272  2.6817
  171SOPE   C3919379   1.293   2.667   7.783 -0.3433 -1.3719  0.1597
  171SOPE   H9X19380   1.317   2.563   7.752  2.1119 -0.5641 -0.7203
  171SOPE   H9Y19381   1.183   2.682   7.769  0.0169  1.3860  0.0504
  171SOPE  C31019382   1.348   2.697   7.928 -0.5142 -0.3752 -0.1795
  171SOPE  H10X19383   1.338   2.806   7.947 -1.5767 -0.5368  0.2192
  171SOPE  H10Y19384   1.455   2.666   7.922  0.2513  2.5727 -2.9267
  171SOPE  C31119385   1.270   2.617   8.045  0.1335  0.1465 -0.1983
  171SOPE  H11X19386   1.163   2.648   8.044  0.0376 -0.1921 -1.4405
  171SOPE  H11Y19387   1.314   2.655   8.139 -2.1715  0.4253  0.8032
  171SOPE  C31219388   1.273   2.465   8.031 -0.6327  0.0119 -0.4542
  171SOPE  H12X19389   1.370   2.415   8.051 -0.8407  0.0320  0.6236
  171SOPE  H12Y19390   1.245   2.428   7.930  0.5294 -0.0016 -0.7714
  171SOPE  C31319391   1.180   2.397   8.131  0.3825  0.8273  0.5600
  171SOPE  H13X19392   1.199   2.291   8.103  1.5523  1.6982 -2.0734
  171SOPE  H13Y19393   1.079   2.420   8.092  1.2767 -0.5931 -2.7198
  171SOPE  C31419394   1.202   2.432   8.278  0.8125  0.2641  0.9643
  171SOPE  H14X19395   1.195   2.541   8.296 -2.2016  0.0144  1.5196
  171SOPE  H14Y19396   1.304   2.403   8.312  0.7888 -0.1304  0.7085
  171SOPE  C31519397   1.091   2.363   8.359 -0.4907  0.2074 -0.1946
  171SOPE  H15X19398   0.994   2.414   8.342 -0.0105  1.6881  1.3294
  171SOPE  H15Y19399   1.114   2.391   8.464  0.1987  0.4992 -0.4196
  171SOPE  C31619400   1.088   2.205   8.356 -0.0730  0.0787 -0.1186
  171SOPE  H16X19401   1.195   2.176   8.356  0.8905  3.2951 -2.5663
  171SOPE  H16Y19402   1.037   2.176   8.262 -0.8353 -2.2698  0.9754
  171SOPE  C31719403   1.023   2.143   8.483 -0.5105 -0.5533  0.2205
  171SOPE  H17X19404   1.092   2.172   8.564 -2.0535 -1.7006  1.9975
  171SOPE  H17Y19405   1.017   2.032   8.477  2.8896 -0.6962 -1.7109
  171SOPE  C31819406   0.879   2.193   8.511  0.0139  0.6850  0.1161
  171SOPE  H18X19407   0.808   2.167   8.430 -0.3133  0.1582  0.5651
  171SOPE  H18Y19408   0.881   2.303   8.521 -0.2253  0.6927  0.0811
  171SOPE  H18Z19409   0.833   2.156   8.605  0.6942 -1.4000 -0.3371
  172SOPE     N19410   1.159   4.480   6.365 -0.2475 -0.3382  0.5494
  172SOPE   HN119411   1.062   4.465   6.330  0.1011 -1.0150 -0.1493
  172SOPE   HN219412   1.212   4.403   6.319  1.7389 -0.8121  3.4944
  172SOPE   HN319413   1.150   4.478   6.469 -0.9627  0.2110  0.5006
  172SOPE   C1219414   1.225   4.615   6.327 -0.3655  0.1044 -0.1602
  172SOPE  H12A19415   1.139   4.682   6.350  0.3566 -0.1104  3.4135
  172SOPE  H12B19416   1.238   4.621   6.217  1.8554 -0.2674  0.0690
  172SOPE   C1119417   1.353   4.654   6.398 -0.1394  0.3708  0.1612
  172SOPE  H11A19418   1.335   4.634   6.506 -2.1742  0.7391 -0.0908
  172SOPE  H11B19419   1.373   4.763   6.395 -2.3385  0.8104  1.1955
  172SOPE     P19420   1.528   4.476   6.429 -0.0479  0.0292  0.0747
  172SOPE   O1319421   1.632   4.396   6.354 -0.2435 -0.2571 -1.1720
  172SOPE   O1419422   1.417   4.393   6.487 -0.0410 -0.3672  0.0255
  172SOPE   O1219423   1.471   4.594   6.341  0.2674 -0.4952 -0.0101
  172SOPE   O1119424   1.588   4.561   6.552 -0.4614  0.1711 -0.3563
  172SOPE    C119425   1.731   4.572   6.562 -0.0004  0.1840  0.6915
  172SOPE    HA19426   1.766   4.633   6.476  0.0866  0.3207  0.8243
  172SOPE    HB19427   1.788   4.477   6.568 -0.1485  0.0672  0.2696
  172SOPE    C219428   1.763   4.656   6.687 -0.3742  0.0140  0.4917
  172SOPE    HS19429   1.871   4.679   6.689 -0.0406 -1.1005 -2.0912
  172SOPE   O2119430   1.720   4.587   6.808  0.2170  0.1023 -0.7540
  172SOPE   C2119431   1.807   4.509   6.867 -0.4945 -0.2232  0.2695
  172SOPE   O2219432   1.920   4.479   6.823  0.9188 -0.5061 -0.3971
  172SOPE   C2219433   1.751   4.471   7.008  0.1857 -0.8523 -0.3532
  172SOPE   H2R19434   1.750   4.361   7.017  0.7737 -0.7240  1.5134
  172SOPE   H2S19435   1.646   4.504   7.026  0.4467  1.6115 -2.9460
  172SOPE    C319436   1.695   4.796   6.682 -0.5326  0.0867 -0.3954
  172SOPE    HX19437   1.589   4.764   6.684 -0.9344  1.4826  1.8517
  172SOPE    HY19438   1.705   4.847   6.584 -1.8494  0.6558 -0.2499
  172SOPE   O3119439   1.717   4.877   6.797 -0.2771 -0.2196 -0.0231
  172SOPE   C3119440   1.838   4.939   6.790  0.8100 -0.4644  0.3235
  172SOPE   O3219441   1.923   4.920   6.700  0.0303  0.2116  0.1137
  172SOPE   C3219442   1.845   5.022   6.913 -0.0578 -0.2099  0.2282
  172SOPE   H2X19443   1.752   5.083   6.917 -1.4774 -2.3867  2.1304
  172SOPE   H2Y19444   1.932   5.090   6.909 -0.6508  0.5305 -0.1118
  172SOPE   C2319445   1.841   4.522   7.116 -0.2968  0.0711  0.6944
  172SOPE   H3R19446   1.847   4.633   7.103  2.3535 -0.3969 -2.5835
  172SOPE   H3S19447   1.948   4.501   7.098 -0.2197  0.9438  0.0891
  172SOPE   C2419448   1.796   4.494   7.258  0.7023  0.0779  0.3611
  172SOPE   H4R19449   1.687   4.513   7.266  0.7016  0.2051  0.0183
  172SOPE   H4S19450   1.810   4.387   7.286  0.5794  0.1855  0.8397
  172SOPE   C2519451   1.861   4.586   7.358 -0.4476  0.4616 -0.3573
  172SOPE   H5R19452   1.963   4.547   7.375 -1.5935 -2.7537 -0.5098
  172SOPE   H5S19453   1.888   4.685   7.315  1.1826 -0.9940 -2.7397
  172SOPE   C2619454   1.782   4.594   7.492  0.0527  0.2727  0.1829
  172SOPE   H6R19455   1.696   4.663   7.479 -1.6968 -2.3216 -2.6508
  172SOPE   H6S19456   1.743   4.491   7.511  1.1430 -0.0725  0.5612
  172SOPE   C2719457   1.854   4.648   7.611 -0.3554  0.1623 -0.4753
  172SOPE   H7R19458   1.948   4.589   7.625 -0.4024 -0.5853 -3.0972
  172SOPE   H7S19459   1.880   4.755   7.596  0.0892  0.5716  2.8108
  172SOPE   C2819460   1.780   4.644   7.742 -0.0255 -0.6512 -0.1387
  172SOPE   H8R19461   1.687   4.703   7.737 -1.4911 -2.9294 -0.3946
  172SOPE   H8S19462   1.741   4.542   7.764 -2.0587  0.4937  1.6994
  172SOPE   C2919463   1.869   4.676   7.863  0.0203  0.5649  0.0087
  172SOPE   H9119464   1.971   4.709   7.839 -0.4579  2.6431  0.7465
  172SOPE  C21019465   1.830   4.668   7.997  0.4680  0.0466  0.1555
  172SOPE  H10119466   1.897   4.704   8.077 -0.1164  1.4547  0.0219
  172SOPE  C21119467   1.698   4.623   8.047  0.0272 -0.1655  0.2019
  172SOPE  H11R19468   1.620   4.611   7.969  1.0199  0.8935 -0.9804
  172SOPE  H11S19469   1.650   4.702   8.109 -1.3090 -0.1529 -0.8239
  172SOPE  C21219470   1.710   4.483   8.099  0.0710 -0.8763 -0.2336
  172SOPE  H12R19471   1.769   4.483   8.193  1.4283  1.0987 -1.0620
  172SOPE  H12S19472   1.758   4.409   8.031 -1.0574 -1.4759 -0.3923
  172SOPE  C21319473   1.574   4.414   8.120  0.0072  0.5904  0.8091
  172SOPE  H13R19474   1.516   4.431   8.027 -1.4682  1.5695  1.8850
  172SOPE  H13S19475   1.519   4.479   8.191 -0.1190  3.8659 -2.1368
  172SOPE  C21419476   1.575   4.272   8.158 -0.1988  0.0507 -0.2069
  172SOPE  H14R19477   1.645   4.246   8.240 -1.3429 -1.0063  0.4567
  172SOPE  H14S19478   1.590   4.205   8.070 -1.1442 -1.0462  0.4575
  172SOPE  C21519479   1.438   4.237   8.221 -0.6504 -0.3033  0.4351
  172SOPE  H15R19480   1.408   4.130   8.221 -1.3158 -0.1187 -0.0952
  172SOPE  H15S19481   1.360   4.287   8.160 -2.0201 -1.9089  0.8350
  172SOPE  C21619482   1.428   4.293   8.366  0.6469  0.9405 -0.5055
  172SOPE  H16R19483   1.407   4.401   8.380 -2.8660  0.2906 -0.4310
  172SOPE  H16S19484   1.526   4.275   8.417  0.6994 -0.8129 -1.1951
  172SOPE  C21719485   1.321   4.214   8.451 -0.3588 -0.1721  0.1087
  172SOPE  H17R19486   1.313   4.256   8.554 -0.3055  0.4108 -0.1250
  172SOPE  H17S19487   1.353   4.109   8.471  1.6096  0.1571 -1.0778
  172SOPE  C21819488   1.187   4.226   8.402 -0.5224  0.6807  0.0925
  172SOPE  H18R19489   1.120   4.161   8.462  0.4995 -0.5779 -0.0922
  172SOPE  H18S19490   1.177   4.193   8.296  0.9094  1.5128 -0.3070
  172SOPE  H18T19491   1.156   4.332   8.397 -1.6303  0.3449 -0.1904
  172SOPE   C3319492   1.855   4.927   7.037 -0.2335 -0.4163 -0.8476
  172SOPE   H3X19493   1.955   4.878   7.033  0.6514  1.1442  1.3568
  172SOPE   H3Y19494   1.772   4.852   7.031 -0.6154 -0.0992  0.3046
  172SOPE   C3419495   1.849   4.996   7.177 -0.7421 -0.1782  0.2959
  172SOPE   H4X19496   1.936   5.062   7.197 -0.9958  0.4735 -0.7376
  172SOPE   H4Y19497   1.856   4.911   7.248  3.7670 -0.7399 -0.6942
  172SOPE   C3519498   1.722   5.083   7.195  0.0533 -0.0394  0.1777
  172SOPE   H5X19499   1.625   5.050   7.151 -0.1841  1.2834 -0.3373
  172SOPE   H5Y19500   1.735   5.179   7.139  0.6685  0.3208  0.9365
  172SOPE   C3619501   1.696   5.123   7.340 -0.4674 -0.4495 -0.3962
  172SOPE   H6X19502   1.624   5.208   7.352  0.6199  0.4204  0.0939
  172SOPE   H6Y19503   1.793   5.147   7.388  0.0616 -2.4024 -0.4813
  172SOPE   C3719504   1.630   5.004   7.427  0.6491 -0.7316  0.5527
  172SOPE   H7X19505   1.694   4.913   7.425  1.3089 -0.2841  1.1534
  172SOPE   H7Y19506   1.548   4.976   7.358  0.6806  1.1449 -0.2713
  172SOPE   C3819507   1.587   5.041   7.571  0.2268  0.6655 -0.4901
  172SOPE   H8X19508   1.521   4.971   7.626  0.2904  1.3330  0.4394
  172SOPE   H8Y19509   1.529   5.135   7.577 -0.4858  0.1270  1.3455
  172SOPE   C3919510   1.711   5.053   7.659  0.4861 -0.3642  0.1349
  172SOPE   H9X19511   1.787   5.110   7.601  1.7162 -0.9162  1.1673
  172SOPE   H9Y19512   1.756   4.957   7.693  2.4165  0.7818  0.8917
  172SOPE  C31019513   1.680   5.124   7.791 -0.3166 -0.2971 -0.4283
  172SOPE  H10X19514   1.617   5.214   7.777 -2.2168 -1.7382 -1.4041
  172SOPE  H10Y19515   1.780   5.147   7.832 -0.0753  2.0009 -2.2614
  172SOPE  C31119516   1.618   5.027   7.896  0.1992 -0.0246 -0.1646
  172SOPE  H11X19517   1.698   4.961   7.936 -1.1584 -0.1181  2.4587
  172SOPE  H11Y19518   1.547   4.961   7.841 -0.0204  1.1512 -1.3255
  172SOPE  C31219519   1.552   5.110   8.007  0.7975 -0.1699 -0.4371
  172SOPE  H12X19520   1.468   5.167   7.962  2.4354  1.2826 -1.7298
  172SOPE  H12Y19521   1.627   5.187   8.033  1.2956 -0.5032 -0.8642
  172SOPE  C31319522   1.509   5.041   8.142  0.5071  0.1488 -0.0073
  172SOPE  H13X19523   1.596   5.004   8.200  1.7952  1.2122 -1.2234
  172SOPE  H13Y19524   1.434   4.961   8.120 -2.2151  2.1272  1.8615
  172SOPE  C31419525   1.438   5.136   8.233  0.0676 -0.5731  0.3095
  172SOPE  H14X19526   1.360   5.192   8.178 -1.2731  0.4950  3.2166
  172SOPE  H14Y19527   1.509   5.218   8.258 -0.2520 -1.1371  3.2487
  172SOPE  C31519528   1.379   5.062   8.357  0.1818  0.2973  0.3029
  172SOPE  H15X19529   1.456   4.987   8.384  2.8324  2.8388  0.0387
  172SOPE  H15Y19530   1.281   5.023   8.324  0.6764 -1.5842  1.0044
  172SOPE  C31619531   1.345   5.138   8.492 -0.3753 -0.6874  0.4345
  172SOPE  H16X19532   1.267   5.215   8.473  1.3566  0.7616 -0.9607
  172SOPE  H16Y19533   1.432   5.194   8.531 -1.6088  1.7167 -0.1621
  172SOPE  C31719534   1.289   5.046   8.604  0.1759  0.4496  0.1495
  172SOPE  H17X19535   1.350   4.953   8.605  1.1826  1.0554 -1.9079
  172SOPE  H17Y19536   1.186   5.009   8.583  0.5199 -2.0336  2.5062
  172SOPE  C31819537   1.276   5.110   8.743 -0.0197  0.3222  0.2997
  172SOPE  H18X19538   1.257   5.041   8.829 -1.1773  1.1398  0.7108
  172SOPE  H18Y19539   1.199   5.190   8.740  0.7637  1.0430 -1.2458
  172SOPE  H18Z19540   1.375   5.161   8.752  0.6696 -0.7676 -0.9052
  173SAPI   C1219541   3.620   2.217  11.050  0.2071  0.0216  0.6070
  173SAPI    H219542   3.646   2.209  10.942  1.4418 -0.9035  0.9618
  173SAPI    O219543   3.642   2.093  11.119 -0.0887 -0.1994  0.1684
  173SAPI   HO219544   3.586   2.024  11.082 -1.0911  1.0141 -0.6403
  173SAPI   C1319545   3.716   2.327  11.106 -0.3162  0.0549 -0.0316
  173SAPI    H319546   3.689   2.423  11.056 -0.5237  1.7495  3.2260
  173SAPI    O319547   3.856   2.294  11.090  0.0511  0.4661  0.0388
  173SAPI   HO319548   3.856   2.199  11.104 -1.7125  0.4501  0.0371
  173SAPI   C1419549   3.681   2.350  11.248 -0.4350  0.9715  0.1433
  173SAPI    H419550   3.684   2.251  11.298 -0.9595  1.3119  0.8615
  173SAPI    O419551   3.769   2.433  11.320  0.7144 -0.3860  0.0156
  173SAPI   HO419552   3.853   2.389  11.333  1.5204  1.1552  0.1680
  173SAPI   C1519553   3.530   2.396  11.262 -0.0440 -0.3057  0.1217
  173SAPI    H519554   3.524   2.490  11.204  1.5902 -0.0725  0.3108
  173SAPI    O519555   3.499   2.421  11.397 -0.0381 -0.2298 -0.4772
  173SAPI   HO519556   3.459   2.508  11.401  0.3329 -0.1357  1.2327
  173SAPI   C1619557   3.431   2.294  11.197  0.5647 -0.3116  0.1727
  173SAPI    H619558   3.434   2.197  11.252 -1.0413 -1.2923 -1.4308
  173SAPI    O619559   3.291   2.340  11.207 -0.5931  0.0922 -0.1406
  173SAPI   HO619560   3.296   2.426  11.164  1.9850  0.8061  1.4456
  173SAPI   C1119561   3.472   2.267  11.054 -0.1249 -0.0873  0.0388
  173SAPI    H119562   3.457   2.366  11.006  0.9000 -0.7663 -1.7085
  173SAPI     P19563   3.307   2.191  10.854  0.2115 -0.0824 -0.1591
  173SAPI   O1319564   3.247   2.323  10.853 -0.0066  0.1351  0.2091
  173SAPI   O1419565   3.224   2.069  10.820 -0.0598  0.9148 -0.2189
  173SAPI   O1219566   3.388   2.166  10.994  0.2538  0.0210 -0.5180
  173SAPI   O1119567   3.441   2.179  10.762 -0.0556 -0.4417  0.2617
  173SAPI    C119568   3.415   2.213  10.622 -0.0779  0.3215 -0.3970
  173SAPI    HA19569   3.339   2.148  10.573 -2.0296  2.0001  0.3239
  173SAPI    HB19570   3.380   2.317  10.610  0.3818  0.4427 -0.6906
  173SAPI    C219571   3.544   2.205  10.544 -0.1272  0.2274  0.1260
  173SAPI    HS19572   3.600   2.297  10.573  0.9086 -0.2547 -0.3361
  173SAPI   O2119573   3.516   2.216  10.402  0.0068  0.2831 -0.3752
  173SAPI   C2119574   3.617   2.253  10.330  0.5015 -0.0950 -0.3186
  173SAPI   O2219575   3.726   2.293  10.368  0.7033  0.3075  0.4946
  173SAPI   C2219576   3.598   2.229  10.178 -0.2516  0.1136 -0.2753
  173SAPI   H2R19577   3.618   2.122  10.157 -0.8352  0.5908 -3.6223
  173SAPI   H2S19578   3.492   2.249  10.149  0.3778  1.6393 -1.6387
  173SAPI    C319579   3.622   2.082  10.583  0.2099 -0.2192 -0.4738
  173SAPI    HX19580   3.646   2.088  10.692  0.1494  2.9438 -0.5673
  173SAPI    HY19581   3.720   2.100  10.534  0.7950 -0.4911  0.5662
  173SAPI   O3119582   3.561   1.957  10.543  0.1868  0.7132 -0.2428
  173SAPI   C3119583   3.574   1.914  10.418  0.0418 -0.9020 -0.2570
  173SAPI   O3219584   3.657   1.956  10.341 -0.1295  0.3703 -0.1208
  173SAPI   C3219585   3.454   1.822  10.397  0.0231 -0.2294  1.1083
  173SAPI   H2X19586   3.363   1.885  10.393  0.1820 -0.0296  0.6484
  173SAPI   H2Y19587   3.436   1.751  10.481  0.0574  0.4987  1.7295
  173SAPI   C2319588   3.680   2.305  10.070  0.2830  0.3604 -0.2042
  173SAPI   H3R19589   3.788   2.280  10.072  0.5660  1.4005 -1.7415
  173SAPI   H3S19590   3.685   2.414  10.089 -1.2564  0.8189 -2.3535
  173SAPI   C2419591   3.623   2.296   9.931  0.3399 -0.4216  0.1595
  173SAPI   H4R19592   3.685   2.364   9.870  0.8680 -1.2061 -0.1775
  173SAPI   H4S19593   3.518   2.330   9.949  1.1259  0.6944  2.8956
  173SAPI   C2519594   3.615   2.155   9.882  0.5912  0.9758 -0.5442
  173SAPI   H5R19595   3.564   2.085   9.950  0.2674  0.6894 -1.0797
  173SAPI   C2619596   3.672   2.110   9.768  0.2938  0.1614 -0.4135
  173SAPI   H6R19597   3.673   2.002   9.748 -1.5666  0.7522 -4.1036
  173SAPI   C2719598   3.760   2.187   9.675 -0.9050 -0.3174 -0.6583
  173SAPI   H7R19599   3.746   2.295   9.698  1.0713 -0.0568 -0.5706
  173SAPI   H7S19600   3.719   2.168   9.574 -0.0526 -0.5892 -0.9581
  173SAPI   C2819601   3.912   2.165   9.691  0.7230  0.1699  0.6180
  173SAPI   H8R19602   3.939   2.146   9.796 -0.0943 -0.7583  0.6707
  173SAPI   C2919603   4.010   2.155   9.600 -0.2230 -0.6081 -0.3959
  173SAPI   H9R19604   4.099   2.113   9.650 -0.7721  0.6640  1.7260
  173SAPI  C21019605   4.005   2.175   9.453  0.6812 -0.1805  0.0774
  173SAPI  H10R19606   4.108   2.152   9.417  0.9828  0.3340  0.5945
  173SAPI  H10S19607   3.984   2.283   9.440  0.2726 -0.3466 -0.6730
  173SAPI  C21119608   3.911   2.090   9.365  0.5083  0.6005  0.1615
  173SAPI  H11R19609   3.818   2.056   9.413 -0.1026  0.7319 -0.9068
  173SAPI  C21219610   3.919   2.059   9.233  0.3295 -0.1273  0.3165
  173SAPI  H12R19611   3.854   1.978   9.197 -0.8023  0.6382  0.6246
  173SAPI  C21319612   4.037   2.094   9.144  0.4130 -0.5438  0.8218
  173SAPI  H13R19613   4.027   2.036   9.050 -1.8855  0.3640  0.4600
  173SAPI  H13S19614   4.128   2.049   9.189  1.1322  0.6854  0.6167
  173SAPI  C21419615   4.036   2.246   9.121  0.4348  0.6248 -0.1963
  173SAPI  H14R19616   3.981   2.302   9.198 -0.0481 -0.8488  0.5323
  173SAPI  C21519617   4.082   2.304   9.011  0.2616 -0.1569  0.3477
  173SAPI  H15R19618   4.078   2.414   9.001 -3.1199 -0.3370 -1.2502
  173SAPI  C21619619   4.146   2.230   8.889  0.0304  0.7047 -0.0498
  173SAPI  H16R19620   4.160   2.121   8.902 -3.1912  0.2658  0.1047
  173SAPI  H16S19621   4.245   2.274   8.863  0.1861  0.8407  0.7377
  173SAPI  C21719622   4.085   2.254   8.753  0.0325 -0.0287  0.2270
  173SAPI  H17R19623   4.078   2.365   8.746  0.1275 -0.1483 -2.6298
  173SAPI  H17S19624   3.977   2.229   8.757  0.5285 -2.2832  0.0741
  173SAPI  C21819625   4.154   2.187   8.635 -0.2439 -0.5082 -0.0147
  173SAPI  H18R19626   4.076   2.163   8.559 -0.1039 -0.7057 -0.0970
  173SAPI  H18S19627   4.200   2.088   8.655  1.8489  0.3048 -0.6374
  173SAPI  C21919628   4.253   2.279   8.570  0.1680  0.8867  0.4796
  173SAPI  H19R19629   4.304   2.326   8.657  1.0104  0.7908  0.0386
  173SAPI  H19S19630   4.213   2.371   8.522 -0.0691  0.8304  0.5698
  173SAPI  C22019631   4.342   2.211   8.474 -0.5419 -0.2467  0.4204
  173SAPI  H20R19632   4.427   2.277   8.448 -1.5015  0.9460  0.2298
  173SAPI  H20S19633   4.283   2.181   8.384 -0.8929 -2.3534  1.3378
  173SAPI  H20T19634   4.382   2.116   8.515 -0.1250  0.3422  1.3772
  173SAPI   C3319635   3.466   1.714  10.280  0.1763 -0.9351 -0.0214
  173SAPI   H3X19636   3.406   1.623  10.302 -1.8935  0.7670  1.5568
  173SAPI   H3Y19637   3.572   1.681  10.276 -0.0526 -1.5412 -1.3861
  173SAPI   C3419638   3.403   1.773  10.148  0.1804 -0.1754  0.4468
  173SAPI   H4X19639   3.457   1.868  10.129  3.5536 -2.5548 -2.5124
  173SAPI   H4Y19640   3.293   1.786  10.150  0.1971  0.3853 -1.1853
  173SAPI   C3519641   3.431   1.684  10.028  0.6480  0.1869 -0.0232
  173SAPI   H5X19642   3.377   1.588  10.035  0.1847  0.3692 -0.9841
  173SAPI   H5Y19643   3.539   1.661  10.012  0.6315  0.3918 -0.4391
  173SAPI   C3619644   3.377   1.741   9.895 -0.0623  0.3357 -0.1492
  173SAPI   H6X19645   3.442   1.826   9.865  0.1599 -0.0575 -0.8081
  173SAPI   H6Y19646   3.275   1.780   9.910 -0.1758 -0.0895  0.2139
  173SAPI   C3719647   3.394   1.631   9.785 -0.7414  0.3910  0.1873
  173SAPI   H7X19648   3.314   1.555   9.800 -2.7291  2.1936 -1.0753
  173SAPI   H7Y19649   3.496   1.586   9.791 -0.0675  1.7858 -0.5656
  173SAPI   C3819650   3.375   1.687   9.643  0.5095  0.0420  0.6789
  173SAPI   H8X19651   3.443   1.774   9.629 -1.1206  1.4133  1.2267
  173SAPI   H8Y19652   3.274   1.730   9.631  1.0344  0.7143 -1.7312
  173SAPI   C3919653   3.394   1.574   9.526 -0.9360  0.3284 -0.2201
  173SAPI   H9X19654   3.338   1.611   9.438  1.0536  0.9845 -1.2472
  173SAPI   H9Y19655   3.329   1.491   9.561 -1.3608  0.5592 -0.4605
  173SAPI  C31019656   3.533   1.519   9.502 -1.1021  0.4457  0.1880
  173SAPI  H10X19657   3.583   1.500   9.600  1.1488  1.2240 -0.7775
  173SAPI  H10Y19658   3.584   1.597   9.441 -1.9080 -0.7524 -2.0729
  173SAPI  C31119659   3.531   1.397   9.420  0.4129  0.2667  0.1983
  173SAPI  H11X19660   3.498   1.429   9.318  0.2618 -0.0535  0.1451
  173SAPI  H11Y19661   3.454   1.324   9.455  2.0653 -1.5679  0.0905
  173SAPI  C31219662   3.662   1.325   9.402 -0.5094 -0.4586  0.3984
  173SAPI  H12X19663   3.654   1.214   9.404 -0.7941 -0.4414  0.2605
  173SAPI  H12Y19664   3.724   1.345   9.492  0.1618  1.1331 -0.4005
  173SAPI  C31319665   3.731   1.373   9.272  0.6524 -0.3951 -0.0549
  173SAPI  H13X19666   3.842   1.363   9.276  0.8176  1.6789  1.0277
  173SAPI  H13Y19667   3.715   1.482   9.255  0.8966 -0.1352  1.3066
  173SAPI  C31419668   3.678   1.291   9.151 -0.5748 -0.7507  0.1421
  173SAPI  H14X19669   3.568   1.304   9.152 -0.3416  1.2950  1.9141
  173SAPI  H14Y19670   3.697   1.181   9.157  2.3195 -0.2719  0.3567
  173SAPI  C31519671   3.739   1.343   9.023  1.2116  0.4701 -0.3038
  173SAPI  H15X19672   3.845   1.367   9.043  0.9669  1.6350 -0.3270
  173SAPI  H15Y19673   3.676   1.433   9.001  0.7869  0.3821  0.5280
  173SAPI  C31619674   3.742   1.233   8.913 -0.0831  0.0020 -0.0075
  173SAPI  H16X19675   3.636   1.207   8.890  0.3977 -0.1086 -2.1482
  173SAPI  H16Y19676   3.798   1.145   8.951 -2.3222 -1.2595  0.4299
  173SAPI  C31719677   3.801   1.284   8.779  0.2205 -0.1689 -0.3838
  173SAPI  H17X19678   3.906   1.310   8.804  0.3879 -2.0402  0.9641
  173SAPI  H17Y19679   3.757   1.383   8.754  0.3891  0.2179  0.8153
  173SAPI  C31819680   3.780   1.181   8.667  0.5393 -0.9053 -0.5012
  173SAPI  H18X19681   3.832   1.218   8.577 -1.3783 -1.0940 -1.7224
  173SAPI  H18Y19682   3.670   1.180   8.647  0.2260 -2.2405  1.1911
  173SAPI  H18Z19683   3.810   1.077   8.692  0.1738 -1.0036 -0.4621
  174SAPI   C1219684   0.886   2.742  11.031 -0.1676  0.2685  0.2462
  174SAPI    H219685   0.820   2.826  11.001  0.0594  1.2786  2.4176
  174SAPI    O219686   0.880   2.737  11.171  0.5845  0.3579 -0.6558
  174SAPI   HO219687   0.925   2.813  11.210  2.6431 -0.8542 -0.5974
  174SAPI   C1319688   0.846   2.607  10.968  0.3623  0.0053 -0.0933
  174SAPI    H319689   0.842   2.612  10.857  0.4481  1.4058 -0.0459
  174SAPI    O319690   0.713   2.575  11.003 -0.2568 -0.4115  0.6569
  174SAPI   HO319691   0.663   2.537  10.930  1.4195  0.8038 -1.1631
  174SAPI   C1419692   0.947   2.501  10.992 -0.4190 -0.6308 -0.9158
  174SAPI    H419693   0.938   2.481  11.101  0.1282 -1.2670 -0.9840
  174SAPI    O419694   0.912   2.374  10.932 -0.1997 -0.1295 -0.3803
  174SAPI   HO419695   0.844   2.339  10.990  1.7493 -1.7730  1.0428
  174SAPI   C1519696   1.092   2.547  10.968  0.1835 -1.0095 -0.5043
  174SAPI    H519697   1.091   2.567  10.858  2.2509 -1.4074 -0.6164
  174SAPI    O519698   1.190   2.446  10.994 -0.3157 -0.1160 -0.2496
  174SAPI   HO519699   1.255   2.439  10.924  0.0330 -0.1715  0.0794
  174SAPI   C1619700   1.129   2.678  11.029  0.0892  0.1791  0.5087
  174SAPI    H619701   1.122   2.660  11.139  2.4356 -3.0373  0.1853
  174SAPI    O619702   1.265   2.714  10.999  0.1045 -0.0759  0.2238
  174SAPI   HO619703   1.272   2.772  10.923  1.7404 -0.5139  0.0190
  174SAPI   C1119704   1.028   2.782  10.990  0.5450  0.5032  0.8747
  174SAPI    H119705   1.028   2.796  10.879  0.6287  0.2443  0.8422
  174SAPI     P19706   1.114   3.045  10.982 -0.2479 -0.4586  0.3029
  174SAPI   O1319707   1.233   3.007  10.899  0.2531 -0.5044 -0.1505
  174SAPI   O1419708   1.127   3.156  11.081  0.0032  0.5992 -0.2918
  174SAPI   O1219709   1.045   2.911  11.053  1.0932  0.0564 -0.3649
  174SAPI   O1119710   1.002   3.089  10.878 -0.1222 -0.2816 -0.1886
  174SAPI    C119711   0.867   3.105  10.921  0.3864  0.1677  0.3291
  174SAPI    HA19712   0.828   3.023  10.986 -1.0306  0.1362 -0.5396
  174SAPI    HB19713   0.860   3.190  10.992 -0.0103 -0.9126  1.6118
  174SAPI    C219714   0.774   3.126  10.800 -0.3065 -0.7214 -0.0636
  174SAPI    HS19715   0.671   3.131  10.842 -0.7410  0.9925 -1.2553
  174SAPI   O2119716   0.796   3.026  10.694 -0.4562  0.0570 -0.1569
  174SAPI   C2119717   0.742   2.908  10.713  0.6803 -0.4292 -0.3523
  174SAPI   O2219718   0.675   2.870  10.805  0.4582 -0.2241  0.3023
  174SAPI   C2219719   0.758   2.827  10.588  0.0736  0.2961  0.0949
  174SAPI   H2R19720   0.868   2.811  10.583  0.1423  0.8154 -0.0780
  174SAPI   H2S19721   0.706   2.733  10.614 -0.1908  0.1471 -0.9545
  174SAPI    C319722   0.785   3.266  10.728  0.1450  0.9874  0.8559
  174SAPI    HX19723   0.892   3.297  10.727  0.4829 -0.1811  0.0968
  174SAPI    HY19724   0.732   3.332  10.800 -1.9700  0.6433 -0.3365
  174SAPI   O3119725   0.718   3.263  10.599 -0.0808  0.4078 -0.1493
  174SAPI   C3119726   0.595   3.284  10.601  0.1941  0.5582  0.4726
  174SAPI   O3219727   0.513   3.301  10.695  0.0551 -0.3579  0.0959
  174SAPI   C3219728   0.552   3.277  10.456 -0.0485 -0.6840  0.6748
  174SAPI   H2X19729   0.616   3.205  10.402 -0.1569 -0.0118 -0.3536
  174SAPI   H2Y19730   0.566   3.378  10.413  1.8632  0.0716  2.9574
  174SAPI   C2319731   0.697   2.897  10.464  0.5074 -0.3539 -0.6121
  174SAPI   H3R19732   0.757   2.987  10.438 -1.0253  1.6844  2.5011
  174SAPI   H3S19733   0.597   2.932  10.495  1.0097 -1.3005  2.2128
  174SAPI   C2419734   0.680   2.801  10.347  0.1097  0.3317  0.1199
  174SAPI   H4R19735   0.765   2.729  10.345 -1.1012 -1.1076 -1.7374
  174SAPI   H4S19736   0.690   2.858  10.252 -0.6132 -1.4029 -1.0164
  174SAPI   C2519737   0.545   2.731  10.348 -0.2360 -1.3091  0.8799
  174SAPI   H5R19738   0.518   2.688  10.446  1.7014 -0.7265  1.6989
  174SAPI   C2619739   0.447   2.746  10.261 -0.5210  0.6236  0.7653
  174SAPI   H6R19740   0.351   2.694  10.270  0.8200 -1.7878  1.5509
  174SAPI   C2719741   0.456   2.810  10.124  0.6009  0.4340  0.4446
  174SAPI   H7R19742   0.534   2.887  10.103  0.0565 -0.0375 -3.7145
  174SAPI   H7S19743   0.360   2.866  10.120  0.6804  0.8027  3.1879
  174SAPI   C2819744   0.474   2.702  10.023  0.2443 -0.8239 -0.2908
  174SAPI   H8R19745   0.474   2.601  10.067 -1.2432 -1.7333 -2.3145
  174SAPI   C2919746   0.490   2.728   9.887 -0.6500  0.1086 -0.4944
  174SAPI   H9R19747   0.516   2.650   9.814 -0.2324 -1.1665  0.9981
  174SAPI  C21019748   0.478   2.875   9.832  0.1379  0.0364 -0.2852
  174SAPI  H10R19749   0.445   2.952   9.904 -0.4280 -1.7487  1.3856
  174SAPI  H10S19750   0.397   2.871   9.756 -0.2156 -0.1826  0.1029
  174SAPI  C21119751   0.610   2.913   9.767 -0.2406 -0.5707 -0.9224
  174SAPI  H11R19752   0.694   2.904   9.838 -1.1347 -0.8963  0.1136
  174SAPI  C21219753   0.640   2.945   9.644 -0.0530  0.9671  0.2528
  174SAPI  H12R19754   0.746   2.954   9.619  0.5874 -2.8500  1.2149
  174SAPI  C21319755   0.555   2.938   9.520 -0.4768  0.4096 -0.3433
  174SAPI  H13R19756   0.455   2.889   9.532 -1.1638  2.1051  1.0213
  174SAPI  H13S19757   0.603   2.874   9.443  0.8040 -0.2136  0.9416
  174SAPI  C21419758   0.526   3.080   9.463 -0.3796 -0.1374 -0.2442
  174SAPI  H14R19759   0.466   3.144   9.530  0.2324 -1.1037  1.2596
  174SAPI  C21519760   0.568   3.131   9.342  0.6504 -0.5688 -0.2375
  174SAPI  H15R19761   0.531   3.231   9.318 -1.0000 -0.7332  1.3902
  174SAPI  C21619762   0.656   3.066   9.240 -0.6252  0.4834 -0.5364
  174SAPI  H16R19763   0.731   3.006   9.297  0.5185  0.5281 -1.9696
  174SAPI  H16S19764   0.709   3.137   9.174 -2.2059  0.5771 -1.7395
  174SAPI  C21719765   0.578   2.977   9.141 -0.0292 -0.2641  0.3857
  174SAPI  H17R19766   0.538   2.895   9.204 -0.8854 -0.4678 -0.4149
  174SAPI  H17S19767   0.656   2.942   9.070  0.5623  0.4548  0.6653
  174SAPI  C21819768   0.484   3.064   9.058  0.7438  0.3902 -0.1428
  174SAPI  H18R19769   0.550   3.134   9.003  1.7374 -1.7090 -1.7121
  174SAPI  H18S19770   0.414   3.123   9.121 -0.3642 -2.0810  1.0033
  174SAPI  C21919771   0.401   2.971   8.964  0.5173 -0.9434 -0.2967
  174SAPI  H19R19772   0.351   2.903   9.036  0.5775 -0.4247  0.2373
  174SAPI  H19S19773   0.476   2.917   8.902 -0.7045 -2.3264 -0.6148
  174SAPI  C22019774   0.296   3.028   8.871  0.0355  0.6945 -0.0501
  174SAPI  H20R19775   0.218   3.083   8.926 -0.9766  0.1426 -0.9151
  174SAPI  H20S19776   0.256   2.943   8.811  0.1738  0.3372  0.3583
  174SAPI  H20T19777   0.344   3.098   8.799 -0.6580  1.3328  0.1065
  174SAPI   C3319778   0.412   3.210  10.448  0.1085 -0.2404  0.6086
  174SAPI   H3X19779   0.327   3.279  10.472 -0.3797 -0.1973 -1.1548
  174SAPI   H3Y19780   0.409   3.119  10.511  0.0501 -1.3668 -0.9917
  174SAPI   C3419781   0.372   3.156  10.307 -0.1426 -0.0761 -0.5343
  174SAPI   H4X19782   0.267   3.120  10.297 -1.2211  2.6925  0.3680
  174SAPI   H4Y19783   0.441   3.074  10.279 -0.2810 -0.7039  0.9333
  174SAPI   C3519784   0.397   3.256  10.199 -0.0569  1.0903 -0.1021
  174SAPI   H5X19785   0.498   3.300  10.208  1.5376 -2.3848  0.0367
  174SAPI   H5Y19786   0.340   3.343  10.237  0.4820  1.8904 -1.0804
  174SAPI   C3619787   0.367   3.199  10.058 -0.0788 -0.4528  0.6301
  174SAPI   H6X19788   0.265   3.157  10.063 -0.5503 -0.0051 -3.7013
  174SAPI   H6Y19789   0.435   3.112  10.042 -0.6103 -0.7899  0.2295
  174SAPI   C3719790   0.365   3.291   9.934  0.6199  0.0649 -0.1071
  174SAPI   H7X19791   0.467   3.316   9.898  1.8769 -0.9121  2.7017
  174SAPI   H7Y19792   0.336   3.391   9.974  2.1473 -0.2290  1.7602
  174SAPI   C3819793   0.281   3.255   9.809 -0.4488  0.3713  0.4799
  174SAPI   H8X19794   0.173   3.259   9.835 -0.8450 -2.8095 -0.4467
  174SAPI   H8Y19795   0.299   3.155   9.765  0.5013  1.7768 -2.4953
  174SAPI   C3919796   0.311   3.355   9.691 -0.0958  0.8041  0.2537
  174SAPI   H9X19797   0.420   3.342   9.675  0.1405 -0.0284  2.3896
  174SAPI   H9Y19798   0.282   3.457   9.723 -2.5739  0.1503  0.2176
  174SAPI  C31019799   0.242   3.315   9.567 -0.0528 -0.6583 -0.1540
  174SAPI  H10X19800   0.132   3.327   9.579 -0.5389 -3.8429 -0.8325
  174SAPI  H10Y19801   0.249   3.204   9.555  0.3839 -0.6315 -0.1511
  174SAPI  C31119802   0.296   3.386   9.444 -0.4666 -0.4861 -0.2979
  174SAPI  H11X19803   0.406   3.370   9.434 -0.4946 -0.6269 -0.3840
  174SAPI  H11Y19804   0.269   3.492   9.459 -1.5407 -0.5589 -1.6052
  174SAPI  C31219805   0.236   3.343   9.309 -0.3808  0.4495  0.2249
  174SAPI  H12X19806   0.125   3.345   9.305 -0.4302  1.6773  1.7945
  174SAPI  H12Y19807   0.260   3.236   9.295 -1.6160  0.2670 -0.5530
  174SAPI  C31319808   0.297   3.420   9.193 -0.2257 -0.4474  0.2904
  174SAPI  H13X19809   0.405   3.397   9.195 -0.2468 -0.6187  4.0097
  174SAPI  H13Y19810   0.273   3.528   9.203 -0.9646 -0.4389 -1.4275
  174SAPI  C31419811   0.241   3.373   9.052 -0.1575  0.2908  0.1729
  174SAPI  H14X19812   0.233   3.262   9.054  0.0214  0.2762  0.1249
  174SAPI  H14Y19813   0.300   3.411   8.966 -1.3988  0.1304 -0.7609
  174SAPI  C31519814   0.105   3.432   9.011 -0.0363  0.1895 -0.6197
  174SAPI  H15X19815   0.115   3.541   8.998 -0.1899  0.1923 -0.7177
  174SAPI  H15Y19816   0.043   3.432   9.103 -2.0134 -0.0489 -1.9241
  174SAPI  C31619817   0.057   3.365   8.884 -0.6877  1.0149 -0.1413
  174SAPI  H16X19818  -0.020   3.288   8.906  0.9641 -0.3395  1.0120
  174SAPI  H16Y19819   0.140   3.310   8.835  0.7813  1.7882  1.4446
  174SAPI  C31719820  -0.017   3.459   8.784 -0.6545  0.7031 -0.0856
  174SAPI  H17X19821   0.043   3.529   8.723 -1.0584 -0.1830 -1.5140
  174SAPI  H17Y19822  -0.074   3.537   8.839 -0.5326  0.6313  0.1435
  174SAPI  C31819823  -0.109   3.377   8.685 -0.6343  0.7392  0.4820
  174SAPI  H18X19824  -0.045   3.342   8.601 -1.4528  0.1374  0.1073
  174SAPI  H18Y19825  -0.178   3.453   8.643 -1.4006  0.0003  0.4000
  174SAPI  H18Z19826  -0.160   3.294   8.737  0.7533 -0.4462 -0.0141
  175SAPI   C1219827   1.869   2.718   6.054  0.0642 -0.4778  0.2631
  175SAPI    H219828   1.800   2.647   6.105  0.3625 -0.8601  0.1411
  175SAPI    O219829   1.903   2.658   5.926 -0.0897  0.2848  0.4088
  175SAPI   HO219830   1.995   2.631   5.927  0.5135  2.2754  1.1680
  175SAPI   C1319831   1.813   2.856   6.034  0.0085  0.2112  0.2241
  175SAPI    H319832   1.789   2.887   6.138  1.2567 -0.4633  0.7238
  175SAPI    O319833   1.687   2.848   5.962  0.0582 -0.5004 -0.2396
  175SAPI   HO319834   1.616   2.845   6.026 -2.6533 -0.7519 -3.1306
  175SAPI   C1419835   1.914   2.944   5.970  0.6806  0.1366  0.3344
  175SAPI    H419836   1.946   2.908   5.869 -0.1602 -0.0834  0.1466
  175SAPI    O419837   1.860   3.073   5.942  0.0955  0.4059  0.1448
  175SAPI   HO419838   1.836   3.113   6.026 -3.1186  2.4908 -1.6395
  175SAPI   C1519839   2.041   2.956   6.059 -0.4871 -0.0798  0.6459
  175SAPI    H519840   2.011   2.995   6.158  1.4273 -1.9624  2.0189
  175SAPI    O519841   2.131   3.052   6.005 -0.3765 -0.1905  0.0521
  175SAPI   HO519842   2.206   3.007   5.966 -0.9010 -0.1710 -0.9950
  175SAPI   C1619843   2.107   2.820   6.088  0.5041 -0.3611  0.8022
  175SAPI    H619844   2.146   2.779   5.991 -1.2844  0.5515 -0.3248
  175SAPI    O619845   2.214   2.831   6.187 -1.0984  0.2316 -0.7111
  175SAPI   HO619846   2.170   2.858   6.267 -0.8099 -0.4340 -0.3244
  175SAPI   C1119847   1.999   2.729   6.145  0.0989 -0.3265  0.4275
  175SAPI    H119848   1.974   2.769   6.245 -1.5346  1.4138 -0.6303
  175SAPI     P19849   2.031   2.512   6.285  0.0178  0.5738  0.4110
  175SAPI   O1319850   2.088   2.379   6.248 -0.4522  0.2878  0.3627
  175SAPI   O1419851   1.888   2.513   6.315 -0.7352 -0.2950 -0.0747
  175SAPI   O1219852   2.056   2.603   6.160  0.3760 -0.5378  0.1093
  175SAPI   O1119853   2.110   2.571   6.408 -0.4468 -0.0911  0.5975
  175SAPI    C119854   2.250   2.605   6.391 -0.6154  0.0920  0.2016
  175SAPI    HA19855   2.291   2.590   6.289  0.4760  0.6610  0.5616
  175SAPI    HB19856   2.261   2.712   6.417 -2.3515  0.4507 -0.4468
  175SAPI    C219857   2.340   2.539   6.502  0.3261 -0.0907  0.0639
  175SAPI    HS19858   2.330   2.429   6.491  0.9521 -0.3673  2.0433
  175SAPI   O2119859   2.307   2.595   6.627  0.0966 -0.1428  0.3660
  175SAPI   C2119860   2.309   2.507   6.723 -0.0472 -0.7772  0.0239
  175SAPI   O2219861   2.332   2.389   6.714  0.0493  0.0686  0.5147
  175SAPI   C2219862   2.278   2.583   6.859  0.2655  0.3746 -0.1736
  175SAPI   H2R19863   2.371   2.633   6.894 -0.1235 -0.1892  1.7289
  175SAPI   H2S19864   2.199   2.660   6.846 -0.8309 -0.6314  0.5013
  175SAPI    C319865   2.490   2.557   6.471 -0.4774  0.9815  0.4400
  175SAPI    HX19866   2.521   2.662   6.454  0.8125  0.2914 -1.6398
  175SAPI    HY19867   2.498   2.518   6.367  0.8830  1.1574  0.4790
  175SAPI   O3119868   2.569   2.479   6.563  0.1107  0.8064 -0.0072
  175SAPI   C3119869   2.621   2.543   6.662  0.1386  0.3676 -0.1722
  175SAPI   O3219870   2.596   2.656   6.703  0.3349 -0.2369  0.2936
  175SAPI   C3219871   2.734   2.454   6.710 -0.8430 -0.4068 -0.5190
  175SAPI   H2X19872   2.828   2.509   6.687 -1.0165  0.4263  0.7410
  175SAPI   H2Y19873   2.745   2.358   6.655  3.7532  1.5127 -3.2405
  175SAPI   C2319874   2.216   2.492   6.974  0.6881 -0.1264 -0.0832
  175SAPI   H3R19875   2.160   2.409   6.926  1.9552 -0.7503 -0.4847
  175SAPI   H3S19876   2.133   2.549   7.022 -0.7555 -1.0951 -1.3881
  175SAPI   C2419877   2.326   2.437   7.059 -0.4694  0.3612  0.4451
  175SAPI   H4R19878   2.395   2.518   7.093 -1.9199  2.0893 -0.6118
  175SAPI   H4S19879   2.387   2.371   6.994  1.9641  1.6589  1.3226
  175SAPI   C2519880   2.274   2.378   7.182  0.4423  0.3764  0.0269
  175SAPI   H5R19881   2.262   2.269   7.169  4.1009  0.2454 -3.3371
  175SAPI   C2619882   2.266   2.440   7.302 -0.2383  0.5929  0.3431
  175SAPI   H6R19883   2.213   2.390   7.385  2.4839 -2.1510  0.5212
  175SAPI   C2719884   2.307   2.588   7.327 -0.3039  0.8251 -0.0642
  175SAPI   H7R19885   2.316   2.642   7.230 -4.0032 -0.2487 -1.0841
  175SAPI   H7S19886   2.404   2.592   7.381 -0.5204  3.9755  0.1911
  175SAPI   C2819887   2.207   2.664   7.414 -0.1079 -0.1728 -0.1231
  175SAPI   H8R19888   2.145   2.741   7.365 -3.4074 -1.8587  1.2147
  175SAPI   C2919889   2.179   2.640   7.545  0.3172 -0.3318  0.3077
  175SAPI   H9R19890   2.091   2.691   7.587  0.6191  2.4207 -2.2255
  175SAPI  C21019891   2.244   2.537   7.633 -0.0830 -0.4430  0.2784
  175SAPI  H10R19892   2.315   2.468   7.582  2.2069  0.2441  2.4238
  175SAPI  H10S19893   2.163   2.478   7.681  0.0626  1.1755  2.6128
  175SAPI  C21119894   2.332   2.611   7.733 -0.1874  0.4110  0.8518
  175SAPI  H11R19895   2.436   2.613   7.698  0.0282  1.0633  1.5264
  175SAPI  C21219896   2.295   2.655   7.851 -0.8776 -0.3068 -0.3644
  175SAPI  H12R19897   2.360   2.718   7.914 -0.2116  0.4311 -1.7675
  175SAPI  C21319898   2.155   2.645   7.908  0.1672  0.3985  0.0619
  175SAPI  H13R19899   2.097   2.565   7.857 -1.3532  0.6694  1.3556
  175SAPI  H13S19900   2.096   2.739   7.900 -1.9780 -1.0164 -1.5314
  175SAPI  C21419901   2.137   2.601   8.052 -0.8818  0.0078  0.8979
  175SAPI  H14R19902   2.129   2.492   8.064  1.3638 -0.3664 -0.6047
  175SAPI  C21519903   2.123   2.671   8.166 -1.1815 -0.4807  0.5653
  175SAPI  H15R19904   2.121   2.604   8.253 -0.4845 -0.5933  0.5040
  175SAPI  C21619905   2.117   2.824   8.196 -0.1427 -0.9660  0.0307
  175SAPI  H16R19906   2.122   2.887   8.105  3.0347  1.5904  1.8337
  175SAPI  H16S19907   2.205   2.851   8.259  0.1239  0.2072 -0.8262
  175SAPI  C21719908   1.996   2.874   8.282 -0.5300 -0.8528  0.2947
  175SAPI  H17R19909   1.985   2.816   8.376  0.5509 -3.0141 -0.8618
  175SAPI  H17S19910   1.904   2.876   8.221 -0.9342  2.8177  0.9283
  175SAPI  C21819911   2.017   3.028   8.322  0.0757 -0.2319  0.6519
  175SAPI  H18R19912   2.055   3.089   8.237  2.0752 -1.8639  0.3447
  175SAPI  H18S19913   2.105   3.028   8.389  1.5413 -2.6571 -1.1986
  175SAPI  C21919914   1.892   3.085   8.393 -0.1640  0.0016  0.6918
  175SAPI  H19R19915   1.810   3.067   8.320 -0.2121  1.0454  0.4898
  175SAPI  H19S19916   1.902   3.194   8.413 -0.9021  0.5442 -1.7107
  175SAPI  C22019917   1.853   3.028   8.525 -0.6724  0.0777  0.3650
  175SAPI  H20R19918   1.773   3.087   8.575 -0.5218  0.8060 -0.2437
  175SAPI  H20S19919   1.944   3.028   8.589 -1.7813  1.2636  1.9832
  175SAPI  H20T19920   1.817   2.923   8.516  1.4740 -0.7914  1.6125
  175SAPI   C3319921   2.722   2.422   6.861 -0.6716  0.4520 -0.1025
  175SAPI   H3X19922   2.767   2.322   6.879 -1.1538  0.3620  0.6569
  175SAPI   H3Y19923   2.615   2.401   6.881  0.2376 -2.9195  1.6178
  175SAPI   C3419924   2.774   2.527   6.964  0.2051 -0.4155  0.4192
  175SAPI   H4X19925   2.728   2.623   6.935 -2.8469 -1.9991 -0.1704
  175SAPI   H4Y19926   2.884   2.540   6.948  0.3127 -1.6800  0.0711
  175SAPI   C3519927   2.741   2.495   7.115  0.1784 -0.6658 -0.3247
  175SAPI   H5X19928   2.818   2.420   7.142  0.7442 -0.3771 -1.1273
  175SAPI   H5Y19929   2.640   2.449   7.114  0.2584 -0.8393 -1.4331
  175SAPI   C3619930   2.744   2.610   7.205  0.6183 -0.3920 -0.0509
  175SAPI   H6X19931   2.664   2.685   7.188  1.4141  0.3663 -0.5000
  175SAPI   H6Y19932   2.842   2.660   7.189  0.7240 -0.8572 -0.8754
  175SAPI   C3719933   2.740   2.563   7.352  0.5545 -0.2649 -0.0109
  175SAPI   H7X19934   2.833   2.509   7.380  0.2298 -1.2272 -0.7474
  175SAPI   H7Y19935   2.667   2.480   7.361 -0.3842  0.7265  1.9020
  175SAPI   C3819936   2.710   2.676   7.445  0.0389  0.7502  0.4243
  175SAPI   H8X19937   2.612   2.726   7.433  0.9581  2.3338 -0.8211
  175SAPI   H8Y19938   2.790   2.751   7.425  0.4584 -0.0522 -1.0414
  175SAPI   C3919939   2.716   2.639   7.592  0.6114  0.1658 -0.7056
  175SAPI   H9X19940   2.805   2.576   7.613  1.2489  0.6273 -2.0325
  175SAPI   H9Y19941   2.619   2.588   7.609 -0.1150  1.5261 -0.6683
  175SAPI  C31019942   2.733   2.767   7.671 -0.8592  0.0051 -0.2550
  175SAPI  H10X19943   2.639   2.820   7.646 -1.8881 -1.9595 -0.6457
  175SAPI  H10Y19944   2.819   2.830   7.639 -2.2807  1.0879 -1.9754
  175SAPI  C31119945   2.738   2.740   7.827 -0.0484  0.0074  0.2406
  175SAPI  H11X19946   2.656   2.671   7.857  0.9123 -1.1126  0.3284
  175SAPI  H11Y19947   2.718   2.838   7.876 -0.0320  0.4169 -0.5590
  175SAPI  C31219948   2.872   2.696   7.887 -0.0903  0.4679 -0.5136
  175SAPI  H12X19949   2.961   2.731   7.829  1.3288 -2.0248  0.0830
  175SAPI  H12Y19950   2.862   2.586   7.873 -1.3733  0.5192  0.0271
  175SAPI  C31319951   2.878   2.736   8.036  0.3166  0.0852 -0.8461
  175SAPI  H13X19952   2.948   2.667   8.088 -1.1332 -1.0568 -0.3544
  175SAPI  H13Y19953   2.776   2.713   8.073 -0.2995  2.7289 -0.8031
  175SAPI  C31419954   2.905   2.889   8.064 -0.4721  0.4272  0.3977
  175SAPI  H14X19955   2.814   2.948   8.039  0.1436  1.2080 -0.0271
  175SAPI  H14Y19956   2.980   2.924   7.989 -1.0870  2.2879  0.6375
  175SAPI  C31519957   2.953   2.905   8.211 -0.3307  0.3906  0.0527
  175SAPI  H15X19958   2.992   3.009   8.220  0.1936  0.3204 -1.3135
  175SAPI  H15Y19959   3.040   2.835   8.209  0.1180  0.9979 -2.8936
  175SAPI  C31619960   2.855   2.877   8.319  0.2033 -0.3521  0.5042
  175SAPI  H16X19961   2.820   2.772   8.312  1.0631 -0.6037 -0.2216
  175SAPI  H16Y19962   2.766   2.936   8.289  0.9236  0.1522 -0.6794
  175SAPI  C31719963   2.912   2.903   8.459 -0.2763 -0.5316 -0.1652
  175SAPI  H17X19964   2.967   3.000   8.460 -1.5691  0.2014  1.6139
  175SAPI  H17Y19965   2.984   2.827   8.498  0.1448  0.5998  1.3344
  175SAPI  C31819966   2.804   2.929   8.563  0.2474  0.0329  0.8684
  175SAPI  H18X19967   2.739   2.839   8.562 -0.6861  0.6896  2.1776
  175SAPI  H18Y19968   2.746   3.022   8.549  0.1707  0.1495  1.9779
  175SAPI  H18Z19969   2.856   2.937   8.661  1.9838  0.5744 -0.0671
  176SAPI   C1219970   2.134   1.642   6.461  0.0553  0.5919  0.4485
  176SAPI    H219971   2.182   1.608   6.366 -0.1174 -0.2604  0.6646
  176SAPI    O219972   2.225   1.726   6.531 -0.5970 -0.1929  0.4801
  176SAPI   HO219973   2.299   1.742   6.472 -1.3241  2.6711  0.2549
  176SAPI   C1319974   2.008   1.711   6.426 -0.6492 -0.0639  0.2808
  176SAPI    H319975   1.936   1.636   6.388 -1.8806  0.1210  2.1472
  176SAPI    O319976   2.035   1.808   6.326  0.6039 -0.1090  0.2205
  176SAPI   HO319977   2.084   1.871   6.379 -1.0571  1.3974  0.0216
  176SAPI   C1419978   1.933   1.755   6.551 -0.1949  0.0354  0.6554
  176SAPI    H419979   2.001   1.825   6.604 -0.5305  1.4275 -0.7291
  176SAPI    O419980   1.809   1.826   6.534 -0.1359  0.4223  0.4114
  176SAPI   HO419981   1.761   1.798   6.613 -0.3480  2.6380  1.1159
  176SAPI   C1519982   1.911   1.632   6.635 -0.3255  0.4047 -0.4177
  176SAPI    H519983   1.839   1.567   6.582 -3.2103  1.3569  2.1757
  176SAPI    O519984   1.840   1.668   6.754  0.6633  0.1595  0.1110
  176SAPI   HO519985   1.815   1.585   6.795 -0.5537 -0.3724 -1.6978
  176SAPI   C1619986   2.031   1.549   6.677  0.0647 -0.1638 -0.5143
  176SAPI    H619987   2.093   1.616   6.739 -0.9990  1.4047 -1.1111
  176SAPI    O619988   1.992   1.434   6.748  0.0219  0.3125 -0.6862
  176SAPI   HO619989   2.074   1.389   6.767  0.2156  0.7723 -0.4201
  176SAPI   C1119990   2.091   1.517   6.540  0.3773  0.1152 -0.0869
  176SAPI    H119991   2.020   1.451   6.485 -0.1627 -0.3238  1.1107
  176SAPI     P19992   2.273   1.325   6.470 -0.0600  0.2943 -0.3580
  176SAPI   O1319993   2.414   1.297   6.488 -0.1080 -0.0352 -0.4136
  176SAPI   O1419994   2.238   1.365   6.332 -0.4737  0.2768  0.5365
  176SAPI   O1219995   2.213   1.445   6.567 -0.3976  0.8285 -0.7015
  176SAPI   O1119996   2.180   1.198   6.510 -0.0297  0.0145  0.0314
  176SAPI    C119997   2.223   1.069   6.560  0.2703  0.5413 -0.1605
  176SAPI    HA19998   2.153   0.992   6.522  1.8355 -1.2908  0.5805
  176SAPI    HB19999   2.309   1.044   6.494  0.2851 -2.1495  0.8260
  176SAPI    C220000   2.228   1.053   6.716 -0.2295  0.0832  0.4901
  176SAPI    HS20001   2.241   0.946   6.744 -2.1115 -0.7117 -1.5092
  176SAPI   O2120002   2.108   1.106   6.759  1.1948  0.7362  0.5223
  176SAPI   C2120003   2.001   1.021   6.763 -0.8347 -0.2914 -0.4416
  176SAPI   O2220004   1.990   0.914   6.705 -0.4375  0.5861 -0.1022
  176SAPI   C2220005   1.892   1.075   6.853  0.2958 -0.4191 -0.6532
  176SAPI   H2R20006   1.849   1.173   6.824 -0.1403 -0.2142  0.6317
  176SAPI   H2S20007   1.817   0.994   6.841  0.4286 -0.6477  0.0501
  176SAPI    C320008   2.344   1.133   6.781 -0.4103 -0.0206 -0.3222
  176SAPI    HX20009   2.338   1.234   6.735 -2.7939 -0.3979 -0.8772
  176SAPI    HY20010   2.443   1.093   6.751  0.7260  1.4164  1.3604
  176SAPI   O3120011   2.344   1.132   6.927 -0.3054 -0.1545  0.3241
  176SAPI   C3120012   2.297   1.250   6.980 -0.4376 -0.1465 -0.4220
  176SAPI   O3220013   2.246   1.334   6.917 -0.4925  0.3840 -0.5885
  176SAPI   C3220014   2.340   1.264   7.121  0.3008 -0.1015  0.2965
  176SAPI   H2X20015   2.335   1.370   7.151 -0.1800 -0.1916  0.5311
  176SAPI   H2Y20016   2.449   1.245   7.131  0.6404  2.3386  1.6037
  176SAPI   C2320017   1.953   1.092   6.995  0.0125  0.2601 -0.8690
  176SAPI   H3R20018   2.008   1.188   6.990  0.7836 -0.2679 -2.9446
  176SAPI   H3S20019   2.021   1.007   7.021 -0.3956 -0.0308 -0.7572
  176SAPI   C2420020   1.848   1.110   7.114  0.1922 -0.5615 -0.5220
  176SAPI   H4R20021   1.774   1.188   7.085 -0.7731 -1.7723 -1.3592
  176SAPI   H4S20022   1.901   1.149   7.204 -0.9232  0.6573 -0.3700
  176SAPI   C2520023   1.780   0.979   7.136 -0.1307  0.8687 -0.0018
  176SAPI   H5R20024   1.732   0.936   7.047 -1.2181  0.0959  0.9413
  176SAPI   C2620025   1.797   0.904   7.252 -0.4758  0.0627  0.2280
  176SAPI   H6R20026   1.747   0.806   7.246 -0.5565  0.2091 -2.0942
  176SAPI   C2720027   1.881   0.916   7.378 -0.1103 -0.7134 -0.4749
  176SAPI   H7R20028   1.831   0.871   7.467 -1.2180  2.9745  0.8720
  176SAPI   H7S20029   1.902   1.021   7.406  0.1654 -0.3054 -2.1674
  176SAPI   C2820030   2.015   0.856   7.349  0.3232  0.1049 -0.5192
  176SAPI   H8R20031   2.069   0.891   7.259 -2.9370  0.9691 -2.1930
  176SAPI   C2920032   2.065   0.762   7.429  0.2436  0.6265  0.3400
  176SAPI   H9R20033   2.153   0.712   7.386 -1.5545 -0.9156 -1.6676
  176SAPI  C21020034   2.017   0.700   7.556 -0.1674  0.0688 -0.3991
  176SAPI  H10R20035   1.911   0.720   7.580 -0.0732 -2.1256  1.9782
  176SAPI  H10S20036   2.081   0.724   7.643 -1.3924  1.2855  0.1839
  176SAPI  C21120037   2.035   0.557   7.531 -0.4934  0.0377 -0.7812
  176SAPI  H11R20038   1.993   0.525   7.434 -1.6578  0.5931 -0.4566
  176SAPI  C21220039   2.095   0.464   7.615 -0.0589  0.7530  0.8117
  176SAPI  H12R20040   2.111   0.359   7.583  3.5599  0.7939  2.2147
  176SAPI  C21320041   2.149   0.499   7.754 -0.4003 -0.3393  0.1650
  176SAPI  H13R20042   2.086   0.572   7.809  0.9085 -0.0311  1.2596
  176SAPI  H13S20043   2.245   0.554   7.751 -0.6588  0.0994 -0.1200
  176SAPI  C21420044   2.158   0.370   7.837 -0.1807 -0.2132  0.9013
  176SAPI  H14R20045   2.211   0.289   7.785  1.2696  0.4609  1.3076
  176SAPI  C21520046   2.096   0.350   7.958 -0.7515 -0.5795 -0.7826
  176SAPI  H15R20047   2.122   0.251   7.998 -0.8544 -0.4963 -0.5097
  176SAPI  C21620048   2.010   0.436   8.051  0.8714 -0.0776  0.3687
  176SAPI  H16R20049   1.930   0.378   8.102 -0.2941 -0.4325 -1.7897
  176SAPI  H16S20050   1.964   0.521   7.996  2.7565  1.0569  0.4724
  176SAPI  C21720051   2.105   0.507   8.149  0.3391  0.1921 -0.2897
  176SAPI  H17R20052   2.050   0.596   8.185 -0.4439  0.2008 -1.4716
  176SAPI  H17S20053   2.200   0.535   8.100  0.7054  0.2879  0.4637
  176SAPI  C21820054   2.128   0.433   8.286 -0.0318 -0.2842  0.5943
  176SAPI  H18R20055   2.193   0.348   8.255  0.0182 -0.3632  0.9193
  176SAPI  H18S20056   2.030   0.403   8.328 -0.1761 -1.8630 -0.8022
  176SAPI  C21920057   2.188   0.524   8.385 -0.3323 -0.0130  0.1873
  176SAPI  H19R20058   2.125   0.615   8.391 -3.1512 -1.9196  0.4366
  176SAPI  H19S20059   2.289   0.545   8.344 -0.0146 -2.3639 -0.3386
  176SAPI  C22020060   2.204   0.468   8.529  0.1508 -0.3073  0.3491
  176SAPI  H20R20061   2.273   0.380   8.524 -1.3706 -1.3899 -3.6346
  176SAPI  H20S20062   2.107   0.427   8.566  0.3752 -0.6814  0.5303
  176SAPI  H20T20063   2.244   0.544   8.599 -0.3465 -0.7300  1.1047
  176SAPI   C3320064   2.260   1.167   7.213 -0.4708  0.2899 -0.4186
  176SAPI   H3X20065   2.263   1.059   7.190  2.3505  0.3380 -0.4321
  176SAPI   H3Y20066   2.150   1.186   7.208 -0.2650  1.4524 -0.6333
  176SAPI   C3420067   2.325   1.174   7.354 -0.1094  0.0873  0.5699
  176SAPI   H4X20068   2.335   1.281   7.383 -1.3009  0.4605 -0.3581
  176SAPI   H4Y20069   2.425   1.129   7.335  0.9506  1.7815  1.9562
  176SAPI   C3520070   2.253   1.092   7.459  0.0390 -0.5108 -0.2940
  176SAPI   H5X20071   2.237   0.989   7.420 -1.6894  0.3675 -2.0214
  176SAPI   H5Y20072   2.153   1.138   7.479  0.4362  1.0870 -1.8395
  176SAPI   C3620073   2.325   1.087   7.593 -0.6982 -0.4488  0.1578
  176SAPI   H6X20074   2.319   1.185   7.646  1.5281  0.1210 -0.5778
  176SAPI   H6Y20075   2.431   1.053   7.581 -0.7849 -1.5468  2.2940
  176SAPI   C3720076   2.256   0.991   7.697 -0.2779  0.2648 -0.0817
  176SAPI   H7X20077   2.255   0.886   7.661 -1.2016 -0.1286  1.0540
  176SAPI   H7Y20078   2.151   1.026   7.697 -0.4074 -0.1224  0.0788
  176SAPI   C3820079   2.326   0.992   7.831 -0.9699  0.3794 -0.3018
  176SAPI   H8X20080   2.328   1.098   7.865 -0.8434  0.2115  0.2331
  176SAPI   H8Y20081   2.436   0.984   7.818 -0.6242  2.3127  1.1806
  176SAPI   C3920082   2.274   0.894   7.934  0.2473  0.7290 -0.6129
  176SAPI   H9X20083   2.316   0.796   7.903  0.1789  0.0526  1.3589
  176SAPI   H9Y20084   2.162   0.892   7.934  0.2328  1.5798 -1.2404
  176SAPI  C31020085   2.330   0.917   8.074  1.0102  0.4226  0.3211
  176SAPI  H10X20086   2.298   1.016   8.113  1.1764  0.1935  1.0365
  176SAPI  H10Y20087   2.441   0.912   8.075  1.0359  0.9294  0.4192
  176SAPI  C31120088   2.278   0.813   8.177 -0.8893  0.5808 -0.2774
  176SAPI  H11X20089   2.292   0.711   8.134 -1.0553  1.4416 -2.4108
  176SAPI  H11Y20090   2.171   0.829   8.202 -1.2194 -0.3672 -1.0598
  176SAPI  C31220091   2.349   0.842   8.314 -0.1496 -0.1782 -0.0558
  176SAPI  H12X20092   2.457   0.816   8.309 -0.4435 -1.4108 -0.1592
  176SAPI  H12Y20093   2.307   0.775   8.393  1.7114  0.0180  1.1414
  176SAPI  C31320094   2.348   0.979   8.373 -0.3742 -0.3174  0.7681
  176SAPI  H13X20095   2.241   1.004   8.384 -0.2923  0.0899  0.6545
  176SAPI  H13Y20096   2.389   1.059   8.308 -0.6776  0.5914  1.6711
  176SAPI  C31420097   2.403   0.984   8.512  0.3483  0.1278 -0.3183
  176SAPI  H14X20098   2.513   0.969   8.511 -0.1514 -3.9610 -3.0344
  176SAPI  H14Y20099   2.351   0.903   8.567 -1.4537 -0.2237 -2.4658
  176SAPI  C31520100   2.371   1.117   8.576  0.0244 -0.8439 -0.0271
  176SAPI  H15X20101   2.262   1.134   8.567  0.1028 -0.1825  0.2112
  176SAPI  H15Y20102   2.414   1.198   8.513  2.2076 -1.5501  0.4796
  176SAPI  C31620103   2.408   1.124   8.719  0.4323  0.0713  0.7121
  176SAPI  H16X20104   2.517   1.128   8.737  0.3782 -1.8665  1.5700
  176SAPI  H16Y20105   2.354   1.040   8.768  0.3110 -0.5985 -0.5523
  176SAPI  C31720106   2.358   1.257   8.783  0.3950  0.3627 -0.6216
  176SAPI  H17X20107   2.257   1.267   8.738 -0.1570 -0.3935  0.4272
  176SAPI  H17Y20108   2.424   1.341   8.753  0.5400  0.7684  0.8182
  176SAPI  C31820109   2.338   1.254   8.931  0.3691 -0.5310  0.3687
  176SAPI  H18X20110   2.428   1.249   8.995  1.2594 -1.5112 -0.9299
  176SAPI  H18Y20111   2.269   1.171   8.959  1.6471 -1.0733  1.9170
  176SAPI  H18Z20112   2.299   1.357   8.947  0.3490 -0.5665  0.5436
  177SLPC     N20113   2.027   4.178  11.096 -0.2884  0.0232 -0.0819
  177SLPC   C1320114   2.056   4.322  11.124 -0.1471  0.3330 -0.0556
  177SLPC  H13A20115   2.048   4.336  11.231  1.8216  2.1398 -0.1089
  177SLPC  H13B20116   2.153   4.354  11.090  1.5903 -0.9620  3.4503
  177SLPC  H13C20117   1.992   4.389  11.067  1.2306  1.6169 -0.1295
  177SLPC   C1420118   1.899   4.149  11.162  0.3990 -0.5796  0.0234
  177SLPC  H14A20119   1.884   4.188  11.261  0.4549  0.9133 -0.5478
  177SLPC  H14B20120   1.814   4.192  11.110 -0.0651 -0.4919  0.8490
  177SLPC  H14C20121   1.897   4.041  11.172  0.6449 -0.4024  2.2090
  177SLPC   C1520122   2.139   4.104  11.168 -0.5967 -1.1196  0.2675
  177SLPC  H15A20123   2.228   4.121  11.109 -2.5357  2.5038 -1.8257
  177SLPC  H15B20124   2.158   4.142  11.267  0.5234 -1.0083  0.0129
  177SLPC  H15C20125   2.119   3.999  11.183  0.8992 -1.4314  0.1067
  177SLPC   C1220126   2.020   4.157  10.947  0.6032  0.1569 -0.1172
  177SLPC  H12A20127   2.116   4.180  10.902 -0.2364  1.1437 -1.4047
  177SLPC  H12B20128   1.942   4.217  10.904  0.6509  1.9364  2.2062
  177SLPC   C1120129   1.996   4.013  10.899 -0.1777  0.7580 -0.3561
  177SLPC  H11A20130   1.973   4.016  10.790 -0.8814  0.2896 -0.2193
  177SLPC  H11B20131   1.899   3.982  10.942 -1.9976  2.1394 -3.3133
  177SLPC     P20132   2.229   3.889  10.857  0.5514 -0.3863  0.1192
  177SLPC   O1320133   2.281   4.007  10.784  0.2582 -0.2238 -0.2638
  177SLPC   O1420134   2.327   3.829  10.949 -0.2112 -0.5249 -0.2178
  177SLPC   O1220135   2.097   3.929  10.940  0.0792 -0.2902 -0.3711
  177SLPC   O1120136   2.203   3.784  10.745 -0.1499 -0.1164 -0.5677
  177SLPC    C120137   2.066   3.759  10.709 -0.4420 -0.3187  0.2668
  177SLPC    HA20138   2.007   3.730  10.798 -0.3209  2.8542  1.4488
  177SLPC    HB20139   2.024   3.856  10.675  1.9352  0.0785 -1.6968
  177SLPC    C220140   2.063   3.660  10.587 -0.1168  0.8978 -0.6129
  177SLPC    HS20141   2.082   3.555  10.617 -0.8509  0.2887 -2.1979
  177SLPC   O2120142   2.153   3.697  10.482 -0.3770  0.5159  0.6328
  177SLPC   C2120143   2.273   3.651  10.494 -0.2732 -0.7508 -0.5869
  177SLPC   O2220144   2.308   3.567  10.575 -0.1658  0.4728  0.4339
  177SLPC   C2220145   2.364   3.697  10.377  0.4266 -0.0773 -0.1478
  177SLPC   H2R20146   2.462   3.728  10.419 -1.2866  4.1651  0.9828
  177SLPC   H2S20147   2.385   3.615  10.304  1.5309  1.0122 -1.0776
  177SLPC    C320148   1.920   3.661  10.535 -0.5569 -0.1990  0.5081
  177SLPC    HX20149   1.875   3.762  10.529 -2.2915 -0.9595  0.5517
  177SLPC    HY20150   1.870   3.596  10.610 -0.9677 -1.6348 -0.9757
  177SLPC   O3120151   1.907   3.587  10.409 -0.6652  0.2205 -0.0566
  177SLPC   C3120152   1.821   3.646  10.319 -1.0384  0.1869  0.0403
  177SLPC   O3220153   1.754   3.741  10.338  0.3775 -0.7479 -0.0483
  177SLPC   C3220154   1.801   3.552  10.194 -0.2742  0.2405  0.7775
  177SLPC   H2X20155   1.698   3.511  10.187  0.3121 -0.9816 -1.3512
  177SLPC   H2Y20156   1.874   3.471  10.215 -1.4790 -0.5632  1.9574
  177SLPC   C2320157   2.299   3.809  10.292 -0.2720 -0.5087 -0.6244
  177SLPC   H3R20158   2.283   3.902  10.350  0.1095 -0.2172 -0.9848
  177SLPC   H3S20159   2.199   3.778  10.253  0.0582 -1.0186 -1.0726
  177SLPC   C2420160   2.395   3.847  10.180 -0.3102 -0.0476 -0.4762
  177SLPC   H4R20161   2.492   3.879  10.224 -0.7050  2.6042 -1.4984
  177SLPC   H4S20162   2.354   3.938  10.132 -0.4695 -0.1846 -0.5994
  177SLPC   C2520163   2.406   3.735  10.078  0.2372  0.3050  0.1232
  177SLPC   H5R20164   2.307   3.691  10.055  0.7801 -0.9715  0.2158
  177SLPC   H5S20165   2.471   3.659  10.127  0.7232  0.6486  0.0177
  177SLPC   C2620166   2.484   3.773   9.955  0.1882 -0.3006  0.6962
  177SLPC   H6R20167   2.536   3.690   9.903  1.7237  1.9402 -1.4921
  177SLPC   H6S20168   2.571   3.833   9.991  0.6408  0.2284 -1.1776
  177SLPC   C2720169   2.393   3.849   9.861 -0.4081  0.7755  0.1414
  177SLPC   H7R20170   2.333   3.920   9.922 -3.3228 -0.5165 -1.0850
  177SLPC   H7S20171   2.325   3.779   9.806 -1.7687 -0.0294  2.7803
  177SLPC   C2820172   2.480   3.931   9.765 -1.1573  0.5170  0.2510
  177SLPC   H8R20173   2.552   3.986   9.831 -0.4137  0.6406 -0.6567
  177SLPC   H8S20174   2.420   4.007   9.710 -1.5585  0.2281  0.2937
  177SLPC   C2920175   2.556   3.838   9.671 -0.4308 -0.3432  0.4751
  177SLPC   H9R20176   2.652   3.796   9.703  0.2572  0.0441 -1.0296
  177SLPC  C21020177   2.531   3.823   9.540 -0.4527 -0.7884 -0.1624
  177SLPC  H10R20178   2.597   3.751   9.489  0.3867 -0.5557  0.5813
  177SLPC  C21120179   2.422   3.879   9.464 -0.3990  0.9369  0.0886
  177SLPC  H11R20180   2.356   3.953   9.515 -0.4625  1.4502 -0.7127
  177SLPC  H11S20181   2.457   3.941   9.378 -0.3363  0.8419  0.0474
  177SLPC  C21220182   2.330   3.779   9.405  0.2635  0.2864 -0.3238
  177SLPC  H12R20183   2.239   3.764   9.465  1.6869 -0.6779  1.6483
  177SLPC  C21320184   2.350   3.692   9.307 -0.0184  0.1038  0.3889
  177SLPC  H13R20185   2.277   3.613   9.285 -0.1648  0.5491 -0.7615
  177SLPC  C21420186   2.483   3.682   9.231 -0.1945 -0.5140  0.0319
  177SLPC  H14R20187   2.528   3.581   9.240  1.6291  0.2731  0.0357
  177SLPC  H14S20188   2.557   3.761   9.256  0.7211 -1.6606  0.9531
  177SLPC  C21520189   2.465   3.712   9.076 -0.1343  0.1414 -0.2107
  177SLPC  H15R20190   2.436   3.817   9.059 -0.9622 -0.2658 -1.3549
  177SLPC  H15S20191   2.379   3.652   9.039  1.0838 -2.3079  0.8249
  177SLPC  C21620192   2.578   3.658   8.979 -0.9111 -0.5585  0.0851
  177SLPC  H16R20193   2.564   3.686   8.872 -0.0776 -0.1695  0.0720
  177SLPC  H16S20194   2.580   3.547   8.981 -3.2858 -0.6505 -0.9487
  177SLPC  C21720195   2.715   3.699   9.023 -0.8827  0.4096 -0.3135
  177SLPC  H17R20196   2.746   3.657   9.122 -0.0302 -1.4846 -1.3649
  177SLPC  H17S20197   2.717   3.808   9.043 -0.3560  0.4428 -0.5590
  177SLPC  C21820198   2.831   3.674   8.929 -0.2052  0.0570  0.3716
  177SLPC  H18R20199   2.821   3.578   8.875  1.9484  0.1027 -0.1321
  177SLPC  H18S20200   2.929   3.684   8.979 -0.0788  1.2744 -0.0932
  177SLPC  H18T20201   2.824   3.745   8.843  1.1693 -0.3593 -0.0962
  177SLPC   C3320202   1.828   3.621  10.050  0.7497 -0.2527  0.1870
  177SLPC   H3X20203   1.782   3.722  10.055  0.5605 -0.4109  1.8589
  177SLPC   H3Y20204   1.768   3.560   9.977  1.7008  0.6202 -1.3535
  177SLPC   C3420205   1.977   3.628  10.021  0.4815  0.4030 -0.6527
  177SLPC   H4X20206   2.016   3.526  10.042  3.0344  1.2905 -0.9632
  177SLPC   H4Y20207   2.030   3.693  10.094  1.7762 -1.2824 -0.0694
  177SLPC   C3520208   2.003   3.676   9.880  0.6060  0.3944 -0.2196
  177SLPC   H5X20209   2.113   3.679   9.866  0.4472  0.6168 -1.5138
  177SLPC   H5Y20210   1.960   3.777   9.864  0.8338  0.9558  2.4090
  177SLPC   C3620211   1.960   3.569   9.778  0.2857 -0.1813 -0.9362
  177SLPC   H6X20212   1.850   3.578   9.770  0.2936 -0.2365 -1.1198
  177SLPC   H6Y20213   1.990   3.471   9.820 -0.7640  0.0394  0.3558
  177SLPC   C3720214   2.023   3.587   9.642 -0.0876  0.2229  0.4095
  177SLPC   H7X20215   2.132   3.567   9.638  0.4244  3.0416 -1.1325
  177SLPC   H7Y20216   2.006   3.693   9.615  0.8997  0.3840  0.4016
  177SLPC   C3820217   1.946   3.517   9.536  0.7577 -0.2714  0.9297
  177SLPC   H8X20218   1.860   3.583   9.512  1.1221 -0.3479 -0.6036
  177SLPC   H8Y20219   1.904   3.420   9.572 -1.6508  0.4308  0.1005
  177SLPC   C3920220   2.023   3.496   9.405  0.2008  0.1717  0.8350
  177SLPC   H9X20221   2.108   3.426   9.421  0.5410  0.3922  0.0282
  177SLPC   H9Y20222   2.061   3.592   9.364 -0.6020 -0.5448 -1.7286
  177SLPC  C31020223   1.936   3.437   9.291  0.2584 -0.0425 -0.2871
  177SLPC  H10X20224   1.877   3.526   9.264  0.3687 -0.3821 -1.6807
  177SLPC  H10Y20225   1.862   3.365   9.332 -0.8746  0.4554 -1.4310
  177SLPC  C31120226   1.998   3.373   9.176 -0.3096  0.1078  1.0247
  177SLPC  H11X20227   1.918   3.324   9.117  2.2482 -1.5472 -1.1487
  177SLPC  H11Y20228   2.073   3.299   9.212 -1.0282 -1.6625 -1.0456
  177SLPC  C31220229   2.065   3.463   9.065 -0.0755 -0.3489 -0.3434
  177SLPC  H12X20230   2.146   3.526   9.108 -1.8759  1.9696 -0.2175
  177SLPC  H12Y20231   1.991   3.531   9.017 -0.8226 -0.3894  0.7344
  177SLPC  C31320232   2.125   3.370   8.960  0.1805 -0.0408 -0.0988
  177SLPC  H13X20233   2.039   3.324   8.908  0.7495 -1.6877  0.3941
  177SLPC  H13Y20234   2.187   3.285   8.997  2.5050  0.6246 -2.2668
  177SLPC  C31420235   2.203   3.443   8.848 -0.1181 -0.1012 -0.0706
  177SLPC  H14X20236   2.301   3.479   8.885 -1.0904  2.5710  0.0024
  177SLPC  H14Y20237   2.148   3.530   8.806  0.1896  0.4764  0.7272
  177SLPC  C31520238   2.238   3.357   8.726 -0.0129  0.7617 -0.2708
  177SLPC  H15X20239   2.329   3.401   8.681  1.3130  0.5671  2.1363
  177SLPC  H15Y20240   2.170   3.360   8.638  0.8608  1.5545 -0.9185
  177SLPC  C31620241   2.265   3.205   8.747 -0.2035 -0.0184  0.2752
  177SLPC  H16X20242   2.169   3.157   8.775 -1.1084  0.8576 -1.2159
  177SLPC  H16Y20243   2.331   3.184   8.834 -0.1192 -0.0440  0.2057
  177SLPC  C31720244   2.325   3.127   8.634  0.1670  0.1727 -0.0893
  177SLPC  H17X20245   2.275   3.154   8.538  0.1995 -1.2823 -0.5418
  177SLPC  H17Y20246   2.309   3.020   8.658 -0.0484  0.7980  2.6431
  177SLPC  C31820247   2.475   3.151   8.618  0.6674  0.3036 -0.3077
  177SLPC  H18X20248   2.522   3.129   8.716  1.7235  0.6545 -0.7233
  177SLPC  H18Y20249   2.493   3.252   8.574 -0.5850  0.5298 -0.3090
  177SLPC  H18Z20250   2.516   3.075   8.548  0.6377 -0.6107  0.6600
  178SLPC     N20251   4.197   5.642  11.129  0.4958  0.1161  0.7216
  178SLPC   C1320252   4.327   5.698  11.159  0.1957  0.6136 -0.1527
  178SLPC  H13A20253   4.314   5.787  11.219  2.5665  0.9824 -0.1240
  178SLPC  H13B20254   4.379   5.631  11.227 -0.2096 -1.2001 -1.5870
  178SLPC  H13C20255   4.387   5.730  11.076 -0.7598  1.5422 -0.4824
  178SLPC   C1420256   4.113   5.753  11.076 -0.1656 -0.5472 -0.5193
  178SLPC  H14A20257   4.169   5.805  11.000  0.5815 -2.5926 -1.3999
  178SLPC  H14B20258   4.024   5.716  11.028 -0.9588  2.1863 -1.2391
  178SLPC  H14C20259   4.078   5.816  11.157 -0.2942 -1.5048  0.1932
  178SLPC   C1520260   4.141   5.586  11.263 -0.3989 -0.0757  0.0187
  178SLPC  H15A20261   4.052   5.527  11.247  0.2975 -1.1927  0.2196
  178SLPC  H15B20262   4.216   5.514  11.294 -1.3800 -0.7929  0.7681
  178SLPC  H15C20263   4.122   5.664  11.334  1.0372 -0.2765  0.6392
  178SLPC   C1220264   4.210   5.531  11.025  0.1031  0.1101 -0.2879
  178SLPC  H12A20265   4.302   5.477  11.037  0.9604  1.1948 -1.7462
  178SLPC  H12B20266   4.233   5.579  10.931  1.6069 -0.3006 -0.1320
  178SLPC   C1120267   4.088   5.445  11.000 -0.1385  0.0947 -0.6868
  178SLPC  H11A20268   4.060   5.399  11.097  0.5459  2.7318  0.8033
  178SLPC  H11B20269   4.113   5.350  10.947 -1.5357 -0.2114 -0.8153
  178SLPC     P20270   3.984   5.564  10.791  0.2477  0.1155  0.3939
  178SLPC   O1320271   3.850   5.613  10.756 -0.1423  0.0481 -0.3509
  178SLPC   O1420272   4.088   5.668  10.789  0.4181 -0.0783 -0.3694
  178SLPC   O1220273   3.982   5.507  10.936 -0.4676  0.3738  0.1154
  178SLPC   O1120274   4.033   5.441  10.703  0.2456  0.5518 -0.3133
  178SLPC    C120275   3.941   5.333  10.689 -0.5561  0.0918  0.3146
  178SLPC    HA20276   4.000   5.240  10.700 -0.8476 -0.2481 -0.9545
  178SLPC    HB20277   3.863   5.336  10.769  1.6232  2.6254  2.4276
  178SLPC    C220278   3.872   5.323  10.549  0.3143 -0.4022 -0.8831
  178SLPC    HS20279   3.952   5.291  10.478 -0.3507 -0.6173 -1.5530
  178SLPC   O2120280   3.796   5.435  10.505 -0.1122 -0.2075  0.2978
  178SLPC   C2120281   3.881   5.520  10.438 -0.1105  0.8240  0.0867
  178SLPC   O2220282   4.000   5.497  10.418 -0.0800  0.3086  0.5039
  178SLPC   C2220283   3.805   5.643  10.390 -0.1518 -1.1623  1.1673
  178SLPC   H2R20284   3.702   5.607  10.369 -0.4740  0.0713  0.5502
  178SLPC   H2S20285   3.804   5.715  10.474  2.1029  0.8155 -0.4205
  178SLPC    C320286   3.771   5.206  10.550  0.0711  0.4454 -0.3653
  178SLPC    HX20287   3.684   5.213  10.618  0.8143 -0.5178  0.7074
  178SLPC    HY20288   3.833   5.118  10.576 -1.8628 -0.8095  0.0927
  178SLPC   O3120289   3.725   5.168  10.422  0.4336 -0.0610  0.7170
  178SLPC   C3120290   3.619   5.240  10.371  0.3200  0.9058  0.7895
  178SLPC   O3220291   3.546   5.310  10.437  0.1589 -0.6407 -0.3688
  178SLPC   C3220292   3.601   5.207  10.223  0.2370  0.5027 -0.5311
  178SLPC   H2X20293   3.492   5.207  10.201  0.1714  1.0658 -0.1995
  178SLPC   H2Y20294   3.637   5.103  10.209  0.4324  0.9811 -3.9627
  178SLPC   C2320295   3.866   5.707  10.257  0.6037 -0.5708 -0.0550
  178SLPC   H3R20296   3.834   5.633  10.181  3.6814 -0.3502 -1.6456
  178SLPC   H3S20297   3.975   5.718  10.273  0.5118  0.1289  0.1100
  178SLPC   C2420298   3.800   5.844  10.223 -0.0086  0.3424  0.1802
  178SLPC   H4R20299   3.833   5.912  10.305 -2.7037  0.9097  0.8256
  178SLPC   H4S20300   3.692   5.828  10.242 -0.4813  0.1649 -2.4749
  178SLPC   C2520301   3.844   5.893  10.085  0.3314 -0.1189  0.4228
  178SLPC   H5R20302   3.954   5.907  10.096 -0.1178  1.2766  3.5919
  178SLPC   H5S20303   3.791   5.988  10.063  1.3431 -0.0486 -1.8367
  178SLPC   C2620304   3.818   5.791   9.965  0.3372  0.0560 -0.9224
  178SLPC   H6R20305   3.863   5.696   9.998 -0.9809  0.0884  1.0488
  178SLPC   H6S20306   3.883   5.825   9.882  2.9293  0.0381  1.0548
  178SLPC   C2720307   3.669   5.780   9.920  0.4239 -0.0823 -0.0094
  178SLPC   H7R20308   3.606   5.774  10.012  0.9812 -1.3478  0.3042
  178SLPC   H7S20309   3.652   5.686   9.864  0.1007 -0.8383  1.3175
  178SLPC   C2820310   3.623   5.898   9.821  0.2194  0.2519 -0.4468
  178SLPC   H8R20311   3.694   5.886   9.736 -0.3192 -0.3744 -0.8077
  178SLPC   H8S20312   3.644   5.997   9.868  0.8369 -0.6014  1.1361
  178SLPC   C2920313   3.482   5.896   9.765 -0.1878  1.0459 -0.4840
  178SLPC   H9R20314   3.404   5.894   9.842 -0.0694 -1.8867 -0.3733
  178SLPC  C21020315   3.452   5.892   9.633  0.3811  0.1034  0.2077
  178SLPC  H10R20316   3.346   5.877   9.607  0.0823  1.7566  0.4248
  178SLPC  C21120317   3.556   5.882   9.518 -0.2185  0.0812 -0.4327
  178SLPC  H11R20318   3.645   5.826   9.554 -1.0564 -0.7375  0.3898
  178SLPC  H11S20319   3.589   5.984   9.491 -3.1202  1.2630  0.2864
  178SLPC  C21220320   3.509   5.804   9.400 -0.1641  0.5584 -0.0165
  178SLPC  H12R20321   3.472   5.703   9.425  0.2119  0.7390  1.3180
  178SLPC  C21320322   3.513   5.847   9.273  0.7391 -0.8250 -0.6555
  178SLPC  H13R20323   3.506   5.764   9.201 -0.9356 -0.9344 -0.3864
  178SLPC  C21420324   3.564   5.987   9.230  0.2561  0.6748  0.2353
  178SLPC  H14R20325   3.549   6.058   9.314 -1.0210 -1.8843  2.2638
  178SLPC  H14S20326   3.499   6.016   9.145  2.1504 -2.1917 -2.2990
  178SLPC  C21520327   3.703   5.972   9.181  0.1941  0.3494 -0.2497
  178SLPC  H15R20328   3.729   6.044   9.101 -0.0116 -0.4288 -1.0180
  178SLPC  H15S20329   3.717   5.869   9.142  0.2625  0.3384 -0.1958
  178SLPC  C21620330   3.805   5.984   9.296 -0.5363  0.4034  0.1966
  178SLPC  H16R20331   3.802   5.884   9.344  0.2855 -0.1096 -0.7875
  178SLPC  H16S20332   3.792   6.059   9.376 -0.8173 -1.9065  2.3631
  178SLPC  C21720333   3.947   5.996   9.253 -0.4701  0.0038  0.3827
  178SLPC  H17R20334   3.958   6.081   9.183  2.1050 -1.7983 -1.4660
  178SLPC  H17S20335   3.980   5.913   9.187  1.9239 -1.0328  2.7855
  178SLPC  C21820336   4.048   6.010   9.366  0.2838  0.1577 -0.2667
  178SLPC  H18R20337   4.152   6.004   9.328 -0.0023  0.4154 -1.1039
  178SLPC  H18S20338   4.028   5.917   9.424 -1.9621 -0.7224 -2.3728
  178SLPC  H18T20339   4.037   6.095   9.437 -2.1174 -2.4930  2.7017
  178SLPC   C3320340   3.677   5.294  10.125 -0.6933 -0.3250 -0.9698
  178SLPC   H3X20341   3.787   5.298  10.138 -0.6342 -1.7125 -0.8823
  178SLPC   H3Y20342   3.630   5.394  10.133 -0.3807 -0.2461 -0.1808
  178SLPC   C3420343   3.655   5.248   9.975 -0.0840  0.7394  0.7854
  178SLPC   H4X20344   3.547   5.224   9.965  0.4715 -1.6546  0.1258
  178SLPC   H4Y20345   3.720   5.161   9.951 -1.2643  0.4890 -1.7152
  178SLPC   C3520346   3.676   5.367   9.878 -0.2781  0.4265 -0.1633
  178SLPC   H5X20347   3.785   5.385   9.882  0.4078 -3.2405 -0.1427
  178SLPC   H5Y20348   3.596   5.441   9.900 -0.7913  0.1876 -1.1852
  178SLPC   C3620349   3.635   5.326   9.737 -0.5978 -0.4098 -0.3508
  178SLPC   H6X20350   3.644   5.417   9.673  1.0600 -1.6401 -1.9073
  178SLPC   H6Y20351   3.528   5.295   9.745 -1.0756  1.3604  0.3735
  178SLPC   C3720352   3.710   5.202   9.678 -0.2878 -0.9407 -0.1123
  178SLPC   H7X20353   3.710   5.116   9.748  1.0363 -2.0704 -1.4442
  178SLPC   H7Y20354   3.816   5.234   9.670 -0.4679 -0.0266  0.9737
  178SLPC   C3820355   3.659   5.147   9.537 -0.1470  0.4085 -0.5964
  178SLPC   H8X20356   3.556   5.107   9.546  0.7868 -2.0036  0.0871
  178SLPC   H8Y20357   3.730   5.069   9.502  0.5349  2.4197 -3.9242
  178SLPC   C3920358   3.656   5.260   9.433 -0.0526 -0.1477  0.1838
  178SLPC   H9X20359   3.567   5.327   9.443 -1.6124 -1.5716 -3.1736
  178SLPC   H9Y20360   3.630   5.205   9.339 -1.7726  1.2730 -0.2008
  178SLPC  C31020361   3.794   5.325   9.393 -0.3595  0.0936 -0.5583
  178SLPC  H10X20362   3.865   5.243   9.369 -1.4766 -0.5893 -1.5694
  178SLPC  H10Y20363   3.842   5.380   9.476 -2.2747  1.5078 -0.3590
  178SLPC  C31120364   3.772   5.414   9.272 -0.0868  0.5329 -0.1750
  178SLPC  H11X20365   3.696   5.486   9.309 -1.0702 -1.3127  1.5158
  178SLPC  H11Y20366   3.723   5.354   9.192  1.9490 -0.9803 -0.3494
  178SLPC  C31220367   3.907   5.476   9.229 -0.3712 -0.2843  0.2004
  178SLPC  H12X20368   3.962   5.386   9.196  0.5964  0.1226  0.6859
  178SLPC  H12Y20369   3.956   5.519   9.319  1.0583  0.0589 -0.7167
  178SLPC  C31320370   3.910   5.601   9.136 -0.6069 -0.6032 -0.1031
  178SLPC  H13X20371   4.012   5.613   9.093 -1.9031  0.1110 -3.1511
  178SLPC  H13Y20372   3.878   5.695   9.186 -0.6894 -1.1157  0.8200
  178SLPC  C31420373   3.830   5.579   9.013 -0.5290  0.2828  0.2149
  178SLPC  H14X20374   3.723   5.589   9.044 -0.4369  0.1956  0.5575
  178SLPC  H14Y20375   3.847   5.480   8.966 -1.1732  0.2393  0.0623
  178SLPC  C31520376   3.858   5.687   8.906 -0.0624  0.3659 -0.5587
  178SLPC  H15X20377   3.830   5.785   8.951  0.3519  0.0135  0.4692
  178SLPC  H15Y20378   3.959   5.681   8.862 -0.7023 -0.3389 -1.9802
  178SLPC  C31620379   3.759   5.672   8.786 -0.2039  0.0666  0.3920
  178SLPC  H16X20380   3.783   5.570   8.750  2.7140  1.0412 -0.5502
  178SLPC  H16Y20381   3.787   5.748   8.710 -0.0655  0.0624  0.4404
  178SLPC  C31720382   3.607   5.677   8.813  0.4115  0.2311 -0.6495
  178SLPC  H17X20383   3.581   5.613   8.900  2.2996  0.2410 -0.0463
  178SLPC  H17Y20384   3.543   5.633   8.734 -0.4701  1.5990 -0.7289
  178SLPC  C31820385   3.562   5.818   8.844  0.1676  0.8252  0.0827
  178SLPC  H18X20386   3.458   5.826   8.806  0.2443 -2.3134 -0.8955
  178SLPC  H18Y20387   3.618   5.896   8.788 -0.4500 -0.1725 -1.9485
  178SLPC  H18Z20388   3.573   5.843   8.952  1.5104  1.8193 -0.2664
  179SLPC     N20389   5.950   2.070  10.432 -0.3962 -0.4660 -0.0677
  179SLPC   C1320390   6.085   2.129  10.450 -0.3247  0.4744 -0.1320
  179SLPC  H13A20391   6.126   2.148  10.352 -0.3428  1.1381 -0.0125
  179SLPC  H13B20392   6.084   2.216  10.513  0.9869 -0.9690  1.9735
  179SLPC  H13C20393   6.151   2.060  10.502 -1.2601  0.6719  1.3433
  179SLPC   C1420394   5.882   2.011  10.551 -0.1858  0.3470 -1.0699
  179SLPC  H14A20395   5.888   2.087  10.627  1.5105 -0.0112 -0.8281
  179SLPC  H14B20396   5.777   2.001  10.529 -0.5426 -1.6077  1.3442
  179SLPC  H14C20397   5.921   1.913  10.573  0.9924  0.8132 -1.0416
  179SLPC   C1520398   5.967   1.949  10.333 -0.0021  0.0745 -0.0028
  179SLPC  H15A20399   5.872   1.899  10.319 -1.6954  2.5493  2.0419
  179SLPC  H15B20400   5.994   1.992  10.237  0.9696  1.2934  0.7877
  179SLPC  H15C20401   6.037   1.876  10.370 -1.0956 -0.8332  0.2884
  179SLPC   C1220402   5.875   2.184  10.375  0.6475 -0.3702 -0.3107
  179SLPC  H12A20403   5.933   2.228  10.295 -1.2094  2.3316 -0.2183
  179SLPC  H12B20404   5.873   2.263  10.448  0.2401  0.7957 -1.5614
  179SLPC   C1120405   5.732   2.152  10.323 -0.6079 -0.4198  0.1948
  179SLPC  H11A20406   5.738   2.069  10.249 -2.3192 -0.4275  0.0436
  179SLPC  H11B20407   5.702   2.242  10.266  0.5949  0.3007  0.6727
  179SLPC     P20408   5.536   2.002  10.417 -0.3577 -0.1685 -0.2351
  179SLPC   O1320409   5.599   1.868  10.448 -0.0726 -0.0105 -0.4814
  179SLPC   O1420410   5.420   2.039  10.501 -0.0485  0.4632  0.5163
  179SLPC   O1220411   5.640   2.117  10.436 -0.0667 -0.3019  0.1881
  179SLPC   O1120412   5.498   2.009  10.263 -0.2806 -0.0524 -0.1592
  179SLPC    C120413   5.411   2.110  10.217 -0.0947  0.8147  0.1209
  179SLPC    HA20414   5.419   2.200  10.282 -1.6675  0.7276  0.4543
  179SLPC    HB20415   5.444   2.139  10.115 -1.6883  1.1956 -0.2927
  179SLPC    C220416   5.259   2.073  10.193 -0.3976 -0.0695  0.1992
  179SLPC    HS20417   5.224   2.039  10.293 -0.8217 -0.4791 -0.0918
  179SLPC   O2120418   5.243   1.969  10.089  0.3601 -0.3510  0.4702
  179SLPC   C2120419   5.269   1.842  10.124 -0.0972  0.1998  0.3421
  179SLPC   O2220420   5.298   1.802  10.232  0.1101 -0.3938  0.6137
  179SLPC   C2220421   5.255   1.753   9.998 -0.3020 -0.4200 -0.0040
  179SLPC   H2R20422   5.234   1.650  10.034 -0.0313 -0.7469 -0.7815
  179SLPC   H2S20423   5.162   1.801   9.960 -0.9842 -1.0619  0.8282
  179SLPC    C320424   5.170   2.194  10.163  0.7606 -0.5914 -0.4024
  179SLPC    HX20425   5.162   2.252  10.258  0.8198 -1.4065  0.0984
  179SLPC    HY20426   5.075   2.153  10.123 -0.9013  0.3724  2.3815
  179SLPC   O3120427   5.228   2.274  10.057  0.1161  0.1182 -0.4919
  179SLPC   C3120428   5.180   2.390  10.039 -0.3329  0.4793  0.1384
  179SLPC   O3220429   5.087   2.439  10.103  0.1303  0.3827  0.1974
  179SLPC   C3220430   5.238   2.459   9.918  0.1559  0.0518  0.4071
  179SLPC   H2X20431   5.343   2.422   9.908 -0.5318 -2.6761  2.5872
  179SLPC   H2Y20432   5.249   2.569   9.929  2.7521 -0.2006  0.5928
  179SLPC   C2320433   5.368   1.756   9.895  0.1551  0.2179 -0.8557
  179SLPC   H3R20434   5.450   1.693   9.934 -0.7088 -0.1374  0.4339
  179SLPC   H3S20435   5.396   1.864   9.889  1.0910 -0.0152 -0.7627
  179SLPC   C2420436   5.325   1.706   9.762 -0.5480  0.1525  0.1019
  179SLPC   H4R20437   5.248   1.771   9.716 -0.1942  0.8758  0.5120
  179SLPC   H4S20438   5.285   1.602   9.761 -0.1541 -0.0003 -0.0235
  179SLPC   C2520439   5.444   1.695   9.672  0.2685 -0.3905  0.1981
  179SLPC   H5R20440   5.533   1.645   9.716  0.4697 -1.0753 -0.9730
  179SLPC   H5S20441   5.488   1.797   9.661 -1.3132  0.2180 -0.7268
  179SLPC   C2620442   5.424   1.641   9.528  0.0248 -0.5968  0.3551
  179SLPC   H6R20443   5.364   1.718   9.475  1.0166 -0.6406 -0.8557
  179SLPC   H6S20444   5.371   1.543   9.535 -2.7756  0.8791  0.6115
  179SLPC   C2720445   5.566   1.610   9.463 -0.3682 -0.1254  0.7623
  179SLPC   H7R20446   5.635   1.572   9.541 -1.5718 -2.9280  0.5097
  179SLPC   H7S20447   5.599   1.706   9.417  0.6449 -0.0352  1.6409
  179SLPC   C2820448   5.572   1.508   9.345  0.7830 -0.0697  0.0244
  179SLPC   H8R20449   5.582   1.406   9.389  3.7202 -0.8575 -2.3019
  179SLPC   H8S20450   5.671   1.518   9.294 -0.6099 -0.5523 -2.8674
  179SLPC   C2920451   5.460   1.522   9.244  0.2425  0.1108  0.2766
  179SLPC   H9R20452   5.359   1.535   9.286 -0.5913 -0.4465 -1.5394
  179SLPC  C21020453   5.480   1.516   9.109 -0.0266 -0.1631  0.1516
  179SLPC  H10R20454   5.389   1.502   9.048  1.2043 -0.7712 -1.5932
  179SLPC  C21120455   5.603   1.498   9.019 -0.2569 -0.3129  0.1496
  179SLPC  H11R20456   5.691   1.504   9.087 -1.5374  0.1779  1.7851
  179SLPC  H11S20457   5.610   1.590   8.957 -1.6807 -0.5359 -0.3466
  179SLPC  C21220458   5.610   1.371   8.934 -0.1558  0.0495  0.9493
  179SLPC  H12R20459   5.556   1.280   8.965 -1.6542  0.0924 -1.4098
  179SLPC  C21320460   5.692   1.363   8.827  0.2362 -0.5398  0.5419
  179SLPC  H13R20461   5.700   1.266   8.776  2.0228 -0.7577  1.2081
  179SLPC  C21420462   5.774   1.484   8.769 -1.0899  0.4809 -0.8178
  179SLPC  H14R20463   5.877   1.444   8.778 -0.3726  1.2463 -4.7624
  179SLPC  H14S20464   5.773   1.576   8.831 -0.2100 -1.3501  2.0040
  179SLPC  C21520465   5.746   1.516   8.623 -0.4931  0.5348 -0.1704
  179SLPC  H15R20466   5.727   1.422   8.566  0.4031  0.1257  0.1845
  179SLPC  H15S20467   5.843   1.546   8.578  0.3433  0.3224  1.4474
  179SLPC  C21620468   5.626   1.604   8.592 -0.2964 -0.4601 -0.0665
  179SLPC  H16R20469   5.628   1.702   8.644 -2.1619  0.6763 -2.0366
  179SLPC  H16S20470   5.538   1.551   8.635  0.2399  0.1024  1.8021
  179SLPC  C21720471   5.601   1.639   8.441 -0.1332 -0.5918  0.6938
  179SLPC  H17R20472   5.497   1.680   8.437  0.5939  1.2648 -0.1002
  179SLPC  H17S20473   5.608   1.552   8.372  2.8271 -1.2526  1.7863
  179SLPC  C21820474   5.692   1.749   8.394  0.3569  0.3052 -0.2571
  179SLPC  H18R20475   5.778   1.691   8.355 -0.0386  0.1574 -0.9089
  179SLPC  H18S20476   5.719   1.834   8.461  0.5644  0.8672 -1.0439
  179SLPC  H18T20477   5.657   1.798   8.301  1.0304 -2.1546 -1.8405
  179SLPC   C3320478   5.164   2.426   9.792  0.4302 -0.4980  0.7240
  179SLPC   H3X20479   5.070   2.483   9.775  1.5016  1.0113 -0.2467
  179SLPC   H3Y20480   5.144   2.316   9.792  0.6880 -0.5875 -2.3844
  179SLPC   C3420481   5.252   2.464   9.670  0.0663 -0.0280  0.4293
  179SLPC   H4X20482   5.359   2.459   9.699  0.4968  0.5940 -0.9618
  179SLPC   H4Y20483   5.234   2.572   9.648 -0.5783 -0.0268  0.9673
  179SLPC   C3520484   5.226   2.394   9.532  0.0182 -0.3636 -0.0622
  179SLPC   H5X20485   5.120   2.421   9.516  0.3521  1.0907  0.0228
  179SLPC   H5Y20486   5.233   2.284   9.526  1.5327 -0.3453  0.8673
  179SLPC   C3620487   5.307   2.444   9.407 -0.0292  0.1889  0.4666
  179SLPC   H6X20488   5.413   2.409   9.412  0.3156  1.4275  2.3725
  179SLPC   H6Y20489   5.310   2.555   9.401  1.9234  0.1099 -0.8329
  179SLPC   C3720490   5.241   2.400   9.276 -0.7583  0.4536 -1.0104
  179SLPC   H7X20491   5.136   2.433   9.268 -0.6419  1.2512  0.5928
  179SLPC   H7Y20492   5.253   2.289   9.276  1.9682  0.6981  0.6626
  179SLPC   C3820493   5.317   2.449   9.150 -0.1506  0.5847 -0.0075
  179SLPC   H8X20494   5.425   2.426   9.163 -0.0707  0.4612 -0.8773
  179SLPC   H8Y20495   5.317   2.560   9.145 -0.1816  0.6159  0.6526
  179SLPC   C3920496   5.267   2.383   9.017  0.6420  0.0778 -1.1608
  179SLPC   H9X20497   5.169   2.422   8.984  0.7445  0.1773 -1.3476
  179SLPC   H9Y20498   5.262   2.274   9.039 -0.1953  0.1808 -0.8339
  179SLPC  C31020499   5.365   2.395   8.913 -0.0644  0.1151  0.3543
  179SLPC  H10X20500   5.471   2.374   8.941 -0.4588  0.6252  2.3662
  179SLPC  H10Y20501   5.365   2.500   8.875 -1.1617 -0.3262 -0.8581
  179SLPC  C31120502   5.340   2.289   8.808 -0.1087  0.4410 -0.2180
  179SLPC  H11X20503   5.235   2.309   8.777 -0.0071  2.1408  0.4989
  179SLPC  H11Y20504   5.355   2.196   8.867 -3.1659  0.4462  0.6857
  179SLPC  C31220505   5.440   2.291   8.694 -0.0196 -0.3401 -0.4090
  179SLPC  H12X20506   5.533   2.257   8.745 -1.1370 -1.3191  1.0020
  179SLPC  H12Y20507   5.456   2.391   8.649  1.7635 -0.0835  0.7073
  179SLPC  C31320508   5.404   2.189   8.581  0.0596  0.1497  0.9846
  179SLPC  H13X20509   5.297   2.181   8.553 -0.2559  2.3290  1.4381
  179SLPC  H13Y20510   5.429   2.096   8.637  1.2229 -0.4299 -0.4689
  179SLPC  C31420511   5.484   2.206   8.453 -0.4834 -0.6805 -0.6260
  179SLPC  H14X20512   5.581   2.256   8.474 -1.6577  1.8973 -1.1182
  179SLPC  H14Y20513   5.436   2.282   8.387  0.4047 -0.4438 -1.0062
  179SLPC  C31520514   5.517   2.085   8.366 -0.0038 -0.7701 -0.7779
  179SLPC  H15X20515   5.427   2.022   8.351 -1.4338  1.1103 -0.2972
  179SLPC  H15Y20516   5.603   2.039   8.419 -0.5608  0.3358  1.1246
  179SLPC  C31620517   5.573   2.125   8.229 -0.0426 -0.7720  0.3753
  179SLPC  H16X20518   5.667   2.184   8.233 -0.5134  0.0023  0.0722
  179SLPC  H16Y20519   5.502   2.186   8.170  0.7566  2.0318  2.1952
  179SLPC  C31720520   5.604   2.007   8.139 -1.2021 -0.1289  0.2035
  179SLPC  H17X20521   5.680   1.959   8.204  0.8797  0.3781 -1.8049
  179SLPC  H17Y20522   5.657   2.035   8.045 -1.0226 -3.1540 -0.6256
  179SLPC  C31820523   5.484   1.926   8.095 -0.3314 -0.2247 -0.7789
  179SLPC  H18X20524   5.511   1.829   8.046 -2.6879 -2.5910  2.3548
  179SLPC  H18Y20525   5.417   1.973   8.020 -2.3798 -1.1229  0.4479
  179SLPC  H18Z20526   5.416   1.903   8.179  2.9507 -0.1496  2.0056
  180SLPC     N20527   6.675   6.602  10.714 -0.2883 -0.2610  0.0622
  180SLPC   C1320528   6.649   6.723  10.633 -0.5692 -0.8754  0.1925
  180SLPC  H13A20529   6.731   6.791  10.655 -0.3536 -1.0346 -0.1065
  180SLPC  H13B20530   6.638   6.697  10.528 -1.8207  1.5281 -0.3048
  180SLPC  H13C20531   6.552   6.768  10.650 -0.3756 -0.9931  1.6414
  180SLPC   C1420532   6.817   6.562  10.687  0.4687 -0.6935 -0.0774
  180SLPC  H14A20533   6.842   6.468  10.736 -2.9331 -2.0755 -0.8643
  180SLPC  H14B20534   6.826   6.549  10.580  0.4715 -0.1907 -0.1387
  180SLPC  H14C20535   6.880   6.644  10.717 -3.6470  1.0979  4.3020
  180SLPC   C1520536   6.582   6.488  10.666  0.4897 -0.0418  0.0122
  180SLPC  H15A20537   6.482   6.522  10.688 -0.0805 -1.3045 -0.5444
  180SLPC  H15B20538   6.583   6.484  10.558 -2.1130  4.8558 -0.2913
  180SLPC  H15C20539   6.603   6.397  10.722  3.4275  2.0153  2.3956
  180SLPC   C1220540   6.646   6.639  10.858  0.4855 -0.6978 -0.5165
  180SLPC  H12A20541   6.714   6.711  10.902 -1.6471 -0.5631  2.6758
  180SLPC  H12B20542   6.671   6.563  10.931 -0.4139  1.0181  1.6508
  180SLPC   C1120543   6.502   6.704  10.889  0.9368 -0.2688 -0.3193
  180SLPC  H11A20544   6.504   6.809  10.852 -2.3114 -0.2884 -0.7537
  180SLPC  H11B20545   6.493   6.715  10.999  3.0532  1.2173 -0.2654
  180SLPC     P20546   6.253   6.717  10.843  0.0571  0.0433 -0.0785
  180SLPC   O1320547   6.188   6.683  10.971  0.5131 -0.0266 -0.4944
  180SLPC   O1420548   6.267   6.863  10.820 -0.0555  0.3397  0.5350
  180SLPC   O1220549   6.388   6.640  10.834 -0.8428  0.3440 -0.3697
  180SLPC   O1120550   6.161   6.657  10.725 -0.7063  0.3357 -0.4838
  180SLPC    C120551   6.204   6.576  10.613  0.3559  0.7077 -0.4018
  180SLPC    HA20552   6.286   6.506  10.639 -0.2085  0.9961  2.3501
  180SLPC    HB20553   6.121   6.507  10.584  2.1857 -1.3640 -0.8060
  180SLPC    C220554   6.244   6.666  10.500 -0.3653 -0.1869 -0.1041
  180SLPC    HS20555   6.330   6.731  10.529 -2.0419  1.0742  2.2890
  180SLPC   O2120556   6.132   6.757  10.462 -0.2451 -0.2068 -0.1996
  180SLPC   C2120557   6.160   6.871  10.414 -0.3243 -0.1940  0.3293
  180SLPC   O2220558   6.272   6.913  10.383  0.2213 -0.2084 -0.0901
  180SLPC   C2220559   6.033   6.958  10.389  0.0113 -0.6733  0.4381
  180SLPC   H2R20560   5.959   6.891  10.340  1.1643 -1.1956 -0.6240
  180SLPC   H2S20561   6.006   7.000  10.488 -1.4093 -1.6432  0.4809
  180SLPC    C320562   6.284   6.572  10.378  0.0369 -0.1952 -0.6640
  180SLPC    HX20563   6.191   6.524  10.341  0.1256 -0.4494 -0.5562
  180SLPC    HY20564   6.354   6.496  10.416 -0.3627 -0.6084 -0.7482
  180SLPC   O3120565   6.338   6.651  10.277  0.2406 -0.1849  0.3792
  180SLPC   C3120566   6.463   6.683  10.287  0.4976  0.0101 -0.1123
  180SLPC   O3220567   6.536   6.650  10.379 -0.1933 -0.1016  0.0156
  180SLPC   C3220568   6.503   6.767  10.165  0.2127 -0.4288  0.0175
  180SLPC   H2X20569   6.501   6.872  10.201 -0.2914 -1.4775  3.2427
  180SLPC   H2Y20570   6.428   6.755  10.084  1.8063 -0.3537 -1.4842
  180SLPC   C2320571   6.053   7.075  10.288 -0.0536 -0.0761  0.3120
  180SLPC   H3R20572   6.146   7.132  10.308 -0.5155  0.3026  1.4217
  180SLPC   H3S20573   5.978   7.155  10.307  0.4830  1.1535 -2.5586
  180SLPC   C2420574   6.027   7.036  10.140  0.4062 -0.0937  0.2544
  180SLPC   H4R20575   6.045   7.128  10.081 -0.1960  0.1820  0.4967
  180SLPC   H4S20576   5.920   7.007  10.138  0.1893  0.5899  1.1343
  180SLPC   C2520577   6.118   6.932  10.084  0.1638 -0.2775 -0.3429
  180SLPC   H5R20578   6.112   6.838  10.143 -0.3537  0.0743  0.1735
  180SLPC   H5S20579   6.221   6.969  10.098  0.5473 -0.7198 -1.9334
  180SLPC   C2620580   6.095   6.900   9.938 -0.2446 -0.7332  0.2929
  180SLPC   H6R20581   6.078   6.997   9.887  2.6477 -1.4057 -2.0782
  180SLPC   H6S20582   5.996   6.851   9.929 -0.4707 -0.0009 -1.3966
  180SLPC   C2720583   6.204   6.817   9.869  0.5007  0.2967 -0.0304
  180SLPC   H7R20584   6.197   6.725   9.931 -1.9917  0.2209 -0.3965
  180SLPC   H7S20585   6.303   6.866   9.856  0.7071 -0.1960 -0.3224
  180SLPC   C2820586   6.155   6.790   9.725  0.3294 -0.2214 -0.3913
  180SLPC   H8R20587   6.151   6.880   9.659  2.1670  0.8957  0.9697
  180SLPC   H8S20588   6.049   6.757   9.725 -0.0798  1.0731 -0.8704
  180SLPC   C2920589   6.246   6.687   9.652 -1.4274  0.3940  0.1846
  180SLPC   H9R20590   6.351   6.720   9.646 -1.4376  0.2718 -0.8439
  180SLPC  C21020591   6.202   6.567   9.606  0.2378  0.4088  0.3604
  180SLPC  H10R20592   6.281   6.496   9.578  0.2476  0.2807  0.7051
  180SLPC  C21120593   6.064   6.500   9.612  0.0231  0.4303  0.1094
  180SLPC  H11R20594   6.055   6.441   9.518  0.7402 -0.6011  0.6762
  180SLPC  H11S20595   5.989   6.581   9.607 -0.4561  0.1073  1.8215
  180SLPC  C21220596   6.046   6.407   9.730 -0.1657  0.4537 -0.6251
  180SLPC  H12R20597   6.116   6.419   9.814  0.5767 -0.2469 -1.1393
  180SLPC  C21320598   5.941   6.330   9.750 -0.1633  0.0204  0.0062
  180SLPC  H13R20599   5.955   6.262   9.836  2.6992 -0.4616 -0.7912
  180SLPC  C21420600   5.820   6.321   9.650 -0.3993 -0.7381 -0.4338
  180SLPC  H14R20601   5.824   6.399   9.570 -0.0810 -1.5023 -1.1616
  180SLPC  H14S20602   5.730   6.345   9.711 -0.5875  0.3135 -1.1035
  180SLPC  C21520603   5.808   6.187   9.573  0.2111 -0.0843 -0.4193
  180SLPC  H15R20604   5.777   6.116   9.652  3.0197 -0.8219  0.0531
  180SLPC  H15S20605   5.909   6.148   9.552  1.0023  0.1998  2.6212
  180SLPC  C21620606   5.710   6.188   9.447 -0.3168  0.3749 -0.4619
  180SLPC  H16R20607   5.612   6.234   9.471  0.2888  1.3614  0.1422
  180SLPC  H16S20608   5.699   6.086   9.405 -2.2220  1.0137 -1.5606
  180SLPC  C21720609   5.769   6.266   9.329 -0.5298 -0.0223  0.6386
  180SLPC  H17R20610   5.875   6.238   9.313 -0.2643  1.8175 -0.9464
  180SLPC  H17S20611   5.770   6.374   9.354  1.7850  0.3869 -1.0904
  180SLPC  C21820612   5.694   6.247   9.196  0.4492  0.7642  0.0354
  180SLPC  H18R20613   5.741   6.301   9.111  3.8113 -0.6658  0.9311
  180SLPC  H18S20614   5.595   6.295   9.213 -0.0952 -0.2089 -0.3146
  180SLPC  H18T20615   5.690   6.138   9.175 -1.8500  0.7169  0.5753
  180SLPC   C3320616   6.642   6.735  10.112  0.1440 -0.0120 -0.3832
  180SLPC   H3X20617   6.651   6.625  10.129 -4.3012 -0.3427  0.4186
  180SLPC   H3Y20618   6.717   6.784  10.177 -0.0299 -0.7482  0.3905
  180SLPC   C3420619   6.669   6.782   9.964 -1.0053  0.0250 -0.0684
  180SLPC   H4X20620   6.771   6.757   9.929 -1.9700 -2.0546 -1.5243
  180SLPC   H4Y20621   6.650   6.892   9.958  1.6506  0.6551  1.8581
  180SLPC   C3520622   6.580   6.701   9.866 -0.5793  0.5753 -0.2817
  180SLPC   H5X20623   6.560   6.765   9.777  2.6654  0.3914 -1.2010
  180SLPC   H5Y20624   6.479   6.684   9.910  0.2088  0.5882  1.5469
  180SLPC   C3620625   6.647   6.569   9.827 -0.4535 -0.2015  0.2945
  180SLPC   H6X20626   6.583   6.484   9.860  0.9399 -0.8302  1.4136
  180SLPC   H6Y20627   6.747   6.554   9.874  1.6631  1.2155 -3.4980
  180SLPC   C3720628   6.684   6.553   9.678 -0.9349 -0.2500  0.2200
  180SLPC   H7X20629   6.735   6.454   9.676  0.7481  0.5470  1.8669
  180SLPC   H7Y20630   6.752   6.632   9.639 -1.7318 -0.7561 -2.2818
  180SLPC   C3820631   6.568   6.548   9.582  0.6480 -0.7821  0.8049
  180SLPC   H8X20632   6.532   6.651   9.562 -1.7576 -1.8857 -0.7451
  180SLPC   H8Y20633   6.483   6.484   9.615  0.0435 -1.1915 -1.4728
  180SLPC   C3920634   6.620   6.493   9.452  0.6139 -0.3444 -0.5397
  180SLPC   H9X20635   6.667   6.392   9.445  2.8127  0.6511 -0.5513
  180SLPC   H9Y20636   6.693   6.567   9.414 -0.9240 -0.2167 -3.4223
  180SLPC  C31020637   6.501   6.497   9.347  0.6807 -0.3913  0.1766
  180SLPC  H10X20638   6.463   6.601   9.340 -0.1030 -0.6876  0.0635
  180SLPC  H10Y20639   6.427   6.423   9.383 -0.3817  0.4342 -0.2821
  180SLPC  C31120640   6.564   6.460   9.211  0.6488 -0.5852 -0.5564
  180SLPC  H11X20641   6.604   6.357   9.219 -0.1673 -0.8537  0.2353
  180SLPC  H11Y20642   6.646   6.525   9.174 -1.4665  0.3891 -3.8047
  180SLPC  C31220643   6.452   6.454   9.107  0.5412 -0.9549 -0.1326
  180SLPC  H12X20644   6.436   6.555   9.063 -2.0883 -0.2800  2.2500
  180SLPC  H12Y20645   6.361   6.414   9.157  0.3478 -0.2136  0.1152
  180SLPC  C31320646   6.486   6.359   8.984 -0.5142  0.3306  0.1039
  180SLPC  H13X20647   6.404   6.353   8.909  0.4011  1.9211 -1.0487
  180SLPC  H13Y20648   6.502   6.257   9.025 -0.2895  0.7242  1.0117
  180SLPC  C31420649   6.623   6.384   8.922  0.2142 -0.0912 -0.3267
  180SLPC  H14X20650   6.700   6.418   8.994 -1.9684  1.9002  1.1523
  180SLPC  H14Y20651   6.602   6.463   8.847 -1.7484 -2.0904 -1.9371
  180SLPC  C31520652   6.676   6.253   8.854 -0.0713  0.3866 -0.0423
  180SLPC  H15X20653   6.594   6.201   8.799  0.3112  1.1034 -1.3194
  180SLPC  H15Y20654   6.713   6.187   8.935  2.7675 -0.0427 -1.6389
  180SLPC  C31620655   6.784   6.281   8.755  0.0554  0.1201  0.4891
  180SLPC  H16X20656   6.848   6.193   8.730  0.6476 -0.1458  2.8248
  180SLPC  H16Y20657   6.852   6.361   8.792 -1.1020  2.2035 -1.7261
  180SLPC  C31720658   6.733   6.326   8.617  0.2764  0.2004  0.0328
  180SLPC  H17X20659   6.805   6.378   8.550 -1.9397  1.6298 -1.3200
  180SLPC  H17Y20660   6.651   6.400   8.631  0.7863  0.9544 -0.8612
  180SLPC  C31820661   6.668   6.210   8.533 -0.4751  0.3057 -0.1113
  180SLPC  H18X20662   6.741   6.127   8.544  0.6320  1.3195  0.3511
  180SLPC  H18Y20663   6.643   6.243   8.430  0.9657 -0.1815 -0.6397
  180SLPC  H18Z20664   6.576   6.176   8.585  0.1945 -1.2360  0.0966
  181SLPC     N20665   2.913   3.555  11.048  0.0658  0.2475 -0.3136
  181SLPC   C1320666   2.940   3.403  11.046 -0.9610 -0.2192  0.2178
  181SLPC  H13A20667   3.008   3.365  11.120  1.5098 -1.0630 -2.3997
  181SLPC  H13B20668   2.848   3.349  11.065 -2.3363  1.4912 -1.3492
  181SLPC  H13C20669   2.980   3.373  10.950 -0.7057 -0.2290  0.3286
  181SLPC   C1420670   2.810   3.566  10.936  0.4438  0.3287  0.0601
  181SLPC  H14A20671   2.845   3.533  10.839 -1.0854 -1.5942  0.1466
  181SLPC  H14B20672   2.719   3.516  10.964  1.1205 -0.7732  0.3287
  181SLPC  H14C20673   2.776   3.669  10.945  0.6535  0.3188  1.0118
  181SLPC   C1520674   3.034   3.630  11.005  0.2691 -0.3231  0.0232
  181SLPC  H15A20675   3.125   3.589  11.046  0.0567 -0.1415  0.6798
  181SLPC  H15B20676   3.043   3.631  10.898  1.6297 -0.9437  0.1252
  181SLPC  H15C20677   3.027   3.735  11.029  0.3819 -0.2051 -0.4549
  181SLPC   C1220678   2.851   3.601  11.182 -0.2268 -0.6040 -0.6669
  181SLPC  H12A20679   2.934   3.619  11.249  0.7892 -4.5908 -0.7595
  181SLPC  H12B20680   2.794   3.518  11.221  0.7966 -1.2315 -0.4873
  181SLPC   C1120681   2.756   3.726  11.174 -0.5384  1.2306  0.2000
  181SLPC  H11A20682   2.744   3.770  11.276  0.7984 -0.1694  0.9847
  181SLPC  H11B20683   2.660   3.694  11.128 -0.5455  0.4861  0.7327
  181SLPC     P20684   2.803   3.985  11.112  0.1044  0.1249 -0.1380
  181SLPC   O1320685   2.769   4.025  11.252 -0.1211 -0.1507 -0.0706
  181SLPC   O1420686   2.930   4.044  11.064 -0.3157  0.4957 -0.2140
  181SLPC   O1220687   2.805   3.830  11.089 -0.0466 -0.2302 -0.5826
  181SLPC   O1120688   2.683   4.034  11.019 -0.5061 -0.2521  0.1567
  181SLPC    C120689   2.635   3.960  10.907 -0.0892  0.1542 -0.5728
  181SLPC    HA20690   2.633   3.852  10.934 -0.5331  0.1647 -0.5474
  181SLPC    HB20691   2.540   4.010  10.876  0.7123  2.6076  0.7691
  181SLPC    C220692   2.721   3.968  10.776 -0.1537  0.1935  0.0644
  181SLPC    HS20693   2.815   3.914  10.801 -1.6937 -3.0742 -0.9231
  181SLPC   O2120694   2.741   4.106  10.740 -0.2582  0.2168 -0.2465
  181SLPC   C2120695   2.851   4.129  10.666 -0.4457 -0.1114  0.3597
  181SLPC   O2220696   2.941   4.047  10.653 -0.0906 -0.1269 -0.2642
  181SLPC   C2220697   2.848   4.266  10.601  0.0041 -0.2507  0.0781
  181SLPC   H2R20698   2.830   4.338  10.684 -1.8710  0.1818 -0.6879
  181SLPC   H2S20699   2.950   4.294  10.565 -0.3778 -2.0386 -2.4770
  181SLPC    C320700   2.646   3.877  10.670  0.2054  0.2190  0.5316
  181SLPC    HX20701   2.551   3.922  10.636  0.4869 -0.4000 -1.1124
  181SLPC    HY20702   2.629   3.778  10.719  0.9905  0.5070  1.4114
  181SLPC   O3120703   2.733   3.856  10.556 -0.4665  0.6179 -0.0090
  181SLPC   C3120704   2.835   3.776  10.580 -0.1503  0.3263 -0.0340
  181SLPC   O3220705   2.852   3.705  10.672 -0.2219 -0.1389  0.0408
  181SLPC   C3220706   2.925   3.785  10.457  1.5279 -0.2872  0.2625
  181SLPC   H2X20707   2.935   3.682  10.417  0.3268  0.1202 -1.1596
  181SLPC   H2Y20708   3.030   3.813  10.481  1.5077  0.0809 -0.0716
  181SLPC   C2320709   2.733   4.278  10.500 -0.0395  0.3590 -0.0098
  181SLPC   H3R20710   2.699   4.383  10.510 -1.6683 -0.1737  0.2808
  181SLPC   H3S20711   2.641   4.220  10.521  0.2172  0.3362  1.0652
  181SLPC   C2420712   2.776   4.268  10.354  0.9773  0.7099  1.4270
  181SLPC   H4R20713   2.792   4.160  10.331  1.2310  0.4870  2.6183
  181SLPC   H4S20714   2.867   4.329  10.334  1.4387 -0.4585 -0.1837
  181SLPC   C2520715   2.666   4.315  10.257 -0.8490 -0.1059  0.1527
  181SLPC   H5R20716   2.626   4.415  10.285 -0.3232 -0.2509  1.4694
  181SLPC   H5S20717   2.576   4.253  10.278 -0.7738 -0.1349  0.3840
  181SLPC   C2620718   2.710   4.315  10.117 -0.4666 -0.5863 -0.0113
  181SLPC   H6R20719   2.749   4.213  10.098 -1.3615 -0.7595 -0.9653
  181SLPC   H6S20720   2.795   4.386  10.104  1.3844 -2.7633 -0.0314
  181SLPC   C2720721   2.590   4.344  10.026  0.2972  0.2584  0.4002
  181SLPC   H7R20722   2.558   4.447  10.053  0.2814  0.5704 -0.7505
  181SLPC   H7S20723   2.512   4.266  10.040  0.2159 -0.6559 -4.2791
  181SLPC   C2820724   2.638   4.351   9.881  0.8504  0.6007 -0.0382
  181SLPC   H8R20725   2.679   4.250   9.863 -0.6927 -0.1184  0.4309
  181SLPC   H8S20726   2.716   4.430   9.888 -0.2747  1.6062  1.5091
  181SLPC   C2920727   2.531   4.394   9.775 -0.0831 -0.0225 -0.2028
  181SLPC   H9R20728   2.454   4.462   9.814 -0.2564 -1.0907  1.3542
  181SLPC  C21020729   2.508   4.331   9.656 -0.4093 -0.5285 -0.1479
  181SLPC  H10R20730   2.422   4.364   9.595 -1.3833 -0.1946  1.3689
  181SLPC  C21120731   2.586   4.222   9.590  0.0462  0.3712 -0.0010
  181SLPC  H11R20732   2.523   4.160   9.523  1.6246 -2.7996  1.3615
  181SLPC  H11S20733   2.622   4.151   9.667  2.6991  2.5083  0.8235
  181SLPC  C21220734   2.710   4.274   9.513 -0.6235  0.1540 -0.3098
  181SLPC  H12R20735   2.797   4.316   9.566  0.2119 -0.0185 -1.5094
  181SLPC  C21320736   2.734   4.259   9.384  0.6444  0.1287 -0.3849
  181SLPC  H13R20737   2.827   4.305   9.349 -0.0752  2.5922  0.7954
  181SLPC  C21420738   2.641   4.181   9.290 -0.3075 -0.3477 -0.2478
  181SLPC  H14R20739   2.534   4.195   9.317  0.6448  2.4367  2.2984
  181SLPC  H14S20740   2.667   4.073   9.289  0.5266 -0.1705  1.3663
  181SLPC  C21520741   2.647   4.216   9.136 -0.0203 -0.3787  0.7548
  181SLPC  H15R20742   2.746   4.196   9.089  0.6796  1.1934  1.5051
  181SLPC  H15S20743   2.613   4.321   9.125  1.6893  0.0267 -0.9942
  181SLPC  C21620744   2.548   4.135   9.051 -0.1566  0.0626 -0.5017
  181SLPC  H16R20745   2.460   4.112   9.114 -1.9299 -1.6871 -3.4598
  181SLPC  H16S20746   2.597   4.038   9.026 -1.9965 -1.0377  0.0397
  181SLPC  C21720747   2.483   4.200   8.930  0.0196  0.1656  0.0601
  181SLPC  H17R20748   2.565   4.218   8.858 -0.4041 -1.0827 -0.7638
  181SLPC  H17S20749   2.447   4.302   8.952 -2.4947 -1.0186  1.6901
  181SLPC  C21820750   2.380   4.109   8.857 -0.1088 -0.3042  0.0722
  181SLPC  H18R20751   2.318   4.178   8.796  1.0888  2.4017  1.8281
  181SLPC  H18S20752   2.307   4.066   8.928 -1.7442  1.4079 -0.5078
  181SLPC  H18T20753   2.441   4.038   8.797  1.4971  2.8289 -2.1631
  181SLPC   C3320754   2.881   3.879  10.335  0.6812  0.3271  0.3344
  181SLPC   H3X20755   2.909   3.982  10.366  1.8806  0.7785 -2.0940
  181SLPC   H3Y20756   2.771   3.878  10.315  1.0127  4.1303 -2.3769
  181SLPC   C3420757   2.950   3.846  10.202  0.1316 -0.5161  0.1067
  181SLPC   H4X20758   2.938   3.742  10.163 -0.6493  0.0779 -1.2752
  181SLPC   H4Y20759   3.059   3.858  10.214  0.0802 -1.3952  1.5918
  181SLPC   C3520760   2.894   3.948  10.095 -0.1296 -0.1805  0.0849
  181SLPC   H5X20761   2.913   4.051  10.131  1.1831 -0.1159 -0.7561
  181SLPC   H5Y20762   2.789   3.912  10.088 -0.9783  1.9218  1.5649
  181SLPC   C3620763   2.947   3.931   9.954  0.2859  0.0599 -0.2451
  181SLPC   H6X20764   2.945   3.823   9.928 -1.2513 -0.1506  0.7130
  181SLPC   H6Y20765   3.056   3.949   9.963  0.2336  0.2037  0.0880
  181SLPC   C3720766   2.881   4.018   9.852  0.9927  0.3790  0.4506
  181SLPC   H7X20767   2.879   4.123   9.889  2.6056  1.1985 -1.6675
  181SLPC   H7Y20768   2.775   3.986   9.840  1.4025 -1.1846  0.8828
  181SLPC   C3820769   2.952   4.014   9.717 -0.1008 -0.3564 -0.5935
  181SLPC   H8X20770   3.063   4.016   9.723  0.0124  1.1870 -2.7217
  181SLPC   H8Y20771   2.914   4.103   9.663 -0.5234 -0.2020 -0.0422
  181SLPC   C3920772   2.922   3.901   9.625  0.0606  0.1175  0.4122
  181SLPC   H9X20773   2.811   3.906   9.615  0.0960 -1.5372 -0.8999
  181SLPC   H9Y20774   2.951   3.801   9.662  3.8865  0.9268 -0.2237
  181SLPC  C31020775   2.993   3.928   9.494 -0.4273 -0.0513  0.5814
  181SLPC  H10X20776   3.007   4.036   9.477  1.5041 -0.3534  0.1154
  181SLPC  H10Y20777   2.914   3.901   9.420 -0.0570  1.9517 -0.5633
  181SLPC  C31120778   3.130   3.862   9.480 -0.4051  0.2478 -0.0268
  181SLPC  H11X20779   3.111   3.755   9.456  1.6565  0.0106 -0.6718
  181SLPC  H11Y20780   3.187   3.862   9.575  1.3067 -0.2013 -1.0363
  181SLPC  C31220781   3.222   3.917   9.368 -0.0903  0.5034  0.7754
  181SLPC  H12X20782   3.329   3.913   9.399  0.1329 -1.2248 -0.1561
  181SLPC  H12Y20783   3.196   4.025   9.367  1.4380  0.8782  0.7242
  181SLPC  C31320784   3.209   3.850   9.232  0.1962 -0.1773 -0.6668
  181SLPC  H13X20785   3.102   3.852   9.205  0.0262  1.2928  0.0274
  181SLPC  H13Y20786   3.237   3.743   9.231  1.1127  0.0589 -1.0143
  181SLPC  C31420787   3.287   3.928   9.123 -0.2211  0.4227  0.4162
  181SLPC  H14X20788   3.392   3.920   9.158  0.4770  0.4116 -1.6068
  181SLPC  H14Y20789   3.261   4.036   9.133 -2.6375 -0.3945  3.6821
  181SLPC  C31520790   3.283   3.883   8.971  0.7343  0.5762 -0.3336
  181SLPC  H15X20791   3.346   3.959   8.920  0.8289 -0.3496 -1.5907
  181SLPC  H15Y20792   3.176   3.897   8.943  0.4582  0.7715  0.7962
  181SLPC  C31620793   3.339   3.741   8.939  0.6929 -1.4951  0.7309
  181SLPC  H16X20794   3.296   3.671   9.015  0.7139  0.0595  2.1944
  181SLPC  H16Y20795   3.448   3.741   8.961  1.1361 -2.1611 -1.4148
  181SLPC  C31720796   3.317   3.692   8.795 -0.6658  0.1735 -0.4659
  181SLPC  H17X20797   3.311   3.782   8.731 -2.9615  0.3717  0.0014
  181SLPC  H17Y20798   3.214   3.651   8.784 -0.9582  0.6931  0.2588
  181SLPC  C31820799   3.433   3.605   8.742  0.2776  0.1345  0.4066
  181SLPC  H18X20800   3.446   3.509   8.796 -2.9869 -2.8139 -3.6627
  181SLPC  H18Y20801   3.515   3.676   8.716 -0.4924  0.7595 -0.3947
  181SLPC  H18Z20802   3.411   3.564   8.641  0.4951 -0.4613  0.6032
  182SLPC     N20803   1.039   5.349  11.137  0.8470 -0.2175 -0.3151
  182SLPC   C1320804   0.898   5.344  11.081 -0.5126 -0.2680  0.1846
  182SLPC  H13A20805   0.886   5.362  10.975 -1.6049 -1.3534  0.1183
  182SLPC  H13B20806   0.856   5.247  11.098  0.6551 -0.5727  1.4334
  182SLPC  H13C20807   0.840   5.415  11.138  2.9836  1.9849  1.1266
  182SLPC   C1420808   1.034   5.338  11.287  0.0955  0.5890 -0.3269
  182SLPC  H14A20809   1.132   5.350  11.330 -0.9473 -0.0654  2.2965
  182SLPC  H14B20810   0.969   5.419  11.316 -0.7073 -0.9023  2.1656
  182SLPC  H14C20811   0.983   5.249  11.319  0.3103  0.7472  0.4471
  182SLPC   C1520812   1.099   5.474  11.093  0.7257 -0.9308  0.6751
  182SLPC  H15A20813   1.100   5.463  10.986 -1.1510 -0.7171  0.6075
  182SLPC  H15B20814   1.041   5.562  11.117  0.4782 -1.5570  2.4777
  182SLPC  H15C20815   1.197   5.487  11.137  0.8243 -0.1485  0.2287
  182SLPC   C1220816   1.114   5.231  11.076 -0.6628  0.1609 -0.1332
  182SLPC  H12A20817   1.052   5.149  11.109  0.1329 -0.2061  0.4720
  182SLPC  H12B20818   1.212   5.225  11.122 -1.5729  0.3017  1.8881
  182SLPC   C1120819   1.136   5.235  10.924  0.3408  0.2181 -0.6252
  182SLPC  H11A20820   1.041   5.244  10.867 -1.5602  0.1021  2.3625
  182SLPC  H11B20821   1.177   5.135  10.899  0.5160 -0.0781  0.7824
  182SLPC     P20822   1.379   5.313  10.924 -0.2187 -0.1418  0.1182
  182SLPC   O1320823   1.398   5.300  11.069 -0.3463  0.4584  0.4384
  182SLPC   O1420824   1.433   5.200  10.844  0.2972  0.3940 -0.0030
  182SLPC   O1220825   1.233   5.333  10.883  0.2856  0.0354  0.6117
  182SLPC   O1120826   1.455   5.441  10.878  0.1929 -0.0891  0.3098
  182SLPC    C120827   1.392   5.548  10.810 -0.3034 -0.8315 -0.9209
  182SLPC    HA20828   1.291   5.570  10.850  0.7822  0.8630  1.0135
  182SLPC    HB20829   1.439   5.646  10.834 -0.1699 -1.4241  1.3937
  182SLPC    C220830   1.392   5.533  10.659  0.0054 -0.1753 -0.5651
  182SLPC    HS20831   1.355   5.622  10.604 -1.7991 -0.2537  0.4780
  182SLPC   O2120832   1.305   5.423  10.615 -0.0362 -0.4647 -0.8848
  182SLPC   C2120833   1.173   5.454  10.629  0.2088  0.7496  0.4052
  182SLPC   O2220834   1.129   5.561  10.667 -0.3214 -0.3107 -0.1510
  182SLPC   C2220835   1.095   5.340  10.570  0.3697 -0.8899  0.2195
  182SLPC   H2R20836   1.147   5.279  10.493  2.0861  2.2716 -1.1922
  182SLPC   H2S20837   1.061   5.276  10.654  3.3762 -2.0044  0.6519
  182SLPC    C320838   1.542   5.513  10.609 -0.2216  0.2833  0.8413
  182SLPC    HX20839   1.598   5.438  10.669 -0.7051  0.1176  1.0889
  182SLPC    HY20840   1.591   5.610  10.628 -2.0612  1.0560  1.7717
  182SLPC   O3120841   1.537   5.495  10.472 -0.3727  0.0475  0.0801
  182SLPC   C3120842   1.579   5.376  10.428 -0.2873 -0.0554 -0.6433
  182SLPC   O3220843   1.619   5.281  10.496  0.5181 -0.4754 -0.3089
  182SLPC   C3220844   1.587   5.371  10.272  0.4527 -0.2926 -0.8684
  182SLPC   H2X20845   1.692   5.361  10.239  1.8948 -0.7467  3.4968
  182SLPC   H2Y20846   1.561   5.475  10.241  0.3239  0.5995  2.0647
  182SLPC   C2320847   0.978   5.396  10.499  0.2199 -0.1141  0.0022
  182SLPC   H3R20848   0.915   5.465  10.560 -1.5178 -1.2551 -0.4830
  182SLPC   H3S20849   0.909   5.310  10.487 -0.7410  0.5571  0.5801
  182SLPC   C2420850   0.990   5.443  10.352 -0.6732  0.3288 -0.0258
  182SLPC   H4R20851   0.892   5.484  10.322 -0.3198 -0.2523 -2.0352
  182SLPC   H4S20852   0.997   5.347  10.297 -0.4430 -1.0476  2.3405
  182SLPC   C2520853   1.118   5.536  10.319  0.0323  0.3109  0.6323
  182SLPC   H5R20854   1.208   5.499  10.373  1.1823  0.6373 -1.0383
  182SLPC   H5S20855   1.098   5.639  10.356 -0.9804  0.7911 -1.1883
  182SLPC   C2620856   1.140   5.554  10.163  0.1375  0.1266 -0.0915
  182SLPC   H6R20857   1.046   5.526  10.111 -0.6904  1.0208  0.9026
  182SLPC   H6S20858   1.211   5.477  10.127 -1.5651 -1.1454 -0.7668
  182SLPC   C2720859   1.190   5.696  10.130 -0.5625 -0.0630  0.3743
  182SLPC   H7R20860   1.271   5.723  10.200 -0.1141 -1.3253  0.3425
  182SLPC   H7S20861   1.105   5.765  10.150  1.3618  2.1748  1.0446
  182SLPC   C2820862   1.239   5.715   9.985 -0.3151 -0.1811 -1.2254
  182SLPC   H8R20863   1.318   5.640   9.963  0.0776 -0.3689  0.6652
  182SLPC   H8S20864   1.299   5.809   9.983  0.6608 -0.6682  2.0469
  182SLPC   C2920865   1.127   5.700   9.891  0.3402  0.2030  0.3000
  182SLPC   H9R20866   1.045   5.772   9.899 -0.1946 -0.3752  0.0706
  182SLPC  C21020867   1.115   5.617   9.788  0.4704  0.5075 -0.0398
  182SLPC  H10R20868   1.023   5.614   9.728  1.3118  0.8201 -1.3769
  182SLPC  C21120869   1.206   5.505   9.753 -0.9278  0.4741  0.2414
  182SLPC  H11R20870   1.143   5.417   9.728 -2.0143  1.5137 -0.7820
  182SLPC  H11S20871   1.275   5.464   9.830 -1.8471  1.0358  1.3820
  182SLPC  C21220872   1.288   5.549   9.631  0.3842  0.1850 -0.0988
  182SLPC  H12R20873   1.310   5.657   9.628 -1.6334  0.5931 -2.0744
  182SLPC  C21320874   1.328   5.468   9.530  0.3428  1.0083  0.6938
  182SLPC  H13R20875   1.384   5.523   9.453 -0.3245  3.4220  1.8660
  182SLPC  C21420876   1.302   5.317   9.521  0.4896  0.1502  0.7644
  182SLPC  H14R20877   1.228   5.272   9.591 -0.3087  0.6495  0.2430
  182SLPC  H14S20878   1.399   5.268   9.542  0.0508 -0.4944  1.3213
  182SLPC  C21520879   1.252   5.274   9.379  0.6277 -0.0550  0.3186
  182SLPC  H15R20880   1.249   5.163   9.377 -0.7570  0.0101 -1.5327
  182SLPC  H15S20881   1.321   5.310   9.300  0.1117 -1.8795 -0.9953
  182SLPC  C21620882   1.114   5.326   9.343  0.1172 -0.1689  0.1114
  182SLPC  H16R20883   1.127   5.436   9.357  1.1769 -0.5657  2.5605
  182SLPC  H16S20884   1.043   5.292   9.421 -1.0040 -0.4424 -1.0162
  182SLPC  C21720885   1.068   5.285   9.202 -0.6029  0.9202  0.8591
  182SLPC  H17R20886   0.962   5.315   9.188 -0.9866 -0.9620 -0.4305
  182SLPC  H17S20887   1.082   5.176   9.187 -0.0113  0.6192  3.4506
  182SLPC  C21820888   1.149   5.354   9.093  0.6258  0.2661  0.5343
  182SLPC  H18R20889   1.132   5.464   9.082 -0.2563 -0.2126 -3.6502
  182SLPC  H18S20890   1.116   5.322   8.992 -0.9225 -0.6441  1.3171
  182SLPC  H18T20891   1.257   5.329   9.103  0.2564 -1.3298  0.5366
  182SLPC   C3320892   1.507   5.267  10.206  0.3072 -0.6461 -0.5238
  182SLPC   H3X20893   1.408   5.251  10.253 -0.2905  0.6199 -1.3177
  182SLPC   H3Y20894   1.558   5.168  10.203 -3.0447 -2.3922 -2.0654
  182SLPC   C3420895   1.480   5.320  10.061 -0.2274 -0.2605  0.0180
  182SLPC   H4X20896   1.423   5.416  10.066  0.1970 -0.0457  0.8451
  182SLPC   H4Y20897   1.426   5.240  10.006 -1.1296 -0.4015  1.0674
  182SLPC   C3520898   1.604   5.345   9.977  0.1367  0.8579  0.3839
  182SLPC   H5X20899   1.661   5.250   9.967 -1.7922 -0.5358  2.2469
  182SLPC   H5Y20900   1.679   5.415  10.020  1.0480 -0.5572  1.1474
  182SLPC   C3620901   1.571   5.403   9.842  0.4347  0.6714  0.1316
  182SLPC   H6X20902   1.530   5.507   9.850  4.5122  2.4985 -1.5607
  182SLPC   H6Y20903   1.484   5.350   9.796  0.2664 -0.7440  2.0383
  182SLPC   C3720904   1.699   5.421   9.756 -0.4382 -0.3516  0.3529
  182SLPC   H7X20905   1.789   5.468   9.803 -1.6433  1.5421  0.8098
  182SLPC   H7Y20906   1.665   5.481   9.669  0.8220  1.5460  1.1141
  182SLPC   C3820907   1.757   5.287   9.710  0.9468  0.2314  0.3626
  182SLPC   H8X20908   1.781   5.226   9.800 -0.8334 -0.6948  0.2339
  182SLPC   H8Y20909   1.852   5.307   9.658  0.5480 -1.3261 -0.9772
  182SLPC   C3920910   1.668   5.222   9.608 -0.5320  0.4327  0.4672
  182SLPC   H9X20911   1.630   5.299   9.537 -0.0331 -0.6984 -1.0563
  182SLPC   H9Y20912   1.586   5.171   9.663 -2.0725  1.6291 -0.6634
  182SLPC  C31020913   1.729   5.101   9.529  0.4966  0.5075  0.0834
  182SLPC  H10X20914   1.664   5.082   9.442 -0.7194  2.2985  0.5728
  182SLPC  H10Y20915   1.722   5.014   9.598  1.2408  1.3400  1.2409
  182SLPC  C31120916   1.867   5.123   9.467  0.4822  0.7090 -0.2899
  182SLPC  H11X20917   1.941   5.118   9.550  2.1767  0.2966 -1.8132
  182SLPC  H11Y20918   1.873   5.226   9.428  1.2231  0.2036 -1.5278
  182SLPC  C31220919   1.904   5.008   9.368  0.2302  0.2724 -0.3275
  182SLPC  H12X20920   1.811   4.989   9.310  1.0275  1.1220 -1.9121
  182SLPC  H12Y20921   1.910   4.915   9.429  0.7574  0.0212 -0.7667
  182SLPC  C31320922   2.036   5.033   9.300 -0.0203  0.0747 -0.5986
  182SLPC  H13X20923   2.116   5.026   9.377  2.0003  0.2132 -2.6409
  182SLPC  H13Y20924   2.044   5.140   9.271  3.3393  0.2545  0.6844
  182SLPC  C31420925   2.061   4.940   9.189  0.0820 -0.5025  0.0683
  182SLPC  H14X20926   1.978   4.951   9.116  1.4085 -0.9434 -1.5330
  182SLPC  H14Y20927   2.069   4.837   9.230 -0.5298 -0.1743  1.0166
  182SLPC  C31520928   2.193   4.976   9.120  0.5016  0.9460  0.5952
  182SLPC  H15X20929   2.180   5.078   9.077 -2.5471 -0.9484 -3.4189
  182SLPC  H15Y20930   2.201   4.910   9.031  3.3271  2.3752 -0.2633
  182SLPC  C31620931   2.311   4.972   9.208 -0.5841 -0.8306  0.1801
  182SLPC  H16X20932   2.316   4.877   9.265 -1.6093 -1.5841 -0.9664
  182SLPC  H16Y20933   2.321   5.053   9.283 -0.5617  0.8244 -1.5756
  182SLPC  C31720934   2.446   4.972   9.134 -0.3912 -0.2260 -0.6518
  182SLPC  H17X20935   2.428   4.910   9.043  0.0972  0.4554 -1.2123
  182SLPC  H17Y20936   2.529   4.928   9.194 -0.5705 -0.2058 -0.3879
  182SLPC  C31820937   2.485   5.122   9.098  0.3106  0.4914 -0.0822
  182SLPC  H18X20938   2.405   5.167   9.036  1.2557  0.4825 -1.3379
  182SLPC  H18Y20939   2.577   5.111   9.036  0.2794 -0.6304  0.0511
  182SLPC  H18Z20940   2.511   5.186   9.185  1.7669  0.8934 -0.8002
  183SLPC     N20941   2.786   0.111  10.773  0.5324 -0.4669  0.1125
  183SLPC   C1320942   2.854   0.236  10.725 -0.5387  0.1039 -0.9010
  183SLPC  H13A20943   2.957   0.210  10.707 -0.0058 -0.7092  2.8076
  183SLPC  H13B20944   2.808   0.282  10.639 -0.2325  1.2637 -0.4546
  183SLPC  H13C20945   2.874   0.311  10.799  0.1473 -0.0621 -0.9163
  183SLPC   C1420946   2.640   0.139  10.792  0.4249 -0.6655 -0.0272
  183SLPC  H14A20947   2.604   0.199  10.709 -1.0896 -2.7356 -0.9234
  183SLPC  H14B20948   2.585   0.046  10.786 -0.3028 -0.2993  0.8489
  183SLPC  H14C20949   2.620   0.195  10.882  0.3756  1.5463 -1.3433
  183SLPC   C1520950   2.832   0.075  10.906  0.0147  0.0699 -0.7408
  183SLPC  H15A20951   2.925   0.020  10.918  0.3688  0.3080 -2.3367
  183SLPC  H15B20952   2.828   0.159  10.974 -0.0060 -0.7201  0.2557
  183SLPC  H15C20953   2.751   0.018  10.949  0.3058  0.5456  0.4546
  183SLPC   C1220954   2.818  -0.003  10.681  0.4476  0.1139  0.4987
  183SLPC  H12A20955   2.924   0.002  10.665  0.1878  1.0808 -0.9662
  183SLPC  H12B20956   2.767   0.010  10.587  0.9024  0.3211  0.2811
  183SLPC   C1120957   2.796  -0.144  10.736 -0.5962 -0.2298  0.2882
  183SLPC  H11A20958   2.854  -0.159  10.830  0.5764 -0.9028 -0.5329
  183SLPC  H11B20959   2.842  -0.217  10.667  1.7574 -2.4164  3.9884
  183SLPC     P20960   2.603  -0.310  10.807 -0.8215 -0.1634 -0.5469
  183SLPC   O1320961   2.660  -0.350  10.940 -0.1427  0.1059 -0.3054
  183SLPC   O1420962   2.452  -0.311  10.797  0.6404 -0.2614 -0.4220
  183SLPC   O1220963   2.658  -0.172  10.758  0.2369 -0.1282 -0.3000
  183SLPC   O1120964   2.655  -0.422  10.706  0.4341  0.0537  0.8621
  183SLPC    C120965   2.578  -0.450  10.587  0.5243 -0.4398  0.0571
  183SLPC    HA20966   2.469  -0.465  10.601  0.8787 -1.2988  2.1281
  183SLPC    HB20967   2.599  -0.366  10.517  0.7920  1.8161  2.7615
  183SLPC    C220968   2.629  -0.583  10.528  0.5919 -0.5812 -0.2221
  183SLPC    HS20969   2.592  -0.660  10.599 -0.6809  0.8570  0.7123
  183SLPC   O2120970   2.775  -0.582  10.517 -0.0769 -0.3649 -0.4169
  183SLPC   C2120971   2.831  -0.700  10.493  0.2346 -0.3066 -0.1739
  183SLPC   O2220972   2.767  -0.806  10.491 -0.2545 -0.1990 -0.6233
  183SLPC   C2220973   2.974  -0.682  10.445 -0.6594  0.1060 -0.3786
  183SLPC   H2R20974   3.015  -0.579  10.435  1.7555 -0.7095  0.7867
  183SLPC   H2S20975   3.042  -0.724  10.522 -3.1289 -3.4919 -0.0324
  183SLPC    C320976   2.572  -0.602  10.389  0.2419 -0.1424  0.2497
  183SLPC    HX20977   2.461  -0.593  10.392  0.3485  0.8713  1.5809
  183SLPC    HY20978   2.600  -0.704  10.354 -0.6484 -0.4203  0.3345
  183SLPC   O3120979   2.627  -0.508  10.301 -0.3974  0.1377  0.4533
  183SLPC   C3120980   2.566  -0.477  10.182  0.0060  0.0894  0.1287
  183SLPC   O3220981   2.464  -0.528  10.140  0.4732 -0.4703 -0.2617
  183SLPC   C3220982   2.638  -0.356  10.121 -0.1344 -0.3052 -0.2344
  183SLPC   H2X20983   2.735  -0.383  10.074  0.7339 -0.8331  1.7969
  183SLPC   H2Y20984   2.658  -0.277  10.196 -0.1383  0.5998 -1.1716
  183SLPC   C2320985   2.996  -0.772  10.326  0.3205 -0.9421 -0.2452
  183SLPC   H3R20986   2.953  -0.874  10.339 -0.6996 -0.3814  0.8775
  183SLPC   H3S20987   3.106  -0.779  10.312  0.1245 -2.7275 -1.0342
  183SLPC   C2420988   2.933  -0.726  10.183 -0.1188 -0.0228 -0.0706
  183SLPC   H4R20989   3.014  -0.671  10.130 -0.0495  0.3993  0.4782
  183SLPC   H4S20990   2.854  -0.657  10.217  1.0573  2.3441 -1.9944
  183SLPC   C2520991   2.884  -0.840  10.100 -0.3027 -0.5524 -0.0397
  183SLPC   H5R20992   2.828  -0.917  10.157 -0.5209 -1.0936 -0.9904
  183SLPC   H5S20993   2.977  -0.886  10.062  1.4088  2.0514  0.8520
  183SLPC   C2620994   2.798  -0.798   9.982  0.0592  0.5263 -0.3449
  183SLPC   H6R20995   2.834  -0.703   9.939 -1.9275  1.5621  0.2521
  183SLPC   H6S20996   2.694  -0.774  10.014  0.1502 -1.0348  1.2147
  183SLPC   C2720997   2.794  -0.904   9.876 -0.2600 -0.4921  0.4025
  183SLPC   H7R20998   2.736  -0.992   9.912 -0.0910 -0.6001  0.4100
  183SLPC   H7S20999   2.903  -0.920   9.863 -0.3119 -0.6703  0.1906
  183SLPC   C2821000   2.742  -0.862   9.735 -0.0996 -0.4248  0.1445
  183SLPC   H8R21001   2.774  -0.936   9.658 -1.6811 -0.4038 -0.5637
  183SLPC   H8S21002   2.791  -0.769   9.699 -1.9506  0.3280 -0.4568
  183SLPC   C2921003   2.592  -0.861   9.718  0.8024 -0.3666  0.4148
  183SLPC   H9R21004   2.547  -0.792   9.790  0.3733 -0.8991  0.6599
  183SLPC  C21021005   2.519  -0.937   9.631 -0.3899 -0.1389 -0.0548
  183SLPC  H10R21006   2.410  -0.940   9.640 -0.5914  3.1075 -0.6133
  183SLPC  C21121007   2.577  -1.032   9.530 -0.2763  0.4836  0.0798
  183SLPC  H11R21008   2.509  -1.121   9.529 -1.1435  1.1425 -0.0802
  183SLPC  H11S21009   2.668  -1.089   9.559 -0.9389 -0.1805  0.8950
  183SLPC  C21221010   2.602  -0.968   9.395 -0.2637  0.9539 -0.5661
  183SLPC  H12R21011   2.698  -0.914   9.392  0.0141  0.5272  0.4710
  183SLPC  C21321012   2.518  -0.967   9.284 -0.2537  0.1257 -0.2519
  183SLPC  H13R21013   2.542  -0.906   9.196 -2.3664  0.6084 -0.5143
  183SLPC  C21421014   2.385  -1.043   9.279  0.1427 -0.3840 -0.2923
  183SLPC  H14R21015   2.313  -0.991   9.212 -0.3286 -0.1999  0.3563
  183SLPC  H14S21016   2.339  -1.045   9.380 -2.5757 -2.1801 -1.5301
  183SLPC  C21521017   2.402  -1.188   9.236 -0.0027 -0.0365  0.5175
  183SLPC  H15R21018   2.301  -1.230   9.256 -0.7889  1.6017  0.0574
  183SLPC  H15S21019   2.484  -1.240   9.290  1.4641  0.5137 -1.1392
  183SLPC  C21621020   2.421  -1.196   9.084 -0.6401  0.2459 -0.3760
  183SLPC  H16R21021   2.528  -1.172   9.066  0.5946 -3.0734  2.0749
  183SLPC  H16S21022   2.368  -1.121   9.022  1.8481  2.0861 -0.3941
  183SLPC  C21721023   2.409  -1.344   9.043  0.9345  0.6041 -1.2546
  183SLPC  H17R21024   2.301  -1.367   9.044  0.9470  0.5586  0.5091
  183SLPC  H17S21025   2.470  -1.405   9.114 -0.6095 -0.5883 -0.9428
  183SLPC  C21821026   2.448  -1.370   8.899  0.8746  0.1876 -0.2099
  183SLPC  H18R21027   2.392  -1.300   8.833 -1.8818 -1.1469  0.6514
  183SLPC  H18S21028   2.429  -1.475   8.868  0.1419 -0.4567  2.3388
  183SLPC  H18T21029   2.555  -1.351   8.874  1.6023 -2.1034  1.0418
  183SLPC   C3321030   2.550  -0.280  10.018  0.3084 -0.4600  0.3464
  183SLPC   H3X21031   2.592  -0.179  10.000 -0.1725 -0.2396  0.4361
  183SLPC   H3Y21032   2.449  -0.254  10.057  1.2072  0.4539  2.1262
  183SLPC   C3421033   2.537  -0.343   9.877 -0.0585  0.0724  0.3175
  183SLPC   H4X21034   2.486  -0.268   9.813 -0.7895 -0.8286 -0.1535
  183SLPC   H4Y21035   2.471  -0.432   9.875 -0.2723  0.2573 -2.5359
  183SLPC   C3521036   2.668  -0.383   9.811 -0.8012 -0.3298  0.0845
  183SLPC   H5X21037   2.720  -0.463   9.868 -3.1511 -0.9280  1.4896
  183SLPC   H5Y21038   2.739  -0.298   9.807 -0.0501 -0.9862 -1.0398
  183SLPC   C3621039   2.664  -0.441   9.670 -0.2902  0.8090  0.6954
  183SLPC   H6X21040   2.611  -0.538   9.656  1.0192  0.4043 -1.9604
  183SLPC   H6Y21041   2.767  -0.463   9.632 -1.3834 -0.9068 -1.4037
  183SLPC   C3721042   2.602  -0.343   9.564 -0.6705 -0.6112  0.2683
  183SLPC   H7X21043   2.669  -0.255   9.576 -1.1883 -0.2365  0.4218
  183SLPC   H7Y21044   2.504  -0.303   9.596 -0.5620 -0.6044  0.5969
  183SLPC   C3821045   2.592  -0.405   9.427 -0.1553 -0.0003 -0.0333
  183SLPC   H8X21046   2.519  -0.489   9.431 -1.3041  0.8107 -3.1760
  183SLPC   H8Y21047   2.690  -0.454   9.409  0.2001  1.3083 -1.7813
  183SLPC   C3921048   2.551  -0.305   9.320  0.0320  0.5427  0.4718
  183SLPC   H9X21049   2.636  -0.239   9.294  1.3240 -0.6286  1.6135
  183SLPC   H9Y21050   2.453  -0.259   9.344  0.2934  0.3452  1.9771
  183SLPC  C31021051   2.522  -0.387   9.193 -0.2087 -0.1050  0.4113
  183SLPC  H10X21052   2.486  -0.490   9.213 -2.4819  0.1838 -1.8481
  183SLPC  H10Y21053   2.621  -0.416   9.152  0.2117  1.0918  0.5556
  183SLPC  C31121054   2.436  -0.319   9.083  0.8093  0.0989  0.5829
  183SLPC  H11X21055   2.332  -0.322   9.123  0.8082  0.7386  0.6366
  183SLPC  H11Y21056   2.437  -0.387   8.996  1.6752  2.8157 -1.6127
  183SLPC  C31221057   2.491  -0.183   9.039  0.1307  0.1613 -0.6828
  183SLPC  H12X21058   2.597  -0.176   9.007  0.2663 -0.3055 -0.3415
  183SLPC  H12Y21059   2.483  -0.130   9.136  0.3477 -2.3310  0.7340
  183SLPC  C31321060   2.398  -0.106   8.946 -0.3204 -0.5503  0.1311
  183SLPC  H13X21061   2.413   0.004   8.951  2.5190 -0.8785 -0.4794
  183SLPC  H13Y21062   2.295  -0.132   8.980 -0.1200 -1.2960  0.1608
  183SLPC  C31421063   2.422  -0.137   8.803  0.3864 -0.2047  0.7495
  183SLPC  H14X21064   2.412  -0.245   8.781  1.6797  0.2903 -2.6208
  183SLPC  H14Y21065   2.522  -0.122   8.757 -0.0400  0.4607  0.0179
  183SLPC  C31521066   2.313  -0.073   8.707 -0.1973  0.6743  0.1863
  183SLPC  H15X21067   2.322   0.037   8.721 -0.2606  0.5518  1.2477
  183SLPC  H15Y21068   2.208  -0.099   8.733 -0.7632 -0.5493 -3.1334
  183SLPC  C31621069   2.325  -0.102   8.555 -0.2418 -0.0644  0.3601
  183SLPC  H16X21070   2.256  -0.028   8.509  0.0029  1.3621  2.2612
  183SLPC  H16Y21071   2.294  -0.204   8.524  0.2693 -0.3376  0.7461
  183SLPC  C31721072   2.453  -0.063   8.478 -0.3034  0.4124  0.3207
  183SLPC  H17X21073   2.473  -0.132   8.393  1.2020  1.2310 -0.0016
  183SLPC  H17Y21074   2.543  -0.077   8.542 -1.4505  0.8386  2.0645
  183SLPC  C31821075   2.455   0.079   8.428 -0.4147  0.1202  0.0527
  183SLPC  H18X21076   2.378   0.083   8.349  0.0557  4.2957 -0.3170
  183SLPC  H18Y21077   2.554   0.107   8.387  0.6938 -2.9680  0.5199
  183SLPC  H18Z21078   2.424   0.154   8.505 -0.5824 -1.3475  1.4473
  184SLPC     N21079   4.742   3.794  10.759 -0.4998  0.0353  0.3245
  184SLPC   C1321080   4.657   3.786  10.639  0.4360  0.5581 -0.4303
  184SLPC  H13A21081   4.655   3.685  10.601  1.2257  0.4270 -0.1329
  184SLPC  H13B21082   4.564   3.829  10.674 -0.1981  0.9438 -2.5003
  184SLPC  H13C21083   4.699   3.857  10.569 -2.5663  0.2041 -2.7343
  184SLPC   C1421084   4.695   3.703  10.870 -0.2928  0.0542 -0.4362
  184SLPC  H14A21085   4.706   3.603  10.830  0.4105  0.0040 -0.1274
  184SLPC  H14B21086   4.756   3.699  10.960  0.1273 -1.5520 -0.7712
  184SLPC  H14C21087   4.590   3.717  10.890 -0.1751 -0.5291  0.6370
  184SLPC   C1521088   4.733   3.937  10.805  0.1921  0.7771 -0.3839
  184SLPC  H15A21089   4.637   3.952  10.853 -0.3734  0.6639 -1.4611
  184SLPC  H15B21090   4.813   3.944  10.877 -0.4148 -0.4759  0.4361
  184SLPC  H15C21091   4.740   4.012  10.727  1.4640  1.6027  0.4980
  184SLPC   C1221092   4.891   3.758  10.718 -0.8241 -0.5157  0.2633
  184SLPC  H12A21093   4.948   3.771  10.809 -1.5532 -1.4705  0.8793
  184SLPC  H12B21094   4.927   3.834  10.651  0.1107  0.6005  2.0163
  184SLPC   C1121095   4.907   3.618  10.665 -0.2056 -0.1130  0.0006
  184SLPC  H11A21096   5.009   3.605  10.623 -0.4906 -1.2741 -0.3394
  184SLPC  H11B21097   4.840   3.618  10.576 -0.5602  2.4055  0.2302
  184SLPC     P21098   4.840   3.367  10.686  0.6570 -0.2042 -0.2800
  184SLPC   O1321099   4.940   3.275  10.742 -0.2399  0.5676  0.4778
  184SLPC   O1421100   4.698   3.339  10.715 -0.2596 -0.2826 -0.2028
  184SLPC   O1221101   4.874   3.510  10.750 -0.1258 -0.1387 -0.2923
  184SLPC   O1121102   4.861   3.379  10.529 -0.6508  0.0320 -0.0382
  184SLPC    C121103   4.751   3.407  10.437  0.0522  0.0013 -0.3183
  184SLPC    HA21104   4.673   3.328  10.442  0.8664 -0.8850 -1.1242
  184SLPC    HB21105   4.707   3.503  10.470 -1.1709 -1.1696  1.5446
  184SLPC    C221106   4.795   3.414  10.283 -0.2240  0.2326 -0.1291
  184SLPC    HS21107   4.812   3.306  10.262  0.2804  0.2183  0.3396
  184SLPC   O2121108   4.913   3.496  10.266  0.3870  0.3007 -0.5352
  184SLPC   C2121109   5.032   3.442  10.270 -0.1691 -0.2441 -0.7309
  184SLPC   O2221110   5.059   3.330  10.307 -0.5696  0.1939  0.2823
  184SLPC   C2221111   5.135   3.547  10.214 -0.1995 -0.2150  0.2137
  184SLPC   H2R21112   5.074   3.631  10.176  0.3718  0.6315  1.1421
  184SLPC   H2S21113   5.204   3.584  10.293  1.5801 -3.9295  0.5372
  184SLPC    C321114   4.683   3.482  10.204  0.4213  0.2117  0.0776
  184SLPC    HX21115   4.666   3.587  10.236 -1.0779 -0.9091  3.1900
  184SLPC    HY21116   4.596   3.421  10.237  0.9555 -1.4445 -1.4535
  184SLPC   O3121117   4.701   3.482  10.059 -0.2947 -0.0003  0.2070
  184SLPC   C3121118   4.662   3.371   9.993  0.0459  0.1444  0.1916
  184SLPC   O3221119   4.601   3.277  10.046 -0.7130  0.2353 -0.0444
  184SLPC   C3221120   4.715   3.377   9.851 -0.0891 -0.7266 -0.5722
  184SLPC   H2X21121   4.814   3.326   9.856  1.7034  2.4789 -2.2594
  184SLPC   H2Y21122   4.720   3.483   9.818  0.9764 -0.5268  0.1979
  184SLPC   C2321123   5.206   3.503  10.088 -0.0580  0.0668  0.7590
  184SLPC   H3R21124   5.256   3.406  10.112  1.2041  0.8559  1.3585
  184SLPC   H3S21125   5.274   3.585  10.057 -0.2083  0.1204  0.5685
  184SLPC   C2421126   5.106   3.468   9.966  0.0247  0.2562  0.2351
  184SLPC   H4R21127   5.032   3.550   9.962 -1.4701 -1.0385  0.8352
  184SLPC   H4S21128   5.050   3.378  10.000  0.4413  0.3288  1.1446
  184SLPC   C2521129   5.172   3.448   9.829  0.3135  0.3205 -0.2969
  184SLPC   H5R21130   5.252   3.373   9.843 -0.3292 -0.1780  0.7909
  184SLPC   H5S21131   5.209   3.545   9.788 -0.1311  0.4724 -0.3448
  184SLPC   C2621132   5.076   3.397   9.717  0.2711 -0.3663  0.0149
  184SLPC   H6R21133   4.986   3.462   9.719  0.2124 -0.4842  3.5258
  184SLPC   H6S21134   5.057   3.292   9.749  0.5205 -0.6414 -0.7063
  184SLPC   C2721135   5.137   3.399   9.578  0.1418  0.2875 -0.4579
  184SLPC   H7R21136   5.220   3.325   9.579  1.4191  1.6741  1.5312
  184SLPC   H7S21137   5.189   3.495   9.556  2.0056 -0.3963  0.8371
  184SLPC   C2821138   5.026   3.336   9.482 -0.0360 -0.5963  0.5508
  184SLPC   H8R21139   4.924   3.377   9.499  0.1255 -0.5050  1.3031
  184SLPC   H8S21140   5.029   3.230   9.517  2.4143 -0.4008  1.0339
  184SLPC   C2921141   5.065   3.354   9.345  1.0924 -0.4506 -0.3392
  184SLPC   H9R21142   5.101   3.457   9.329 -0.8128  0.2212 -0.4201
  184SLPC  C21021143   5.073   3.253   9.250  0.5925 -0.4957  0.1079
  184SLPC  H10R21144   5.104   3.277   9.148 -0.3612  0.6127  0.0586
  184SLPC  C21121145   5.042   3.108   9.272 -0.6408  0.4744  0.0936
  184SLPC  H11R21146   4.989   3.057   9.189 -1.7743  1.2894  0.3021
  184SLPC  H11S21147   4.988   3.087   9.366  0.5207  0.4571  0.7673
  184SLPC  C21221148   5.184   3.056   9.296  0.4664 -0.0351 -0.5826
  184SLPC  H12R21149   5.231   3.084   9.391 -0.2142 -0.3437 -0.1449
  184SLPC  C21321150   5.258   2.988   9.207 -0.9244  0.7383  0.1272
  184SLPC  H13R21151   5.364   2.968   9.231 -1.5822  0.0794  2.7269
  184SLPC  C21421152   5.221   2.949   9.066  0.9246 -0.4675 -0.3576
  184SLPC  H14R21153   5.120   2.988   9.038  0.4192 -1.0260  0.6711
  184SLPC  H14S21154   5.203   2.840   9.059  0.3590 -0.2751 -2.3217
  184SLPC  C21521155   5.330   2.979   8.957  0.3972 -0.3469  0.1504
  184SLPC  H15R21156   5.356   3.087   8.961 -0.5807 -0.0737 -0.8648
  184SLPC  H15S21157   5.292   2.965   8.854  0.2960 -0.0493  0.1450
  184SLPC  C21621158   5.464   2.904   8.981  0.4724 -0.2470 -0.3206
  184SLPC  H16R21159   5.525   2.946   9.063 -0.5338 -0.5156  0.5724
  184SLPC  H16S21160   5.513   2.912   8.881 -0.5315  1.9123 -0.6816
  184SLPC  C21721161   5.454   2.757   9.022  0.4037 -0.2126 -0.4135
  184SLPC  H17R21162   5.363   2.718   8.972  0.3581 -0.0346 -0.4692
  184SLPC  H17S21163   5.420   2.749   9.127 -2.4446 -0.2092 -1.3001
  184SLPC  C21821164   5.568   2.661   8.990 -0.0736 -0.2359  0.3420
  184SLPC  H18R21165   5.671   2.680   9.027  0.2882  0.3075 -0.9299
  184SLPC  H18S21166   5.571   2.634   8.883 -0.5430  0.1767  0.2268
  184SLPC  H18T21167   5.543   2.566   9.043  5.7650 -2.1977 -0.0280
  184SLPC   C3321168   4.615   3.306   9.753 -0.0314 -0.4487  0.0147
  184SLPC   H3X21169   4.529   3.374   9.741  0.7119  0.4078 -0.5439
  184SLPC   H3Y21170   4.583   3.208   9.795  1.7761 -0.2998  1.8071
  184SLPC   C3421171   4.697   3.276   9.624 -0.5171  0.1052 -0.2525
  184SLPC   H4X21172   4.791   3.217   9.636 -0.3949  0.7807  2.5978
  184SLPC   H4Y21173   4.719   3.379   9.590 -2.1658  0.4014 -0.4534
  184SLPC   C3521174   4.602   3.226   9.511 -0.1215  0.7074 -0.1822
  184SLPC   H5X21175   4.523   3.298   9.482  0.9573  1.8609 -0.3322
  184SLPC   H5Y21176   4.549   3.138   9.552 -0.1547  0.4378 -0.8037
  184SLPC   C3621177   4.680   3.173   9.387 -0.0074  0.6964 -0.4772
  184SLPC   H6X21178   4.618   3.096   9.337  2.3130 -0.4588 -1.6580
  184SLPC   H6Y21179   4.779   3.133   9.420  0.0909 -0.4694 -2.1171
  184SLPC   C3721180   4.724   3.284   9.289  0.2564  0.2945  0.0685
  184SLPC   H7X21181   4.795   3.242   9.215  1.5752  2.3728  0.1319
  184SLPC   H7Y21182   4.769   3.373   9.337 -0.1683  1.2233 -1.2337
  184SLPC   C3821183   4.599   3.330   9.203  0.6264  0.3496  0.3867
  184SLPC   H8X21184   4.529   3.375   9.276 -0.1421 -1.6432  0.9127
  184SLPC   H8Y21185   4.561   3.235   9.160 -0.5004  0.8032  0.3871
  184SLPC   C3921186   4.633   3.436   9.095 -0.6138  0.2478 -0.7513
  184SLPC   H9X21187   4.695   3.509   9.150  0.5634 -1.5898  0.4371
  184SLPC   H9Y21188   4.543   3.493   9.065 -1.6423  0.2141  2.1237
  184SLPC  C31021189   4.726   3.382   8.981 -0.0972 -0.3649 -0.1049
  184SLPC  H10X21190   4.667   3.391   8.887  1.0105 -1.6625 -0.9388
  184SLPC  H10Y21191   4.743   3.272   8.989  1.0942 -0.2192 -0.5785
  184SLPC  C31121192   4.862   3.454   8.958  0.4343  0.3532 -0.5926
  184SLPC  H11X21193   4.920   3.487   9.047 -0.4303 -0.8965  0.4354
  184SLPC  H11Y21194   4.833   3.546   8.903 -3.1543 -0.0983  0.4550
  184SLPC  C31221195   4.953   3.382   8.867 -0.1551  0.4787 -0.0957
  184SLPC  H12X21196   4.909   3.361   8.767 -0.0647 -0.2879  0.0203
  184SLPC  H12Y21197   4.975   3.276   8.893 -3.2428 -0.1652  0.1434
  184SLPC  C31321198   5.101   3.437   8.854  0.1111  0.1995 -0.4110
  184SLPC  H13X21199   5.151   3.468   8.948 -4.1079  1.8324  1.4159
  184SLPC  H13Y21200   5.092   3.525   8.786 -3.0761 -0.7247 -1.3115
  184SLPC  C31421201   5.185   3.317   8.794 -0.1278  0.0595 -0.3662
  184SLPC  H14X21202   5.131   3.263   8.713 -0.5286 -1.1029  0.6725
  184SLPC  H14Y21203   5.180   3.237   8.870  1.1414  1.8759  1.7159
  184SLPC  C31521204   5.323   3.364   8.734 -0.1164  0.3121  0.3327
  184SLPC  H15X21205   5.378   3.423   8.811  0.6619  0.7933 -0.5865
  184SLPC  H15Y21206   5.301   3.434   8.651  2.0628  1.0210  0.3084
  184SLPC  C31621207   5.416   3.255   8.686 -0.2715  0.4502  0.2645
  184SLPC  H16X21208   5.443   3.185   8.768 -2.3761  0.2433  0.8094
  184SLPC  H16Y21209   5.516   3.294   8.661 -0.4195 -0.1438 -1.3225
  184SLPC  C31721210   5.370   3.183   8.559 -0.7205 -0.0062  0.6156
  184SLPC  H17X21211   5.345   3.255   8.478  2.6675 -1.3581 -1.7526
  184SLPC  H17Y21212   5.272   3.132   8.575  0.5256 -2.8750 -0.6055
  184SLPC  C31821213   5.476   3.094   8.490  0.1302 -0.3957  0.1426
  184SLPC  H18X21214   5.571   3.152   8.485 -0.1753  0.0956 -0.0430
  184SLPC  H18Y21215   5.431   3.063   8.394 -0.4940 -0.5735  0.4921
  184SLPC  H18Z21216   5.489   3.007   8.558 -0.1574 -0.8072 -0.3324
  185SLPC     N21217   2.016   0.214   6.516  0.2064 -0.6108 -0.8898
  185SLPC   C1321218   2.032   0.356   6.462 -0.2691  0.0488  0.2053
  185SLPC  H13A21219   1.948   0.390   6.403  1.3436  3.5745 -0.2449
  185SLPC  H13B21220   2.054   0.438   6.530 -1.1413  0.2601  0.2470
  185SLPC  H13C21221   2.112   0.357   6.390 -0.9312 -0.6618 -0.5466
  185SLPC   C1421222   1.974   0.107   6.420  0.1881  0.5865 -0.5688
  185SLPC  H14A21223   1.967   0.010   6.466  1.7707  0.0945 -1.3240
  185SLPC  H14B21224   1.879   0.127   6.373 -0.0054 -1.7351 -1.2395
  185SLPC  H14C21225   2.041   0.108   6.334  1.8669  1.5743  0.7176
  185SLPC   C1521226   1.918   0.216   6.627  0.6617  0.1590 -0.3755
  185SLPC  H15A21227   1.949   0.279   6.709 -0.4632 -1.2494  1.1625
  185SLPC  H15B21228   1.822   0.254   6.594  0.1506  1.7437  2.7251
  185SLPC  H15C21229   1.901   0.119   6.672  0.6579  1.3372  2.2332
  185SLPC   C1221230   2.150   0.167   6.575  0.3775 -0.3918  1.4454
  185SLPC  H12A21231   2.139   0.071   6.623  2.8217 -2.6278 -2.2089
  185SLPC  H12B21232   2.190   0.235   6.648 -1.1528  0.4294  1.5247
  185SLPC   C1121233   2.270   0.152   6.478  0.0401 -0.2336 -0.7339
  185SLPC  H11A21234   2.244   0.076   6.401  0.8175  0.0138 -1.2554
  185SLPC  H11B21235   2.361   0.115   6.530 -1.6354 -0.3600  2.2204
  185SLPC     P21236   2.406   0.364   6.430  0.2767 -0.0984 -0.7994
  185SLPC   O1321237   2.530   0.290   6.403 -0.8590  0.1624 -0.1503
  185SLPC   O1421238   2.382   0.493   6.363  0.4544  0.2144  0.6525
  185SLPC   O1221239   2.289   0.270   6.403  0.2372 -0.1253  0.7014
  185SLPC   O1121240   2.396   0.380   6.589 -0.0155  0.2981  0.2840
  185SLPC    C121241   2.336   0.489   6.656 -0.2182  0.0262 -0.4012
  185SLPC    HA21242   2.335   0.582   6.596 -1.4042 -0.6017 -1.3784
  185SLPC    HB21243   2.231   0.453   6.666  0.0462 -0.6603 -0.0375
  185SLPC    C221244   2.397   0.524   6.799  1.0122  0.6813  0.0427
  185SLPC    HS21245   2.495   0.574   6.782  1.1235  0.2485 -0.5952
  185SLPC   O2121246   2.407   0.410   6.889 -0.4346 -0.6244 -0.4398
  185SLPC   C2121247   2.506   0.426   6.989  0.4941  0.2399  0.7174
  185SLPC   O2221248   2.585   0.518   6.995 -0.0544  0.0325 -0.5944
  185SLPC   C2221249   2.504   0.303   7.087  0.3999  0.2254  0.6003
  185SLPC   H2R21250   2.400   0.310   7.126  0.3086  1.5158  0.1344
  185SLPC   H2S21251   2.508   0.212   7.023 -2.1416  1.3053 -1.1548
  185SLPC    C321252   2.296   0.636   6.846  0.2766 -0.7620 -0.0831
  185SLPC    HX21253   2.206   0.582   6.883 -0.1938  0.6277  0.8778
  185SLPC    HY21254   2.277   0.705   6.761  2.7586 -1.4429 -1.2027
  185SLPC   O3121255   2.332   0.703   6.965 -0.1455  0.1534 -0.1172
  185SLPC   C3121256   2.433   0.793   6.948  0.5242 -0.3604 -0.5130
  185SLPC   O3221257   2.478   0.827   6.842  0.2578  0.2408 -0.7468
  185SLPC   C3221258   2.472   0.871   7.077  0.0751  0.8692  0.2373
  185SLPC   H2X21259   2.420   0.969   7.078 -1.3402  0.1507 -0.8311
  185SLPC   H2Y21260   2.582   0.872   7.063  0.4417 -0.3911  2.7949
  185SLPC   C2321261   2.606   0.315   7.203  0.3542 -0.1980  0.6219
  185SLPC   H3R21262   2.595   0.250   7.293  1.2273  0.1051  0.9523
  185SLPC   H3S21263   2.607   0.422   7.235 -0.0026 -0.5782  1.9323
  185SLPC   C2421264   2.748   0.292   7.152  0.4299 -0.0361 -0.0929
  185SLPC   H4R21265   2.774   0.337   7.053  0.1210  0.2492 -0.0452
  185SLPC   H4S21266   2.756   0.182   7.141 -1.6626 -0.4393  2.1768
  185SLPC   C2521267   2.863   0.335   7.245  0.0394 -0.5259 -0.3904
  185SLPC   H5R21268   2.856   0.445   7.264 -0.5408 -0.4089 -1.2967
  185SLPC   H5S21269   2.965   0.310   7.209  0.5672 -0.9170  1.3249
  185SLPC   C2621270   2.854   0.279   7.400 -0.1237 -0.3073 -0.7640
  185SLPC   H6R21271   2.863   0.169   7.388  1.0906 -0.4021  0.9018
  185SLPC   H6S21272   2.753   0.308   7.434  0.0666  1.6144 -1.7965
  185SLPC   C2721273   2.972   0.332   7.484  0.7581  0.3497 -0.2083
  185SLPC   H7R21274   2.945   0.436   7.512  0.5244 -0.0025  0.9024
  185SLPC   H7S21275   3.055   0.339   7.410 -1.4714 -2.4999 -3.0899
  185SLPC   C2821276   3.008   0.259   7.614 -0.4497  0.4181  0.3298
  185SLPC   H8R21277   3.100   0.299   7.660 -0.6145 -0.1843  1.1907
  185SLPC   H8S21278   3.037   0.158   7.578 -0.5360  0.2681  0.6786
  185SLPC   C2921279   2.901   0.257   7.712  0.6244  0.0877 -0.1778
  185SLPC   H9R21280   2.805   0.213   7.680  1.6809 -3.2290  1.0275
  185SLPC  C21021281   2.908   0.304   7.836 -0.2276  0.3325  0.1326
  185SLPC  H10R21282   2.819   0.297   7.900 -0.1171  3.9497  0.8215
  185SLPC  C21121283   3.029   0.362   7.908  0.1067  0.0803 -0.4039
  185SLPC  H11R21284   3.051   0.467   7.879 -0.6236 -0.0033 -1.2636
  185SLPC  H11S21285   3.115   0.302   7.874 -0.7797 -0.4731 -1.7153
  185SLPC  C21221286   3.030   0.369   8.056  0.6882 -0.3426 -0.6020
  185SLPC  H12R21287   3.050   0.471   8.093 -3.0392  0.5219 -0.7978
  185SLPC  C21321288   3.006   0.265   8.139  0.3552 -0.5721 -0.3764
  185SLPC  H13R21289   2.981   0.281   8.245 -0.0336  2.2919 -0.8603
  185SLPC  C21421290   2.983   0.112   8.113  0.1413  0.1191  0.2655
  185SLPC  H14R21291   3.084   0.066   8.114  0.4549  0.7593  2.6405
  185SLPC  H14S21292   2.954   0.102   8.007  0.0365 -0.3325  0.3332
  185SLPC  C21521293   2.875   0.038   8.191  0.1672 -0.1053 -0.3854
  185SLPC  H15R21294   2.784   0.102   8.187  1.1603  1.3489 -0.1494
  185SLPC  H15S21295   2.900   0.033   8.299 -2.4469  0.0807  0.2523
  185SLPC  C21621296   2.839  -0.105   8.150  0.1277 -0.1271  0.5195
  185SLPC  H16R21297   2.928  -0.169   8.131  0.2243  0.3858 -0.8314
  185SLPC  H16S21298   2.774  -0.098   8.060  0.5671  1.4469  0.2940
  185SLPC  C21721299   2.763  -0.185   8.262  0.3005 -0.3048 -0.1390
  185SLPC  H17R21300   2.719  -0.272   8.209 -2.4289  2.9731 -3.4945
  185SLPC  H17S21301   2.678  -0.129   8.306 -0.1881 -1.2585  0.1441
  185SLPC  C21821302   2.842  -0.257   8.371 -0.1194 -0.1863 -0.4041
  185SLPC  H18R21303   2.930  -0.312   8.332  0.7960  1.5490 -0.8584
  185SLPC  H18S21304   2.786  -0.345   8.407 -0.5376  0.8740  1.5927
  185SLPC  H18T21305   2.870  -0.195   8.459  0.8900  0.0529 -0.8899
  185SLPC   C3321306   2.439   0.792   7.204  0.1021  0.2618 -0.0484
  185SLPC   H3X21307   2.474   0.690   7.178 -0.3170 -0.1362  0.9023
  185SLPC   H3Y21308   2.332   0.790   7.233 -0.1023  1.5822 -0.6845
  185SLPC   C3421309   2.518   0.825   7.336  0.0749  0.2569  0.2046
  185SLPC   H4X21310   2.470   0.907   7.394  0.8429 -0.8503  2.4395
  185SLPC   H4Y21311   2.617   0.866   7.307 -1.4186  2.4269 -2.1012
  185SLPC   C3521312   2.546   0.702   7.419 -0.2342 -0.3862 -0.2975
  185SLPC   H5X21313   2.614   0.735   7.501 -1.3429  1.4713 -0.1116
  185SLPC   H5Y21314   2.596   0.622   7.359  0.2762 -0.1498 -0.1945
  185SLPC   C3621315   2.427   0.633   7.466 -0.8358  0.3962 -0.1590
  185SLPC   H6X21316   2.354   0.610   7.385 -3.2851 -2.3578  2.7007
  185SLPC   H6Y21317   2.382   0.707   7.537  0.5326 -0.0164  1.1487
  185SLPC   C3721318   2.468   0.503   7.536  0.2708 -0.7465  0.7690
  185SLPC   H7X21319   2.508   0.444   7.451  0.3248  0.4374 -0.0434
  185SLPC   H7Y21320   2.375   0.452   7.571 -1.0012 -1.0167 -2.7698
  185SLPC   C3821321   2.572   0.514   7.644 -0.4232 -0.2894  0.0856
  185SLPC   H8X21322   2.671   0.509   7.595 -0.4299 -0.3716  0.0808
  185SLPC   H8Y21323   2.566   0.411   7.686 -1.8331 -0.9760 -1.7134
  185SLPC   C3921324   2.553   0.620   7.748 -1.2334 -0.4145 -0.4425
  185SLPC   H9X21325   2.474   0.598   7.824 -0.1192  1.1064  1.2051
  185SLPC   H9Y21326   2.518   0.722   7.724  0.1300  0.6957  2.0253
  185SLPC  C31021327   2.682   0.642   7.831 -0.2622 -0.5161 -0.5249
  185SLPC  H10X21328   2.757   0.695   7.768  1.2524 -1.1992  0.6469
  185SLPC  H10Y21329   2.734   0.544   7.845  0.2116 -0.2123 -0.1447
  185SLPC  C31121330   2.655   0.719   7.957 -0.1969 -0.3120  0.0479
  185SLPC  H11X21331   2.577   0.683   8.027  0.9997  0.7097  1.9641
  185SLPC  H11Y21332   2.609   0.818   7.939  2.0835  0.5889 -0.9322
  185SLPC  C31221333   2.781   0.730   8.047 -0.7522 -0.0894  0.1585
  185SLPC  H12X21334   2.833   0.821   8.011 -1.8404 -0.2193 -1.8207
  185SLPC  H12Y21335   2.849   0.642   8.044  1.3729  1.5420 -0.9401
  185SLPC  C31321336   2.751   0.774   8.193 -0.2266 -0.3242  0.6433
  185SLPC  H13X21337   2.712   0.687   8.251  0.6007 -1.0880  0.0747
  185SLPC  H13Y21338   2.662   0.840   8.181 -1.3698 -2.1199 -1.0209
  185SLPC  C31421339   2.866   0.845   8.262 -0.4166 -0.0357  0.4689
  185SLPC  H14X21340   2.878   0.936   8.199  0.5904 -2.0693 -2.3982
  185SLPC  H14Y21341   2.955   0.779   8.257 -2.2818 -2.5961 -0.1579
  185SLPC  C31521342   2.832   0.880   8.406  0.3995 -0.0541 -0.0560
  185SLPC  H15X21343   2.831   0.788   8.469  1.2097 -0.0705 -0.0639
  185SLPC  H15Y21344   2.732   0.929   8.409  0.3571 -0.1857  0.8488
  185SLPC  C31621345   2.922   0.998   8.458  0.7378  0.6646  0.0822
  185SLPC  H16X21346   2.907   1.081   8.385 -0.0170 -1.0866 -1.8036
  185SLPC  H16Y21347   3.026   0.960   8.447  0.4078 -0.3982  0.5642
  185SLPC  C31721348   2.901   1.038   8.599 -0.1609  0.7174 -0.1110
  185SLPC  H17X21349   2.952   1.134   8.622  0.1549  0.6798 -0.6515
  185SLPC  H17Y21350   2.943   0.970   8.676  1.4513 -1.8947 -3.1719
  185SLPC  C31821351   2.759   1.061   8.642  0.3025  0.5150  0.3595
  185SLPC  H18X21352   2.700   0.967   8.631 -0.2947  0.9527 -0.2108
  185SLPC  H18Y21353   2.729   1.148   8.580  2.7067  0.8836 -0.3415
  185SLPC  H18Z21354   2.756   1.090   8.749 -2.3294  0.0170  0.4504
  186SLPC     N21355   3.856   4.394   6.230  0.2430  0.2210  0.0659
  186SLPC   C1321356   3.834   4.339   6.087 -0.1744 -0.6153  0.2360
  186SLPC  H13A21357   3.863   4.236   6.071 -1.9882 -1.3360  1.3596
  186SLPC  H13B21358   3.727   4.352   6.076 -0.1270 -0.4612 -0.0508
  186SLPC  H13C21359   3.870   4.413   6.017  0.3670  2.4375  3.6389
  186SLPC   C1421360   3.811   4.535   6.240  0.0861  0.0999  0.4005
  186SLPC  H14A21361   3.705   4.546   6.226  0.0725  1.7397  1.6404
  186SLPC  H14B21362   3.834   4.569   6.340  0.6994  1.4161 -0.1678
  186SLPC  H14C21363   3.860   4.600   6.168 -0.8761  1.1283  0.6665
  186SLPC   C1521364   3.996   4.399   6.272 -0.5435  0.5255  0.6158
  186SLPC  H15A21365   4.050   4.309   6.249 -1.4645  0.0095  0.4574
  186SLPC  H15B21366   4.042   4.476   6.212 -1.5680  1.1537  0.6163
  186SLPC  H15C21367   3.997   4.420   6.378  0.8538  0.5442  0.6083
  186SLPC   C1221368   3.774   4.311   6.321  0.1468  0.7050 -0.3760
  186SLPC  H12A21369   3.683   4.289   6.267 -1.0888  2.7974  0.7832
  186SLPC  H12B21370   3.744   4.366   6.408 -0.2732 -0.0699 -0.0243
  186SLPC   C1121371   3.829   4.174   6.370 -0.1472 -0.9679  0.2372
  186SLPC  H11A21372   3.791   4.145   6.470  0.0178  1.0360  0.9014
  186SLPC  H11B21373   3.937   4.180   6.394 -0.3391  0.3757  0.8160
  186SLPC     P21374   3.728   3.943   6.314  0.2861 -0.1804 -0.2904
  186SLPC   O1321375   3.587   3.980   6.324 -0.3741 -1.0590  1.0930
  186SLPC   O1421376   3.769   3.825   6.241 -0.3116  0.1275  0.3214
  186SLPC   O1221377   3.804   4.070   6.272 -0.0520 -0.2902 -0.2733
  186SLPC   O1121378   3.780   3.922   6.463  0.0903  0.1170  0.6867
  186SLPC    C121379   3.919   3.868   6.477 -0.3354  0.1753 -0.3819
  186SLPC    HA21380   3.951   3.784   6.412  3.1795  2.6380 -2.0238
  186SLPC    HB21381   3.998   3.943   6.454  2.2166 -2.2585  0.2477
  186SLPC    C221382   3.945   3.840   6.625 -0.1420  0.6236  0.0245
  186SLPC    HS21383   4.049   3.806   6.645  0.3000  0.5370 -2.3464
  186SLPC   O2121384   3.859   3.737   6.676  0.1884  0.1605  0.1184
  186SLPC   C2121385   3.901   3.617   6.635 -0.1556  0.1826  0.7299
  186SLPC   O2221386   4.005   3.604   6.571 -0.0799  0.4577  0.5577
  186SLPC   C2221387   3.801   3.509   6.673 -0.3433  1.1281  0.2799
  186SLPC   H2R21388   3.797   3.504   6.784  0.6431  0.8509  0.3142
  186SLPC   H2S21389   3.703   3.531   6.626  0.0694 -0.5134 -1.4505
  186SLPC    C321390   3.939   3.969   6.716 -0.1765 -0.2292 -0.6616
  186SLPC    HX21391   3.844   4.022   6.692 -0.2054 -0.3125 -0.7334
  186SLPC    HY21392   4.025   4.032   6.686 -0.0421 -0.9634 -1.8534
  186SLPC   O3121393   3.950   3.939   6.861  0.2103 -0.4407 -0.4448
  186SLPC   C3121394   3.843   3.927   6.927  0.0349 -0.1010 -0.7824
  186SLPC   O3221395   3.732   3.926   6.884  0.3919  0.0911  0.4748
  186SLPC   C3221396   3.871   3.890   7.073  0.0407 -0.5800 -0.3449
  186SLPC   H2X21397   3.974   3.925   7.099  0.0661 -1.6654  1.0316
  186SLPC   H2Y21398   3.883   3.780   7.079 -1.4147 -0.8430 -1.8707
  186SLPC   C2321399   3.841   3.369   6.618 -0.0033 -0.0727 -0.1368
  186SLPC   H3R21400   3.912   3.320   6.688  0.0039 -0.9950 -0.7910
  186SLPC   H3S21401   3.874   3.397   6.515 -0.2424  1.1990  0.1196
  186SLPC   C2421402   3.716   3.276   6.597  0.4900 -0.0225 -0.3042
  186SLPC   H4R21403   3.743   3.212   6.510  1.6140 -0.9968  0.7464
  186SLPC   H4S21404   3.632   3.341   6.563 -0.4473 -0.6449  0.7890
  186SLPC   C2521405   3.675   3.188   6.719 -0.0037  0.3697 -1.2187
  186SLPC   H5R21406   3.569   3.157   6.710 -0.2798  1.3221 -1.1934
  186SLPC   H5S21407   3.659   3.242   6.814 -0.0682  1.1287 -1.6629
  186SLPC   C2621408   3.767   3.064   6.734  0.0093 -0.3536  0.3817
  186SLPC   H6R21409   3.874   3.078   6.760 -0.1134  2.5776 -0.4792
  186SLPC   H6S21410   3.760   3.009   6.638 -2.2919 -1.5383  1.1977
  186SLPC   C2721411   3.707   2.964   6.838  0.3249 -0.3248  0.2578
  186SLPC   H7R21412   3.777   2.878   6.837  0.6804 -0.0390  0.2950
  186SLPC   H7S21413   3.607   2.920   6.818  0.6936 -3.2889  4.3937
  186SLPC   C2821414   3.695   3.032   6.978 -0.4084  0.5129  0.3573
  186SLPC   H8R21415   3.614   3.108   6.977 -1.7692 -0.8917 -2.1289
  186SLPC   H8S21416   3.790   3.088   6.991 -0.4926  0.7585 -0.0755
  186SLPC   C2921417   3.683   2.927   7.086 -0.0862  0.5132 -0.1471
  186SLPC   H9R21418   3.671   2.822   7.053 -2.6898  0.5915  0.4996
  186SLPC  C21021419   3.685   2.948   7.216  0.2482  0.2598 -0.1397
  186SLPC  H10R21420   3.651   2.863   7.276  0.0020 -1.0804 -2.1302
  186SLPC  C21121421   3.701   3.079   7.290  0.2390  0.4131  0.2712
  186SLPC  H11R21422   3.694   3.172   7.229 -0.1518 -0.8485 -1.6810
  186SLPC  H11S21423   3.802   3.083   7.336  0.6130 -2.2397 -0.2653
  186SLPC  C21221424   3.602   3.100   7.400  0.0934  0.1538  0.6043
  186SLPC  H12R21425   3.499   3.118   7.364 -0.0871  0.0274  1.0604
  186SLPC  C21321426   3.628   3.087   7.531  0.3677  0.3868 -0.0208
  186SLPC  H13R21427   3.546   3.098   7.604  0.1052 -1.1462 -0.0686
  186SLPC  C21421428   3.763   3.072   7.595 -0.5482 -0.2509  0.9184
  186SLPC  H14R21429   3.851   3.074   7.527  0.1971  1.9157  1.9027
  186SLPC  H14S21430   3.779   2.968   7.630  0.2491 -1.0701 -1.8176
  186SLPC  C21521431   3.792   3.159   7.714 -0.5496  0.9539 -0.2965
  186SLPC  H15R21432   3.764   3.265   7.694 -0.3299  0.4426 -3.7296
  186SLPC  H15S21433   3.900   3.164   7.738 -0.6090  0.7382  0.0177
  186SLPC  C21621434   3.712   3.124   7.849  0.8362 -0.0059  0.3118
  186SLPC  H16R21435   3.726   3.014   7.856 -0.5548 -0.3598 -2.0788
  186SLPC  H16S21436   3.606   3.146   7.827  1.5224  0.2064 -3.0480
  186SLPC  C21721437   3.746   3.211   7.967 -0.1602 -0.0817  0.1105
  186SLPC  H17R21438   3.704   3.310   7.940  0.1610 -0.3527 -1.4279
  186SLPC  H17S21439   3.855   3.221   7.984 -0.5176  0.7015  2.1827
  186SLPC  C21821440   3.688   3.166   8.102  0.0520  0.5446  0.1903
  186SLPC  H18R21441   3.584   3.203   8.113  0.0262  0.3095  0.7592
  186SLPC  H18S21442   3.740   3.218   8.185  0.8640 -1.0595  0.7080
  186SLPC  H18T21443   3.705   3.056   8.109  0.0129  0.5577  0.4948
  186SLPC   C3321444   3.768   3.944   7.171 -0.2132  0.1639 -0.2317
  186SLPC   H3X21445   3.679   3.879   7.153  0.2795 -0.1745 -1.5304
  186SLPC   H3Y21446   3.743   4.048   7.140  0.3002  0.0523 -1.0363
  186SLPC   C3421447   3.810   3.927   7.314 -0.0297  0.5800 -0.0323
  186SLPC   H4X21448   3.901   3.989   7.326 -0.9021  1.8082  0.3587
  186SLPC   H4Y21449   3.839   3.822   7.336 -1.5865  0.2551  0.5367
  186SLPC   C3521450   3.714   3.970   7.421  0.1779 -0.4133 -0.0490
  186SLPC   H5X21451   3.619   3.920   7.392  0.2333  0.3289 -1.5803
  186SLPC   H5Y21452   3.694   4.079   7.406  2.1485  0.1672  1.3671
  186SLPC   C3621453   3.760   3.946   7.565  0.1691  0.5754 -0.0576
  186SLPC   H6X21454   3.855   3.999   7.587  0.3855  0.9203 -1.7161
  186SLPC   H6Y21455   3.779   3.837   7.577  0.5920  0.6479 -0.0420
  186SLPC   C3721456   3.660   4.002   7.666  1.0488  0.3882  0.0201
  186SLPC   H7X21457   3.560   3.962   7.641  1.1282 -0.4953  1.0982
  186SLPC   H7Y21458   3.665   4.113   7.660  2.4942  0.3070 -0.5683
  186SLPC   C3821459   3.701   3.961   7.808  0.0846 -0.2507 -0.4578
  186SLPC   H8X21460   3.804   3.999   7.822  0.9748 -2.5712 -0.5551
  186SLPC   H8Y21461   3.711   3.851   7.821  1.9159  0.1387  1.6475
  186SLPC   C3921462   3.597   4.009   7.907 -0.3233 -0.0342  0.9622
  186SLPC   H9X21463   3.497   3.972   7.876  1.1448 -2.7555 -0.7214
  186SLPC   H9Y21464   3.592   4.120   7.912 -1.0565 -0.0602  0.9092
  186SLPC  C31021465   3.613   3.939   8.038  0.5942  0.0737 -0.0960
  186SLPC  H10X21466   3.709   3.940   8.094  0.0696  3.5422  0.9042
  186SLPC  H10Y21467   3.600   3.829   8.030 -1.0807  0.0715  2.1595
  186SLPC  C31121468   3.499   3.981   8.138 -0.3734 -0.1437 -0.0595
  186SLPC  H11X21469   3.400   3.943   8.106 -1.0299 -1.4082  3.2721
  186SLPC  H11Y21470   3.506   4.091   8.150  2.9752 -0.5067  2.0516
  186SLPC  C31221471   3.530   3.919   8.282 -0.5887 -0.1301 -0.1662
  186SLPC  H12X21472   3.638   3.929   8.304 -0.5226 -1.0862 -0.0445
  186SLPC  H12Y21473   3.500   3.812   8.275 -2.1930  0.2742  0.2023
  186SLPC  C31321474   3.453   3.998   8.391 -0.1015 -0.0145 -0.4288
  186SLPC  H13X21475   3.349   3.979   8.356 -0.3901 -0.0313  0.4400
  186SLPC  H13Y21476   3.470   4.104   8.361 -2.4887  0.3537 -0.6057
  186SLPC  C31421477   3.485   3.961   8.535 -0.0880 -0.3199  0.1310
  186SLPC  H14X21478   3.467   3.851   8.539  1.1751 -0.6444 -2.1127
  186SLPC  H14Y21479   3.407   4.009   8.598  0.6414  0.3366  0.5404
  186SLPC  C31521480   3.624   4.013   8.580  0.4978 -0.1771 -0.5164
  186SLPC  H15X21481   3.642   4.120   8.554  0.4612  0.2314  1.0695
  186SLPC  H15Y21482   3.705   3.962   8.524 -0.2225 -0.6092 -1.1677
  186SLPC  C31621483   3.637   4.000   8.735 -0.2448  0.0992  0.0899
  186SLPC  H16X21484   3.743   3.993   8.765 -0.2193 -1.9924 -0.4618
  186SLPC  H16Y21485   3.583   3.908   8.765 -0.2753  0.3179  0.7165
  186SLPC  C31721486   3.586   4.123   8.812 -0.5963 -0.1170  0.2404
  186SLPC  H17X21487   3.479   4.150   8.800 -0.4899  0.6689  0.9799
  186SLPC  H17Y21488   3.643   4.215   8.788 -1.4533  0.5569  0.7330
  186SLPC  C31821489   3.616   4.107   8.962  0.6080  0.2891 -0.0882
  186SLPC  H18X21490   3.544   4.163   9.025  0.3496 -2.7617  2.4300
  186SLPC  H18Y21491   3.721   4.126   8.991  0.5154  1.5335 -0.5276
  186SLPC  H18Z21492   3.596   4.003   8.996 -0.1009  0.6354  0.5712
  187SLPC     N21493   3.496   6.593   6.273  0.7650 -0.4846 -0.0748
  187SLPC   C1321494   3.354   6.612   6.224  0.0316  0.0321 -0.0722
  187SLPC  H13A21495   3.291   6.649   6.304 -0.0520  0.3500 -0.2905
  187SLPC  H13B21496   3.349   6.684   6.144  0.9477 -1.3115 -1.3708
  187SLPC  H13C21497   3.306   6.519   6.197 -0.9355  0.1622  1.1196
  187SLPC   C1421498   3.581   6.550   6.158  0.5715 -0.1431 -0.5312
  187SLPC  H14A21499   3.685   6.539   6.186  0.8219 -0.4973 -1.5559
  187SLPC  H14B21500   3.556   6.446   6.144 -1.2358  0.2395 -0.2375
  187SLPC  H14C21501   3.571   6.614   6.072  0.3090  0.1710 -0.2646
  187SLPC   C1521502   3.494   6.501   6.386 -0.3825  1.0344 -0.1891
  187SLPC  H15A21503   3.594   6.487   6.423 -1.2467  0.9117  2.1597
  187SLPC  H15B21504   3.432   6.524   6.471  0.9416 -1.1541  1.4137
  187SLPC  H15C21505   3.475   6.401   6.349 -3.1627  1.7674 -0.8746
  187SLPC   C1221506   3.548   6.727   6.321  0.4692 -0.5648  0.2464
  187SLPC  H12A21507   3.488   6.747   6.409 -2.5991 -0.1713 -1.8859
  187SLPC  H12B21508   3.523   6.808   6.254 -0.9555 -0.8753  0.4040
  187SLPC   C1121509   3.697   6.748   6.365 -0.2624  0.3079 -0.7923
  187SLPC  H11A21510   3.711   6.856   6.385  1.3648 -0.1364  0.5867
  187SLPC  H11B21511   3.754   6.715   6.275  0.2057 -0.9890 -0.0334
  187SLPC     P21512   3.879   6.684   6.547  0.2583  0.1683  0.3315
  187SLPC   O1321513   3.979   6.680   6.446  0.4783  0.4669 -0.2836
  187SLPC   O1421514   3.857   6.801   6.629  0.4264  0.4608 -0.1862
  187SLPC   O1221515   3.737   6.667   6.478 -0.3048 -0.5483  0.2602
  187SLPC   O1121516   3.883   6.561   6.641 -0.0508  0.6106  0.3498
  187SLPC    C121517   3.759   6.551   6.719  0.3252 -0.9779 -0.0705
  187SLPC    HA21518   3.706   6.646   6.742 -0.0544 -1.3687  0.6835
  187SLPC    HB21519   3.689   6.489   6.659 -0.7241  0.2849 -0.1703
  187SLPC    C221520   3.794   6.476   6.858 -0.2716  0.2669  0.2874
  187SLPC    HS21521   3.695   6.455   6.904  0.2554  0.5904  1.5866
  187SLPC   O2121522   3.865   6.562   6.947 -0.2535  0.4481  0.4320
  187SLPC   C2121523   3.807   6.651   7.013  0.0504  0.2578  0.1910
  187SLPC   O2221524   3.687   6.677   7.019 -0.2808 -0.1626 -0.3382
  187SLPC   C2221525   3.911   6.722   7.096  0.0199  1.4307  0.1948
  187SLPC   H2R21526   4.005   6.665   7.084 -0.9791 -0.0236 -0.8094
  187SLPC   H2S21527   3.929   6.821   7.048 -1.9286  1.0331 -1.4209
  187SLPC    C321528   3.872   6.349   6.833 -0.1711  0.6586 -0.4694
  187SLPC    HX21529   3.968   6.369   6.782  0.9915 -1.1608  0.9312
  187SLPC    HY21530   3.819   6.289   6.757 -2.2006  2.5096 -0.5568
  187SLPC   O3121531   3.881   6.267   6.958 -0.1796 -0.1707  0.3534
  187SLPC   C3121532   3.987   6.303   7.029 -0.0824 -0.2821  0.3207
  187SLPC   O3221533   4.085   6.358   6.990 -0.1969 -0.0257  0.0485
  187SLPC   C3221534   3.962   6.238   7.161 -0.8827 -0.6312 -0.1634
  187SLPC   H2X21535   3.996   6.134   7.142 -0.2032 -0.2505 -1.0643
  187SLPC   H2Y21536   3.853   6.228   7.180 -0.9625 -0.2606 -0.4228
  187SLPC   C2321537   3.864   6.730   7.238 -0.6881  0.5005  0.1829
  187SLPC   H3R21538   3.860   6.631   7.287 -0.2976  1.2462  1.7665
  187SLPC   H3S21539   3.766   6.782   7.237 -0.4266  0.9939 -1.3903
  187SLPC   C2421540   3.950   6.808   7.336  0.5032 -0.0361  0.0888
  187SLPC   H4R21541   3.957   6.916   7.311 -1.6337  0.5105  1.6230
  187SLPC   H4S21542   4.054   6.769   7.334  0.7194  0.5908 -2.0142
  187SLPC   C2521543   3.885   6.812   7.477  0.4356  0.8065  0.0961
  187SLPC   H5R21544   3.883   6.705   7.507 -0.3321  0.2498 -1.8533
  187SLPC   H5S21545   3.779   6.846   7.474  0.0602 -0.0705  2.5980
  187SLPC   C2621546   3.959   6.900   7.581 -0.3063  0.0625 -0.4522
  187SLPC   H6R21547   3.882   6.966   7.625  0.1496 -0.2842  0.8934
  187SLPC   H6S21548   4.037   6.957   7.526  0.5312  0.8184  1.4790
  187SLPC   C2721549   4.017   6.826   7.700  0.3791 -0.9631  1.0260
  187SLPC   H7R21550   4.077   6.896   7.762  0.5784 -1.7855  1.7750
  187SLPC   H7S21551   4.091   6.751   7.663  1.5290  0.4005  0.5209
  187SLPC   C2821552   3.907   6.768   7.797  0.6209 -0.4784  0.3970
  187SLPC   H8R21553   3.823   6.713   7.750 -1.5329  2.1238  1.0758
  187SLPC   H8S21554   3.860   6.861   7.836  2.1777  1.2693 -1.6970
  187SLPC   C2921555   3.965   6.682   7.904 -0.2819 -0.3784 -0.1686
  187SLPC   H9R21556   3.976   6.575   7.879  0.4120 -0.3151 -0.1680
  187SLPC  C21021557   3.976   6.725   8.033 -1.0025  0.4552  0.3882
  187SLPC  H10R21558   4.009   6.655   8.111  0.4998  0.9180  0.1880
  187SLPC  C21121559   3.947   6.863   8.075 -0.1109  0.5167 -0.5750
  187SLPC  H11R21560   3.972   6.930   7.990  0.3549 -0.3402 -1.1162
  187SLPC  H11S21561   4.009   6.888   8.164 -4.7182 -0.1519  3.0982
  187SLPC  C21221562   3.805   6.895   8.113 -0.1580 -0.6536  0.3151
  187SLPC  H12R21563   3.735   6.830   8.058  1.0071 -1.9897  0.3843
  187SLPC  C21321564   3.747   6.972   8.214  0.0647  0.1609  1.2322
  187SLPC  H13R21565   3.637   6.978   8.208  0.0650 -1.3573 -0.8447
  187SLPC  C21421566   3.823   7.059   8.315 -0.2519  0.0816 -0.2758
  187SLPC  H14R21567   3.758   7.146   8.338 -1.3099 -0.3699 -1.5082
  187SLPC  H14S21568   3.919   7.098   8.275 -0.2753 -0.9897 -1.4101
  187SLPC  C21521569   3.858   6.976   8.445  0.0644  0.5033 -0.1899
  187SLPC  H15R21570   3.926   6.899   8.403  0.4915  0.2264  0.9721
  187SLPC  H15S21571   3.774   6.918   8.488  1.3688 -1.7014 -0.5264
  187SLPC  C21621572   3.921   7.067   8.552  0.6304  0.3395  0.5918
  187SLPC  H16R21573   4.018   7.111   8.521 -0.1901  1.5826 -0.2761
  187SLPC  H16S21574   3.940   7.007   8.643 -0.0874  2.2287  2.0172
  187SLPC  C21721575   3.816   7.179   8.587  0.3343  0.5102  0.4268
  187SLPC  H17R21576   3.710   7.149   8.572  0.3790  1.0015 -0.9232
  187SLPC  H17S21577   3.841   7.264   8.519  0.6435  1.1935  1.3786
  187SLPC  C21821578   3.833   7.233   8.728 -0.6822 -0.2314  0.2194
  187SLPC  H18R21579   3.775   7.324   8.758 -0.3192 -1.3386  4.4907
  187SLPC  H18S21580   3.942   7.248   8.739 -0.2519 -3.2399  0.4588
  187SLPC  H18T21581   3.796   7.155   8.797 -1.2459  0.1006  0.3047
  187SLPC   C3321582   4.018   6.319   7.285  0.3153  0.6773 -0.3789
  187SLPC   H3X21583   3.974   6.421   7.280 -1.6267 -0.2160 -2.2234
  187SLPC   H3Y21584   4.128   6.331   7.273  0.0388  3.0449 -0.8731
  187SLPC   C3421585   3.986   6.260   7.417 -0.8866  0.1143  0.2789
  187SLPC   H4X21586   3.878   6.254   7.441 -1.2620  0.2880 -1.3187
  187SLPC   H4Y21587   4.029   6.316   7.503  1.2577 -1.4531  0.2624
  187SLPC   C3521588   4.036   6.113   7.411 -0.2506  0.4861  0.5347
  187SLPC   H5X21589   4.143   6.106   7.380 -0.6973 -2.9817 -0.4478
  187SLPC   H5Y21590   3.974   6.058   7.337  0.8540  0.7567 -0.6163
  187SLPC   C3621591   4.016   6.027   7.539 -0.6964 -0.3635  0.0409
  187SLPC   H6X21592   4.068   5.932   7.514 -0.8866 -0.6802  0.8492
  187SLPC   H6Y21593   3.907   6.014   7.550 -0.6009 -1.5515 -0.3877
  187SLPC   C3721594   4.064   6.091   7.671  0.7773  0.2001  0.7608
  187SLPC   H7X21595   4.169   6.126   7.661  0.3188  1.0750 -1.3093
  187SLPC   H7Y21596   4.010   6.185   7.696 -0.0639 -0.2544  0.6659
  187SLPC   C3821597   4.056   5.996   7.792 -0.1136  0.2986 -0.4058
  187SLPC   H8X21598   4.122   5.909   7.773 -0.2927 -0.1335  0.9340
  187SLPC   H8Y21599   3.953   5.957   7.809  0.6368 -0.9768  1.3093
  187SLPC   C3921600   4.100   6.068   7.918  0.0210  0.7232 -0.4091
  187SLPC   H9X21601   4.052   6.166   7.939 -2.1395 -0.2337 -0.7500
  187SLPC   H9Y21602   4.209   6.087   7.905  0.4305 -2.4721 -2.0157
  187SLPC  C31021603   4.084   5.979   8.046 -0.4886 -0.8237 -0.8413
  187SLPC  H10X21604   4.147   5.887   8.039  0.0414 -0.3386 -2.5857
  187SLPC  H10Y21605   3.976   5.969   8.072 -0.6047  1.7517 -0.1958
  187SLPC  C31121606   4.150   6.053   8.173  0.2540  0.0154 -0.6621
  187SLPC  H11X21607   4.084   6.140   8.194  0.0044 -0.2174 -0.4806
  187SLPC  H11Y21608   4.255   6.084   8.151  0.4719 -1.0710 -1.1900
  187SLPC  C31221609   4.145   5.949   8.297  0.6472 -0.5712  0.0754
  187SLPC  H12X21610   4.195   5.859   8.254 -0.0068 -0.1278 -1.6578
  187SLPC  H12Y21611   4.037   5.932   8.314  0.2368  0.4014 -1.5020
  187SLPC  C31321612   4.193   6.008   8.431 -0.7817  0.5974 -0.2514
  187SLPC  H13X21613   4.127   6.094   8.456 -0.5819  0.1577  1.9207
  187SLPC  H13Y21614   4.293   6.055   8.425 -0.6807  0.8640  2.7217
  187SLPC  C31421615   4.181   5.913   8.548  0.1726  0.6804  0.9300
  187SLPC  H14X21616   4.253   5.948   8.625  2.1917  0.9642 -1.0221
  187SLPC  H14Y21617   4.223   5.814   8.520  0.2999  0.8843  0.3801
  187SLPC  C31521618   4.047   5.884   8.615 -0.0421  0.0473 -0.0008
  187SLPC  H15X21619   4.070   5.798   8.681  0.3498  0.5015  0.4568
  187SLPC  H15Y21620   3.980   5.861   8.529  1.0470  2.6101 -1.5778
  187SLPC  C31621621   3.992   6.001   8.697 -0.3101  0.0302 -0.1135
  187SLPC  H16X21622   3.890   5.965   8.722 -0.6495 -0.4240 -2.0839
  187SLPC  H16Y21623   3.978   6.089   8.630 -2.0560 -0.7247 -0.7490
  187SLPC  C31721624   4.065   6.034   8.830  0.2453 -0.4679 -1.2015
  187SLPC  H17X21625   4.173   6.050   8.812  0.2810 -0.9514 -1.4329
  187SLPC  H17Y21626   4.051   5.958   8.910 -2.8742  3.4514  2.2001
  187SLPC  C31821627   4.006   6.157   8.897 -0.8951 -0.1917 -0.1432
  187SLPC  H18X21628   4.041   6.242   8.835 -0.0091  0.3865  1.1210
  187SLPC  H18Y21629   4.052   6.164   8.998 -1.6812 -0.0606  0.2087
  187SLPC  H18Z21630   3.896   6.154   8.905 -0.8397 -0.9104  0.4273
  188SLPC     N21631   5.281   1.621   6.196  0.2671 -0.2755  0.3031
  188SLPC   C1321632   5.365   1.499   6.203  0.4724  0.3098 -0.5270
  188SLPC  H13A21633   5.322   1.443   6.284  2.6210  0.9109  1.0636
  188SLPC  H13B21634   5.357   1.440   6.113 -0.6686 -0.1177 -0.1509
  188SLPC  H13C21635   5.464   1.523   6.237 -0.4001  1.4900  1.2564
  188SLPC   C1421636   5.162   1.596   6.119  0.1491 -0.1237  0.5282
  188SLPC  H14A21637   5.193   1.586   6.016 -0.0513  1.6325  0.2798
  188SLPC  H14B21638   5.112   1.506   6.154  0.9053 -2.0524 -3.0720
  188SLPC  H14C21639   5.094   1.680   6.116  1.5106  0.9374 -2.5320
  188SLPC   C1521640   5.351   1.729   6.125  0.3207 -0.1365  0.6662
  188SLPC  H15A21641   5.380   1.702   6.025 -1.5239 -0.9456  0.3359
  188SLPC  H15B21642   5.285   1.814   6.126 -0.9882 -1.1315  1.8818
  188SLPC  H15C21643   5.440   1.759   6.179  0.8513  0.7728 -0.6774
  188SLPC   C1221644   5.234   1.666   6.338  0.7259  0.3075 -0.2882
  188SLPC  H12A21645   5.193   1.766   6.331 -0.8253 -0.2419  0.7291
  188SLPC  H12B21646   5.324   1.680   6.396  0.1086 -2.6791  1.4646
  188SLPC   C1121647   5.140   1.570   6.420  0.1620  0.1601  0.0562
  188SLPC  H11A21648   5.047   1.577   6.359 -0.4196 -0.7125  0.8140
  188SLPC  H11B21649   5.120   1.604   6.524 -3.0375  2.0564 -1.1122
  188SLPC     P21650   5.265   1.376   6.534  0.2065 -0.0229 -0.3936
  188SLPC   O1321651   5.376   1.294   6.485 -0.6753  0.1494 -0.4425
  188SLPC   O1421652   5.311   1.483   6.629  0.0340 -0.7848  0.5931
  188SLPC   O1221653   5.177   1.435   6.416 -0.6315 -0.1381 -0.3021
  188SLPC   O1121654   5.169   1.274   6.612  0.8335 -0.5911  0.2548
  188SLPC    C121655   5.031   1.268   6.601  0.5784 -0.0362  0.2100
  188SLPC    HA21656   4.989   1.314   6.509 -2.4557  1.9937  2.5143
  188SLPC    HB21657   4.989   1.165   6.609 -1.3684  0.6450 -0.8889
  188SLPC    C221658   4.973   1.361   6.712  0.9616  0.6392  0.5884
  188SLPC    HS21659   5.003   1.468   6.708  0.0016  0.9568  1.6332
  188SLPC   O2121660   4.990   1.298   6.842  0.2310  0.5639  0.2735
  188SLPC   C2121661   5.041   1.365   6.937  0.8211  0.9316  0.1680
  188SLPC   O2221662   5.098   1.473   6.926  0.4836 -0.5491 -0.4513
  188SLPC   C2221663   4.999   1.304   7.078 -0.4764  0.0707 -0.6209
  188SLPC   H2R21664   5.092   1.286   7.136  0.3473  2.6646 -1.0487
  188SLPC   H2S21665   4.955   1.386   7.139 -0.8496 -1.8425  1.7303
  188SLPC    C321666   4.820   1.374   6.693 -0.3209 -0.3338  0.3596
  188SLPC    HX21667   4.778   1.272   6.700 -1.8610  0.0928 -2.0053
  188SLPC    HY21668   4.819   1.413   6.589  0.7674 -1.0731  0.0649
  188SLPC   O3121669   4.768   1.460   6.788  1.4492 -0.4443  0.2681
  188SLPC   C3121670   4.678   1.418   6.869 -0.4084 -0.0204 -0.1639
  188SLPC   O3221671   4.616   1.310   6.860  0.6473 -0.0742 -0.6851
  188SLPC   C3221672   4.668   1.532   6.967  0.2500 -1.1845  0.1705
  188SLPC   H2X21673   4.618   1.615   6.913  0.3097 -0.6777  0.8821
  188SLPC   H2Y21674   4.764   1.570   7.007  0.0234 -1.1446  0.6882
  188SLPC   C2321675   4.900   1.185   7.085  0.2259  0.4962 -0.2668
  188SLPC   H3R21676   4.952   1.110   7.022 -0.9009  1.3349 -2.2359
  188SLPC   H3S21677   4.805   1.215   7.037 -0.0827 -3.6523 -2.4275
  188SLPC   C2421678   4.903   1.137   7.229 -0.0259 -0.1407 -0.2928
  188SLPC   H4R21679   5.007   1.141   7.269  0.2034 -3.3722 -0.4233
  188SLPC   H4S21680   4.871   1.030   7.231  1.7319 -0.6854  2.2333
  188SLPC   C2521681   4.820   1.215   7.317 -0.1084  0.0536  0.6002
  188SLPC   H5R21682   4.716   1.226   7.279 -0.2386 -1.2363  0.5687
  188SLPC   H5S21683   4.851   1.322   7.322 -0.6193  0.5204 -3.7278
  188SLPC   C2621684   4.807   1.150   7.458 -0.8229  0.7243 -0.3580
  188SLPC   H6R21685   4.746   1.228   7.509 -2.2244  1.3477 -2.9005
  188SLPC   H6S21686   4.909   1.151   7.502  1.1636 -0.2006 -4.6612
  188SLPC   C2721687   4.750   1.005   7.464 -0.2785 -0.7414  0.0757
  188SLPC   H7R21688   4.820   0.926   7.429  0.4735 -0.7365  1.5346
  188SLPC   H7S21689   4.664   1.001   7.394 -0.1361  2.5332 -0.3978
  188SLPC   C2821690   4.712   0.960   7.605 -0.4296  0.6536 -0.6190
  188SLPC   H8R21691   4.635   0.882   7.595 -2.0883  2.0742  0.6828
  188SLPC   H8S21692   4.654   1.049   7.638 -1.9228 -0.4996 -0.1003
  188SLPC   C2921693   4.824   0.919   7.697 -0.1215 -0.7672  0.7703
  188SLPC   H9R21694   4.869   1.003   7.751 -0.7160  0.8379 -1.1458
  188SLPC  C21021695   4.862   0.790   7.725 -0.4903 -0.1013 -0.0248
  188SLPC  H10R21696   4.943   0.767   7.795 -2.0188 -2.6976  0.9620
  188SLPC  C21121697   4.801   0.671   7.663  0.1719  0.2872  0.4056
  188SLPC  H11R21698   4.809   0.673   7.553  1.2705 -0.1474  0.4712
  188SLPC  H11S21699   4.696   0.672   7.700  0.5335  1.8667  1.4290
  188SLPC  C21221700   4.846   0.539   7.715 -0.1385 -0.0853 -0.3622
  188SLPC  H12R21701   4.939   0.494   7.678  1.3129  1.7267  0.9734
  188SLPC  C21321702   4.801   0.477   7.821 -0.6265 -0.8027 -0.0643
  188SLPC  H13R21703   4.836   0.373   7.836 -0.5546 -0.4376  2.4117
  188SLPC  C21421704   4.698   0.527   7.922 -0.7399  0.0644 -0.4887
  188SLPC  H14R21705   4.602   0.546   7.870 -1.6253  1.8550  1.7263
  188SLPC  H14S21706   4.730   0.627   7.960 -0.2623 -0.3666  0.2573
  188SLPC  C21521707   4.694   0.428   8.040  0.2559 -0.1657  0.1253
  188SLPC  H15R21708   4.656   0.326   8.018 -3.3782  1.5021 -1.7720
  188SLPC  H15S21709   4.604   0.460   8.097 -0.8124  1.8059 -2.5638
  188SLPC  C21621710   4.822   0.420   8.123 -0.3872 -0.4322 -0.5300
  188SLPC  H16R21711   4.877   0.516   8.130 -0.0925 -0.6507  0.1607
  188SLPC  H16S21712   4.899   0.366   8.064  1.9118 -1.1423  2.9571
  188SLPC  C21721713   4.798   0.362   8.263  0.4669 -0.7379 -0.2426
  188SLPC  H17R21714   4.864   0.274   8.265  0.6910 -0.5455  1.2920
  188SLPC  H17S21715   4.694   0.324   8.266  0.5471 -1.0293 -1.0901
  188SLPC  C21821716   4.809   0.451   8.389 -0.7689  0.3331  0.0092
  188SLPC  H18R21717   4.818   0.388   8.480 -2.0858 -0.2677 -0.2568
  188SLPC  H18S21718   4.732   0.531   8.396 -0.8594  0.3194 -0.7645
  188SLPC  H18T21719   4.906   0.504   8.384 -0.6814  0.0450 -1.8958
  188SLPC   C3321720   4.571   1.497   7.086  0.3582 -0.1950  0.1764
  188SLPC   H3X21721   4.613   1.408   7.136  0.5233 -0.7621 -0.9535
  188SLPC   H3Y21722   4.469   1.474   7.048  0.5257 -0.3526 -0.1826
  188SLPC   C3421723   4.555   1.599   7.196 -0.5689  0.5889  0.3809
  188SLPC   H4X21724   4.501   1.680   7.141 -1.3201 -0.1073  0.0792
  188SLPC   H4Y21725   4.649   1.653   7.219 -0.9196  1.3195  0.1172
  188SLPC   C3521726   4.475   1.562   7.318 -0.0730 -0.1529  0.0397
  188SLPC   H5X21727   4.390   1.494   7.293  0.6121 -0.9348 -0.1878
  188SLPC   H5Y21728   4.437   1.658   7.359  1.2296  1.1781 -1.7809
  188SLPC   C3621729   4.555   1.496   7.433  1.2390  0.7270  0.5840
  188SLPC   H6X21730   4.637   1.435   7.389  1.5046  1.1057  0.5570
  188SLPC   H6Y21731   4.485   1.429   7.489  1.5634 -0.4924 -0.4374
  188SLPC   C3721732   4.622   1.586   7.532 -0.1970 -0.4219  0.3133
  188SLPC   H7X21733   4.540   1.642   7.582  0.7058  0.3644  0.9207
  188SLPC   H7Y21734   4.689   1.662   7.486 -0.0087 -1.9954 -2.1046
  188SLPC   C3821735   4.709   1.517   7.643  0.1557 -0.5636 -0.8495
  188SLPC   H8X21736   4.752   1.602   7.700 -1.7509  1.0974 -1.8167
  188SLPC   H8Y21737   4.787   1.467   7.583  2.5059  0.1012  1.5470
  188SLPC   C3921738   4.640   1.418   7.730 -0.0171  0.4281 -0.5689
  188SLPC   H9X21739   4.587   1.340   7.672 -0.2418 -1.4629  2.0885
  188SLPC   H9Y21740   4.570   1.474   7.796  1.5374  0.4303  1.0979
  188SLPC  C31021741   4.736   1.350   7.831 -0.2674  0.5081 -0.6514
  188SLPC  H10X21742   4.776   1.423   7.904 -0.0311 -0.1459 -0.1361
  188SLPC  H10Y21743   4.823   1.314   7.773  0.9075  1.1893  0.6648
  188SLPC  C31121744   4.684   1.224   7.898 -0.5104 -0.0610 -0.5825
  188SLPC  H11X21745   4.649   1.153   7.821 -0.6552  1.2196 -1.7260
  188SLPC  H11Y21746   4.590   1.251   7.951 -0.8148 -3.9819  1.0178
  188SLPC  C31221747   4.777   1.139   7.992  0.3091 -0.0015 -0.0042
  188SLPC  H12X21748   4.874   1.113   7.944 -0.9689  1.6180 -3.6608
  188SLPC  H12Y21749   4.729   1.040   8.011  1.7954 -0.9571 -1.1922
  188SLPC  C31321750   4.809   1.205   8.126  0.0728 -0.1586 -0.3539
  188SLPC  H13X21751   4.714   1.187   8.181 -0.1508 -2.3417 -1.3848
  188SLPC  H13Y21752   4.835   1.310   8.101 -0.0174  0.1167  0.6554
  188SLPC  C31421753   4.921   1.141   8.205  0.3278  0.0509  0.3367
  188SLPC  H14X21754   4.945   1.204   8.294 -2.5930 -1.1810  2.0972
  188SLPC  H14Y21755   5.010   1.121   8.143 -0.6998 -2.1674 -0.4680
  188SLPC  C31521756   4.874   1.012   8.269  0.0418  0.6385  0.0444
  188SLPC  H15X21757   4.858   0.930   8.196 -1.3699 -0.4989  1.5829
  188SLPC  H15Y21758   4.780   1.035   8.323 -1.0606  0.7042 -1.8784
  188SLPC  C31621759   4.975   0.951   8.368 -0.1769  0.3914  0.4210
  188SLPC  H16X21760   4.983   1.032   8.444  0.9190  4.0255 -3.4044
  188SLPC  H16Y21761   5.070   0.943   8.311 -2.1689 -4.1931 -2.6085
  188SLPC  C31721762   4.921   0.820   8.431 -0.7450 -0.0119  0.7682
  188SLPC  H17X21763   4.896   0.762   8.339 -0.8217  0.8301  0.2481
  188SLPC  H17Y21764   4.821   0.834   8.477 -1.8727  1.1393 -1.9313
  188SLPC  C31821765   5.026   0.752   8.515 -0.2085 -0.0466  0.3910
  188SLPC  H18X21766   4.973   0.670   8.569 -0.0487  0.5736  1.5059
  188SLPC  H18Y21767   5.056   0.827   8.590 -0.5781 -0.1842  0.6794
  188SLPC  H18Z21768   5.110   0.710   8.457 -2.5613 -1.8504 -1.8466
  189SLPC     N21769   0.656   2.995   6.443  0.0824  0.5555  0.4114
  189SLPC   C1321770   0.640   2.855   6.405 -0.0430 -0.2379 -0.2960
  189SLPC  H13A21771   0.547   2.838   6.353 -0.6038 -1.4884  1.0623
  189SLPC  H13B21772   0.731   2.823   6.355 -0.7181 -0.8002 -1.1698
  189SLPC  H13C21773   0.634   2.789   6.491  0.9474  0.1745  0.1018
  189SLPC   C1421774   0.642   3.073   6.319  0.1155 -0.2598  0.9839
  189SLPC  H14A21775   0.692   3.025   6.236 -1.3724 -2.3921  1.2889
  189SLPC  H14B21776   0.539   3.070   6.290 -0.3290  1.5859  2.2605
  189SLPC  H14C21777   0.663   3.178   6.334  0.4128 -0.3074  0.9052
  189SLPC   C1521778   0.791   3.022   6.494 -0.6680 -1.4896 -0.1360
  189SLPC  H15A21779   0.799   2.971   6.589  1.5444  0.6148  0.8725
  189SLPC  H15B21780   0.865   2.987   6.423  0.8808  1.3052  0.0153
  189SLPC  H15C21781   0.804   3.128   6.503 -0.9031 -1.3482 -1.4487
  189SLPC   C1221782   0.552   3.034   6.550 -0.5552 -0.5289 -0.0783
  189SLPC  H12A21783   0.549   3.140   6.569  1.5232 -0.7069  1.4619
  189SLPC  H12B21784   0.576   2.992   6.646  0.3137  1.6179  0.6716
  189SLPC   C1121785   0.406   2.991   6.532 -0.0165 -0.1209  0.0979
  189SLPC  H11A21786   0.349   3.002   6.627  1.2014 -0.1009  0.8319
  189SLPC  H11B21787   0.385   2.883   6.515 -0.3630 -0.0607  0.1335
  189SLPC     P21788   0.278   3.202   6.468 -0.2967  0.4337  0.2842
  189SLPC   O1321789   0.355   3.287   6.558 -0.0118 -0.2327 -0.4374
  189SLPC   O1421790   0.232   3.259   6.340 -0.1204 -0.1213  0.7450
  189SLPC   O1221791   0.361   3.068   6.431  0.4586 -0.3493  0.0107
  189SLPC   O1121792   0.155   3.136   6.541  0.0114 -0.1426  0.2134
  189SLPC    C121793   0.053   3.215   6.601  1.0633  0.2983 -0.0017
  189SLPC    HA21794   0.089   3.291   6.674  0.2530  0.3226  0.3807
  189SLPC    HB21795  -0.008   3.272   6.527 -1.3650 -0.4784  1.3526
  189SLPC    C221796  -0.053   3.124   6.674  0.0119  0.3834 -0.2359
  189SLPC    HS21797  -0.132   3.183   6.724 -0.1136 -1.1482  1.3995
  189SLPC   O2121798  -0.003   3.031   6.765 -0.2105 -0.1008  0.4308
  189SLPC   C2121799   0.047   3.088   6.874  0.5023  0.0438  0.3040
  189SLPC   O2221800   0.014   3.195   6.921 -0.3373  0.3844  0.4318
  189SLPC   C2221801   0.156   3.001   6.931  0.3430 -0.0664 -0.3890
  189SLPC   H2R21802   0.119   2.903   6.970 -0.4008  0.1446 -0.5592
  189SLPC   H2S21803   0.236   2.996   6.855  1.4061 -2.2913  0.8345
  189SLPC    C321804  -0.135   3.046   6.563  0.2045 -0.0089  0.7589
  189SLPC    HX21805  -0.070   2.961   6.532 -0.6817 -0.5458  0.3511
  189SLPC    HY21806  -0.159   3.109   6.474  0.2598 -1.8528 -0.5946
  189SLPC   O3121807  -0.257   3.001   6.616 -0.0621 -0.0178 -0.5651
  189SLPC   C3121808  -0.253   2.879   6.671  0.1786 -0.0773 -0.2266
  189SLPC   O3221809  -0.173   2.787   6.644 -0.4751  0.2417 -0.2730
  189SLPC   C3221810  -0.372   2.880   6.784 -0.4861 -0.0792 -0.6346
  189SLPC   H2X21811  -0.361   2.780   6.831  0.4716 -0.2465 -1.1776
  189SLPC   H2Y21812  -0.465   2.889   6.725 -1.1510  0.1344  0.4526
  189SLPC   C2321813   0.230   3.061   7.057  0.3617 -0.3401  0.3489
  189SLPC   H3R21814   0.230   3.169   7.031  0.3456 -0.4952 -0.2984
  189SLPC   H3S21815   0.335   3.026   7.058  0.4155 -0.1942 -0.2059
  189SLPC   C2421816   0.156   3.047   7.188 -0.8331 -0.3031  0.1650
  189SLPC   H4R21817   0.162   2.942   7.223 -1.2960 -1.5056 -3.2102
  189SLPC   H4S21818   0.053   3.088   7.190 -0.8327 -0.3308  0.8039
  189SLPC   C2521819   0.230   3.134   7.293  1.0382 -0.6414 -0.4549
  189SLPC   H5R21820   0.201   3.235   7.257 -2.4180 -1.1340  0.7342
  189SLPC   H5S21821   0.338   3.108   7.287  0.8297 -1.8284  0.6454
  189SLPC   C2621822   0.178   3.089   7.431 -0.1189  0.3578  0.3565
  189SLPC   H6R21823   0.226   2.993   7.461  2.9267  1.3429 -1.1748
  189SLPC   H6S21824   0.067   3.085   7.441 -0.1665  0.0795 -0.2226
  189SLPC   C2721825   0.236   3.181   7.536  1.0533  0.2836  0.2874
  189SLPC   H7R21826   0.195   3.283   7.515  1.3510  0.2285 -0.5849
  189SLPC   H7S21827   0.345   3.193   7.524  0.9686 -1.4736 -2.7430
  189SLPC   C2821828   0.194   3.138   7.680 -0.1639  0.2602 -0.7475
  189SLPC   H8R21829   0.257   3.049   7.700  0.5078  0.8049 -0.4321
  189SLPC   H8S21830   0.084   3.124   7.686 -0.2576  1.5823  0.8595
  189SLPC   C2921831   0.229   3.236   7.790  1.2023 -0.6082  0.0326
  189SLPC   H9R21832   0.283   3.329   7.763 -0.1329 -0.6221 -2.9283
  189SLPC  C21021833   0.204   3.221   7.918  0.5179  0.1157  0.1619
  189SLPC  H10R21834   0.209   3.307   7.987  3.0747 -0.1631  0.3905
  189SLPC  C21121835   0.135   3.098   7.980 -0.3831  0.1179 -0.6404
  189SLPC  H11R21836   0.174   3.082   8.082 -0.1053 -0.8310 -0.8925
  189SLPC  H11S21837   0.182   3.015   7.924 -3.8820 -0.3235 -3.1025
  189SLPC  C21221838  -0.010   3.082   7.963 -0.0827 -0.2300 -0.0783
  189SLPC  H12R21839  -0.057   3.154   7.894 -0.1997  0.6628  0.9319
  189SLPC  C21321840  -0.081   2.980   8.015  0.6226 -0.5420 -0.7084
  189SLPC  H13R21841  -0.189   2.979   7.993  0.3219 -3.1223  0.7429
  189SLPC  C21421842  -0.055   2.862   8.104 -0.3314  0.1923 -0.0686
  189SLPC  H14R21843   0.053   2.862   8.132 -0.3712  1.8695  0.1805
  189SLPC  H14S21844  -0.067   2.772   8.041 -0.2456  1.6003 -2.1520
  189SLPC  C21521845  -0.135   2.850   8.233 -0.2393  0.3565  0.1535
  189SLPC  H15R21846  -0.097   2.764   8.291 -0.4385  1.9312  2.7233
  189SLPC  H15S21847  -0.243   2.830   8.214 -0.8915  2.1160  1.7353
  189SLPC  C21621848  -0.151   2.971   8.322  0.0090 -0.0685  0.0097
  189SLPC  H16R21849  -0.232   3.036   8.282  3.0382  4.5201  1.0618
  189SLPC  H16S21850  -0.061   3.034   8.314  0.4529 -0.9312 -2.4339
  189SLPC  C21721851  -0.178   2.941   8.470  0.2294 -0.4972 -0.1383
  189SLPC  H17R21852  -0.103   2.865   8.501  0.6527  0.4789  1.2317
  189SLPC  H17S21853  -0.282   2.903   8.481  0.4651 -0.7415  1.2835
  189SLPC  C21821854  -0.156   3.060   8.560  0.9205  0.2968 -0.4237
  189SLPC  H18R21855  -0.052   3.097   8.564 -0.5866  4.8723 -0.3217
  189SLPC  H18S21856  -0.189   3.053   8.666 -2.2950  0.9516 -1.3168
  189SLPC  H18T21857  -0.218   3.145   8.522 -0.1911 -0.0379  0.5776
  189SLPC   C3321858  -0.356   2.988   6.890 -0.8542 -0.3959  0.6298
  189SLPC   H3X21859  -0.454   3.020   6.932 -0.0794  0.4526  1.8208
  189SLPC   H3Y21860  -0.322   3.080   6.838 -0.6916 -1.3560 -0.9918
  189SLPC   C3421861  -0.262   2.958   7.005 -0.0732  0.7002  0.0590
  189SLPC   H4X21862  -0.229   3.056   7.044  0.9089  0.5556 -0.4069
  189SLPC   H4Y21863  -0.168   2.911   6.968  1.0126  0.2274  3.2469
  189SLPC   C3521864  -0.324   2.867   7.106  0.3976  0.0216  0.0588
  189SLPC   H5X21865  -0.336   2.776   7.045 -0.1521  1.2939 -1.7825
  189SLPC   H5Y21866  -0.426   2.907   7.124  0.4609  0.4138 -0.4488
  189SLPC   C3621867  -0.257   2.827   7.238  0.1930  0.2604 -0.4550
  189SLPC   H6X21868  -0.258   2.908   7.313  2.5778  0.9477 -1.1219
  189SLPC   H6Y21869  -0.157   2.791   7.206  0.0269  1.1673 -2.0698
  189SLPC   C3721870  -0.329   2.695   7.298 -0.2458  0.0136 -0.3115
  189SLPC   H7X21871  -0.309   2.614   7.224  0.1218  1.5329 -1.8952
  189SLPC   H7Y21872  -0.436   2.724   7.291  0.0153  1.3795  1.0950
  189SLPC   C3821873  -0.309   2.647   7.440 -0.2958  0.0437 -0.1396
  189SLPC   H8X21874  -0.213   2.598   7.466  0.9064  2.8486  0.9333
  189SLPC   H8Y21875  -0.384   2.568   7.459  1.0302 -1.1539  0.1241
  189SLPC   C3921876  -0.330   2.764   7.535  0.6515 -0.7212  0.1789
  189SLPC   H9X21877  -0.425   2.821   7.526 -0.3047 -2.4679 -0.8468
  189SLPC   H9Y21878  -0.249   2.839   7.518 -0.9056  1.1615  0.8003
  189SLPC  C31021879  -0.311   2.719   7.681  0.4826 -0.5942 -1.2123
  189SLPC  H10X21880  -0.216   2.667   7.704  0.6279 -0.3403 -1.2424
  189SLPC  H10Y21881  -0.393   2.647   7.702 -0.6220  0.8342 -0.5310
  189SLPC  C31121882  -0.329   2.840   7.785 -0.1712  0.3138 -0.2119
  189SLPC  H11X21883  -0.257   2.921   7.758  2.2046 -2.2085 -1.6250
  189SLPC  H11Y21884  -0.302   2.823   7.892 -0.0270 -0.9468 -0.4504
  189SLPC  C31221885  -0.464   2.907   7.775 -0.0475  0.0830 -0.2086
  189SLPC  H12X21886  -0.544   2.832   7.789 -0.8844  1.3040  1.8880
  189SLPC  H12Y21887  -0.476   2.960   7.678 -2.9517 -2.3094 -1.2166
  189SLPC  C31321888  -0.480   3.001   7.900  0.0309 -0.0257  0.0605
  189SLPC  H13X21889  -0.413   3.088   7.882  0.1398 -0.6520 -2.8875
  189SLPC  H13Y21890  -0.459   2.942   7.992 -0.2582 -0.0634  0.1006
  189SLPC  C31421891  -0.619   3.067   7.914  0.3331 -0.6161 -0.0136
  189SLPC  H14X21892  -0.703   2.998   7.890 -0.6032  0.0398  1.2784
  189SLPC  H14Y21893  -0.617   3.152   7.843 -1.9815 -1.7788 -1.5222
  189SLPC  C31521894  -0.639   3.113   8.058  0.6049 -0.1739  0.4704
  189SLPC  H15X21895  -0.542   3.152   8.097  0.0414 -1.3920  3.1990
  189SLPC  H15Y21896  -0.660   3.034   8.133 -0.9289 -0.3480 -0.1353
  189SLPC  C31621897  -0.760   3.211   8.055 -0.5049  0.5159  0.4297
  189SLPC  H16X21898  -0.844   3.161   8.004 -0.3664  0.4209  0.2961
  189SLPC  H16Y21899  -0.735   3.309   8.009 -1.4336 -0.3514 -1.9557
  189SLPC  C31721900  -0.817   3.250   8.193  0.7007  0.0727 -0.1143
  189SLPC  H17X21901  -0.824   3.156   8.252  3.3754 -0.4286 -0.5293
  189SLPC  H17Y21902  -0.919   3.293   8.182  1.1709  0.8343 -1.5554
  189SLPC  C31821903  -0.744   3.363   8.261 -0.6285  0.2441  0.0058
  189SLPC  H18X21904  -0.803   3.397   8.348  1.7083 -1.3254  2.2797
  189SLPC  H18Y21905  -0.727   3.451   8.196  1.1345 -1.5066 -1.9855
  189SLPC  H18Z21906  -0.650   3.317   8.298 -1.5553  0.0805  2.2300
  190SLPC     N21907   0.788   2.446   5.980 -0.6549 -0.6744  0.3088
  190SLPC   C1321908   0.809   2.468   5.830 -0.2868  0.2253  0.1836
  190SLPC  H13A21909   0.846   2.380   5.779  0.3385  1.5625 -1.7361
  190SLPC  H13B21910   0.709   2.486   5.794 -0.6743 -1.1522  0.5502
  190SLPC  H13C21911   0.887   2.541   5.814  0.4992 -0.8984 -1.2205
  190SLPC   C1421912   0.703   2.334   5.993 -0.1767 -0.0884  0.0835
  190SLPC  H14A21913   0.760   2.244   5.977 -1.6943 -0.9683 -0.5366
  190SLPC  H14B21914   0.667   2.330   6.094 -2.3798  0.6473 -0.6424
  190SLPC  H14C21915   0.620   2.344   5.925 -0.8683  0.3727  0.9814
  190SLPC   C1521916   0.718   2.564   6.039  0.9705  0.5247 -0.0038
  190SLPC  H15A21917   0.714   2.555   6.147 -1.4525 -0.8377 -0.1772
  190SLPC  H15B21918   0.773   2.652   6.010 -1.1433  2.1531  0.8803
  190SLPC  H15C21919   0.617   2.572   6.002  0.7614  0.0740  0.4635
  190SLPC   C1221920   0.922   2.422   6.039  0.1050  0.1483  0.5384
  190SLPC  H12A21921   0.977   2.514   6.033 -1.4162  0.9998 -0.5378
  190SLPC  H12B21922   0.981   2.349   5.985 -0.7966 -0.9855  1.0520
  190SLPC   C1121923   0.929   2.380   6.188  0.3646 -0.1779 -0.8192
  190SLPC  H11A21924   1.037   2.374   6.214 -0.3127  0.0168  2.1436
  190SLPC  H11B21925   0.881   2.280   6.194  1.6201 -0.7016  0.9966
  190SLPC     P21926   0.769   2.437   6.382  0.0069  0.2774 -0.1658
  190SLPC   O1321927   0.861   2.389   6.487 -0.5927 -0.0637 -0.2118
  190SLPC   O1421928   0.677   2.551   6.413  0.1338  0.6923 -0.1809
  190SLPC   O1221929   0.865   2.483   6.263  0.0814  0.0228  0.3851
  190SLPC   O1121930   0.686   2.312   6.328 -0.2401 -0.1940  0.0240
  190SLPC    C121931   0.543   2.291   6.349  0.0683  0.3828 -1.0734
  190SLPC    HA21932   0.499   2.340   6.259 -0.0689  0.4862 -0.9482
  190SLPC    HB21933   0.526   2.182   6.340  1.7774  0.0071  0.0366
  190SLPC    C221934   0.486   2.320   6.490  0.4312  1.3017 -0.6818
  190SLPC    HS21935   0.474   2.430   6.502 -0.6726  0.9536  1.6051
  190SLPC   O2121936   0.555   2.245   6.591  0.6693  0.0225 -0.4039
  190SLPC   C2121937   0.588   2.315   6.697  0.0718 -0.2339  0.1967
  190SLPC   O2221938   0.566   2.432   6.714  0.0464 -0.0174 -0.1356
  190SLPC   C2221939   0.653   2.228   6.800 -0.4163  0.2854 -0.1037
  190SLPC   H2R21940   0.639   2.120   6.780  1.6658 -0.1211  0.5333
  190SLPC   H2S21941   0.757   2.250   6.768 -1.3053  2.7148 -1.5250
  190SLPC    C321942   0.332   2.271   6.485 -0.8424 -0.3122 -0.4326
  190SLPC    HX21943   0.330   2.162   6.465 -0.3715 -0.0777 -1.8040
  190SLPC    HY21944   0.283   2.321   6.398 -3.0725 -1.0131  0.3919
  190SLPC   O3121945   0.259   2.307   6.604  0.4531 -0.4926  0.5586
  190SLPC   C3121946   0.247   2.208   6.694  1.3450 -0.6980 -0.3858
  190SLPC   O3221947   0.305   2.103   6.697  0.0461 -0.2741 -0.2919
  190SLPC   C3221948   0.141   2.252   6.792 -0.6288 -0.2322 -0.4586
  190SLPC   H2X21949   0.047   2.281   6.739  0.8598  1.5411 -2.1875
  190SLPC   H2Y21950   0.164   2.344   6.849  0.5797  0.8216 -2.5591
  190SLPC   C2321951   0.643   2.276   6.944  0.6456 -0.0024  0.3943
  190SLPC   H3R21952   0.630   2.386   6.950  0.8873  0.1327 -1.1696
  190SLPC   H3S21953   0.735   2.242   6.997  1.1573 -0.3276 -0.6672
  190SLPC   C2421954   0.521   2.203   7.002  0.4821  0.2609 -0.2429
  190SLPC   H4R21955   0.540   2.094   7.003  3.0576  0.6825 -0.2858
  190SLPC   H4S21956   0.434   2.223   6.936 -2.2509 -0.3165  3.0381
  190SLPC   C2521957   0.457   2.248   7.140  0.4777  0.0155  0.6691
  190SLPC   H5R21958   0.348   2.227   7.143  0.4214  0.2398  0.2441
  190SLPC   H5S21959   0.456   2.360   7.140  1.2987  0.0217  0.3014
  190SLPC   C2621960   0.522   2.201   7.274  0.2412 -0.8224 -0.9405
  190SLPC   H6R21961   0.624   2.243   7.289 -0.1627 -0.1993  0.0737
  190SLPC   H6S21962   0.529   2.090   7.272  1.6932 -0.7831  0.9131
  190SLPC   C2721963   0.441   2.245   7.395  0.6701  0.0260 -0.5459
  190SLPC   H7R21964   0.344   2.190   7.386  0.4912  0.5106 -1.6093
  190SLPC   H7S21965   0.414   2.352   7.407 -1.3121 -0.4488 -0.4494
  190SLPC   C2821966   0.501   2.198   7.527  0.0232  0.1361  0.0976
  190SLPC   H8R21967   0.515   2.088   7.528  0.1686  0.1647  1.5459
  190SLPC   H8S21968   0.423   2.233   7.598  0.2496  0.2682  0.2821
  190SLPC   C2921969   0.629   2.269   7.561  0.2369 -0.0094  0.5287
  190SLPC   H9R21970   0.650   2.352   7.492  1.0446 -0.4676  0.2144
  190SLPC  C21021971   0.711   2.243   7.668  0.5189  0.3905  0.5544
  190SLPC  H10R21972   0.803   2.303   7.662  0.2803  0.6082 -1.7093
  190SLPC  C21121973   0.696   2.136   7.773 -0.2432 -0.8571 -0.3000
  190SLPC  H11R21974   0.796   2.132   7.821 -1.1753 -1.7697  1.6078
  190SLPC  H11S21975   0.683   2.036   7.727 -0.3127 -0.8318 -0.3360
  190SLPC  C21221976   0.591   2.177   7.872 -0.1015 -0.2318 -0.3127
  190SLPC  H12R21977   0.501   2.115   7.865 -0.5737  0.0378  2.6439
  190SLPC  C21321978   0.597   2.283   7.959  0.0533 -0.7276  0.1447
  190SLPC  H13R21979   0.516   2.310   8.029 -1.0226  0.5242 -1.5613
  190SLPC  C21421980   0.715   2.384   7.968  0.0413 -0.1414  0.3357
  190SLPC  H14R21981   0.697   2.476   7.908 -0.3159  0.1379  0.8722
  190SLPC  H14S21982   0.806   2.346   7.917 -0.2607 -0.0241 -0.2940
  190SLPC  C21521983   0.756   2.414   8.116  0.0005 -0.7773 -0.2012
  190SLPC  H15R21984   0.824   2.501   8.110 -0.3470 -0.4354  0.6814
  190SLPC  H15S21985   0.814   2.331   8.163 -0.7625 -0.5958  1.0946
  190SLPC  C21621986   0.649   2.461   8.212 -0.0820 -0.0864  0.2241
  190SLPC  H16R21987   0.593   2.381   8.264  1.3079 -0.5466  1.0309
  190SLPC  H16S21988   0.567   2.516   8.161  1.7609  1.4962 -1.1453
  190SLPC  C21721989   0.709   2.527   8.335  0.3280  0.1432 -0.1218
  190SLPC  H17R21990   0.753   2.626   8.310 -1.1734  0.9573  0.3944
  190SLPC  H17S21991   0.789   2.459   8.372 -1.9468 -3.1987 -1.1282
  190SLPC  C21821992   0.609   2.545   8.449  0.0056 -0.0560  0.7445
  190SLPC  H18R21993   0.543   2.457   8.467 -0.0460 -0.3863 -0.9615
  190SLPC  H18S21994   0.557   2.643   8.438  2.7330  1.5018  1.3773
  190SLPC  H18T21995   0.665   2.554   8.545  1.0982 -0.0284  0.1097
  190SLPC   C3321996   0.098   2.143   6.890  0.0003  0.0801  0.6568
  190SLPC   H3X21997   0.187   2.123   6.953  0.5405 -1.8214 -0.6703
  190SLPC   H3Y21998   0.061   2.053   6.837  1.6410 -1.0333  1.3818
  190SLPC   C3421999  -0.010   2.193   6.976  0.2312 -0.0711  0.0951
  190SLPC   H4X22000  -0.107   2.139   6.970 -0.5563  1.3311 -0.1627
  190SLPC   H4Y22001  -0.031   2.297   6.942  0.5110 -0.0341  0.0334
  190SLPC   C3522002   0.031   2.193   7.127 -0.4496 -0.4217  0.2382
  190SLPC   H5X22003   0.104   2.277   7.135 -0.4730 -0.1415 -2.0679
  190SLPC   H5Y22004   0.079   2.096   7.151  0.3595 -0.1627 -0.2936
  190SLPC   C3622005  -0.083   2.227   7.229  0.2355  0.1309 -0.9859
  190SLPC   H6X22006  -0.163   2.154   7.203 -0.6606  0.8373 -0.2549
  190SLPC   H6Y22007  -0.115   2.332   7.209 -0.6913  0.2793  1.1925
  190SLPC   C3722008  -0.044   2.208   7.381  0.0755 -0.2568  0.4906
  190SLPC   H7X22009   0.048   2.269   7.392  0.4403 -0.6236 -0.4622
  190SLPC   H7Y22010  -0.013   2.101   7.385  0.0798 -0.2473  0.6750
  190SLPC   C3822011  -0.149   2.244   7.485 -0.5009 -0.8442  0.6996
  190SLPC   H8X22012  -0.240   2.185   7.462  0.0931 -2.3071  2.0311
  190SLPC   H8Y22013  -0.174   2.350   7.465  1.5848 -0.2750  0.9967
  190SLPC   C3922014  -0.098   2.228   7.631  0.2175  0.1916  0.2093
  190SLPC   H9X22015   0.010   2.252   7.636  0.3916 -0.3733 -0.6524
  190SLPC   H9Y22016  -0.104   2.118   7.647 -2.4787 -0.2143 -2.9964
  190SLPC  C31022017  -0.182   2.309   7.743  0.0213 -0.0840 -0.1225
  190SLPC  H10X22018  -0.286   2.271   7.749 -0.2974  0.3924 -2.1105
  190SLPC  H10Y22019  -0.188   2.416   7.711 -0.0554  0.0601  0.3672
  190SLPC  C31122020  -0.125   2.295   7.883  0.1266 -0.0766  0.0966
  190SLPC  H11X22021  -0.167   2.386   7.930 -2.6528 -0.0488 -2.2827
  190SLPC  H11Y22022  -0.015   2.303   7.870 -0.1406  0.5679 -1.9506
  190SLPC  C31222023  -0.169   2.160   7.941 -0.1565  0.4473 -0.3643
  190SLPC  H12X22024  -0.177   2.087   7.857 -0.6640 -1.0597  0.9774
  190SLPC  H12Y22025  -0.271   2.182   7.978  1.2195  2.3610  2.4521
  190SLPC  C31322026  -0.090   2.109   8.064 -0.1338  0.2091 -0.7650
  190SLPC  H13X22027  -0.117   2.172   8.152  0.7783 -1.1614  0.5315
  190SLPC  H13Y22028   0.018   2.116   8.040 -0.2505 -0.3399 -1.4841
  190SLPC  C31422029  -0.112   1.959   8.099  0.4150 -0.1439 -0.6302
  190SLPC  H14X22030  -0.104   1.900   8.006  2.0043 -1.0896  0.0959
  190SLPC  H14Y22031  -0.217   1.936   8.127  1.3112 -3.3168  0.2933
  190SLPC  C31522032  -0.020   1.901   8.204 -0.1197  1.1161 -0.6621
  190SLPC  H15X22033   0.013   1.973   8.281 -0.8538  0.7687 -0.0125
  190SLPC  H15Y22034   0.073   1.865   8.154 -1.9915 -1.1738 -2.6045
  190SLPC  C31622035  -0.088   1.777   8.267  0.2808  0.3052  0.3497
  190SLPC  H16X22036  -0.099   1.699   8.188 -0.6518  1.0437 -0.2514
  190SLPC  H16Y22037  -0.188   1.802   8.308 -1.0584 -1.2734 -1.8460
  190SLPC  C31722038   0.014   1.726   8.376  0.5826 -0.3326  0.7904
  190SLPC  H17X22039   0.033   1.802   8.455 -0.4049 -1.3515  2.0378
  190SLPC  H17Y22040   0.111   1.709   8.325  0.1743 -0.3305 -0.0038
  190SLPC  C31822041  -0.032   1.601   8.446  0.9684 -0.2687  0.0646
  190SLPC  H18X22042  -0.026   1.515   8.376  0.7345 -0.5131  0.3414
  190SLPC  H18Y22043  -0.135   1.613   8.487  2.0336 -0.0124  2.7372
  190SLPC  H18Z22044   0.045   1.582   8.523  0.3185 -1.2592  0.4840
  191SLPC     N22045   0.974   4.701   5.822  0.2175 -0.8311 -0.0242
  191SLPC   C1322046   0.979   4.665   5.680 -0.0644 -0.5822 -0.1997
  191SLPC  H13A22047   1.033   4.575   5.658 -0.7762 -1.4475  1.4926
  191SLPC  H13B22048   0.879   4.659   5.638  0.0720  1.8170 -0.9423
  191SLPC  H13C22049   1.035   4.741   5.627 -0.0140  0.4414  1.2912
  191SLPC   C1422050   0.887   4.819   5.834 -0.3726 -0.2094  0.5169
  191SLPC  H14A22051   0.930   4.902   5.780  1.7689 -0.8359  1.2272
  191SLPC  H14B22052   0.785   4.790   5.812 -0.3064 -0.8165  1.0336
  191SLPC  H14C22053   0.887   4.841   5.939  0.1919  0.7790  0.3232
  191SLPC   C1522054   1.111   4.740   5.872 -0.1662  0.0417  0.5123
  191SLPC  H15A22055   1.146   4.825   5.816 -1.4294  1.6756  2.1074
  191SLPC  H15B22056   1.111   4.769   5.976 -0.2389 -0.8709  0.7687
  191SLPC  H15C22057   1.173   4.652   5.860  1.9751  1.4458  0.9622
  191SLPC   C1222058   0.933   4.579   5.909 -0.0203 -0.2623  0.3348
  191SLPC  H12A22059   1.010   4.504   5.910 -0.9074 -1.2252 -1.6106
  191SLPC  H12B22060   0.846   4.534   5.863 -0.2888 -1.7454  2.2357
  191SLPC   C1122061   0.883   4.606   6.056 -0.1586  0.3183  0.2996
  191SLPC  H11A22062   0.975   4.650   6.101  0.8095 -2.0385  0.6762
  191SLPC  H11B22063   0.857   4.519   6.119 -0.2392  0.3646  0.3295
  191SLPC     P22064   0.623   4.668   6.036  0.4567  0.7040  0.2059
  191SLPC   O1322065   0.563   4.797   5.999 -0.2390  0.1028  0.1209
  191SLPC   O1422066   0.602   4.550   5.949 -0.3130  0.4106 -0.0569
  191SLPC   O1222067   0.777   4.704   6.058 -0.3066  0.4334  0.3751
  191SLPC   O1122068   0.572   4.631   6.176 -0.1637  0.0279 -0.2941
  191SLPC    C122069   0.433   4.619   6.205 -0.2161  0.5879 -0.1214
  191SLPC    HA22070   0.380   4.717   6.198  0.2208  0.7154 -1.8097
  191SLPC    HB22071   0.398   4.550   6.126  0.6315 -1.7070  1.4767
  191SLPC    C222072   0.414   4.566   6.350  0.0243 -0.2952 -0.3604
  191SLPC    HS22073   0.304   4.562   6.370  0.1492  0.4365  0.5027
  191SLPC   O2122074   0.475   4.649   6.452  0.1697  0.3891 -0.1696
  191SLPC   C2122075   0.418   4.772   6.472  0.2167 -0.7758 -0.1300
  191SLPC   O2222076   0.316   4.806   6.419 -0.6499  0.0252  0.5773
  191SLPC   C2222077   0.498   4.861   6.568 -0.2541 -0.3779  0.2844
  191SLPC   H2R22078   0.606   4.849   6.546 -0.0627  2.0891 -0.2053
  191SLPC   H2S22079   0.469   4.968   6.562  0.7336 -0.0588  1.0842
  191SLPC    C322080   0.469   4.422   6.371 -0.2370 -0.2448  0.0772
  191SLPC    HX22081   0.579   4.416   6.352  0.3811  0.0896  3.1651
  191SLPC    HY22082   0.418   4.361   6.294  2.0600 -2.0191 -0.1032
  191SLPC   O3122083   0.447   4.378   6.505 -0.1432 -0.3060 -0.1835
  191SLPC   C3122084   0.329   4.323   6.528  0.7136 -0.4120 -0.3014
  191SLPC   O3222085   0.237   4.318   6.445  0.0711  0.0873  0.1454
  191SLPC   C3222086   0.311   4.282   6.670  0.4228 -0.3724 -0.0323
  191SLPC   H2X22087   0.277   4.369   6.730 -2.2213 -0.4009 -1.4284
  191SLPC   H2Y22088   0.414   4.258   6.705  1.7402  1.8858 -2.1636
  191SLPC   C2322089   0.476   4.820   6.711 -0.0353  0.0048  0.3646
  191SLPC   H3R22090   0.539   4.730   6.727 -0.0340  0.0172  0.4280
  191SLPC   H3S22091   0.371   4.789   6.726 -1.0242  2.3871 -1.3811
  191SLPC   C2422092   0.521   4.928   6.808  0.2785  0.6374  0.4649
  191SLPC   H4R22093   0.452   5.015   6.800  0.3041  0.6439  0.3173
  191SLPC   H4S22094   0.620   4.959   6.770 -0.3483  1.5488 -0.4448
  191SLPC   C2522095   0.524   4.890   6.956  0.1896 -0.1941  0.1487
  191SLPC   H5R22096   0.587   4.799   6.970  0.0109 -0.6828 -2.1365
  191SLPC   H5S22097   0.422   4.873   6.997 -0.0735 -0.6060 -0.6731
  191SLPC   C2622098   0.580   5.010   7.035  0.1383 -0.8809  1.2557
  191SLPC   H6R22099   0.496   5.082   7.026  1.2508  0.3120  0.0639
  191SLPC   H6S22100   0.668   5.062   6.991  1.6453 -1.3386  3.6118
  191SLPC   C2722101   0.604   4.995   7.181  0.3671  0.0340 -0.1292
  191SLPC   H7R22102   0.668   4.913   7.219 -0.9180 -0.7924  0.2650
  191SLPC   H7S22103   0.511   4.987   7.241  1.2314 -1.6871  1.0208
  191SLPC   C2822104   0.666   5.122   7.255  0.0636  0.4353  0.0900
  191SLPC   H8R22105   0.773   5.126   7.228  0.8732  2.3734  3.2798
  191SLPC   H8S22106   0.660   5.095   7.363 -1.1825 -0.4716 -0.1889
  191SLPC   C2922107   0.586   5.243   7.228 -0.1718 -0.4320 -0.5187
  191SLPC   H9R22108   0.597   5.292   7.130 -6.6691 -0.0732 -1.3138
  191SLPC  C21022109   0.487   5.297   7.310 -0.1589 -0.3552  0.5402
  191SLPC  H10R22110   0.441   5.392   7.281 -0.9520 -0.9598 -0.2146
  191SLPC  C21122111   0.437   5.253   7.446 -0.7115 -0.0749  0.4676
  191SLPC  H11R22112   0.503   5.174   7.487  2.5879  0.5434 -3.2717
  191SLPC  H11S22113   0.334   5.211   7.443 -0.1828 -1.3234 -0.7849
  191SLPC  C21222114   0.417   5.377   7.533  0.2386  0.4819 -0.0092
  191SLPC  H12R22115   0.346   5.456   7.504 -0.1057  0.2954  0.3192
  191SLPC  C21322116   0.494   5.391   7.648 -0.9114  0.1885 -0.5664
  191SLPC  H13R22117   0.490   5.486   7.705  2.6611  0.6387 -0.9869
  191SLPC  C21422118   0.594   5.298   7.708  0.2426 -0.0532  0.1513
  191SLPC  H14R22119   0.701   5.330   7.704 -0.4396  2.1394 -1.3086
  191SLPC  H14S22120   0.594   5.206   7.646 -1.0015  0.6503 -0.9050
  191SLPC  C21522121   0.540   5.254   7.847 -0.1102 -0.3944 -0.8552
  191SLPC  H15R22122   0.602   5.168   7.879 -0.3279 -0.3939 -0.4321
  191SLPC  H15S22123   0.432   5.225   7.842 -0.9140  2.2087  0.6709
  191SLPC  C21622124   0.565   5.349   7.965 -0.1904  0.0131 -0.1355
  191SLPC  H16R22125   0.519   5.447   7.942  0.5686  0.2842 -0.5491
  191SLPC  H16S22126   0.673   5.376   7.971 -0.6511  1.7016  0.7281
  191SLPC  C21722127   0.538   5.300   8.112  0.0493  0.0886 -0.0909
  191SLPC  H17R22128   0.602   5.212   8.138 -1.6940 -0.9778  0.6932
  191SLPC  H17S22129   0.432   5.269   8.120  0.2268 -0.7822 -1.0194
  191SLPC  C21822130   0.575   5.406   8.215  0.1193  0.9225  0.3432
  191SLPC  H18R22131   0.685   5.413   8.202  0.3685  1.1885  2.3943
  191SLPC  H18S22132   0.554   5.387   8.322 -3.4991  0.3287 -0.4201
  191SLPC  H18T22133   0.535   5.507   8.196 -1.3907 -0.0275 -1.7499
  191SLPC   C3322134   0.218   4.158   6.687  0.3677  0.4536  0.2354
  191SLPC   H3X22135   0.239   4.087   6.605 -0.5665  0.0654  0.3224
  191SLPC   H3Y22136   0.110   4.184   6.677  0.2676  0.3927  1.1245
  191SLPC   C3422137   0.240   4.073   6.812  0.7968  0.0595  0.2543
  191SLPC   H4X22138   0.349   4.051   6.814  1.1408  1.3254 -2.4900
  191SLPC   H4Y22139   0.191   3.975   6.796  0.5876  0.1044  0.6130
  191SLPC   C3522140   0.196   4.139   6.943 -0.5369 -0.0542 -0.4341
  191SLPC   H5X22141   0.088   4.120   6.959 -0.2287 -0.5839  1.0457
  191SLPC   H5Y22142   0.208   4.249   6.950  1.0473 -0.2372 -0.1788
  191SLPC   C3622143   0.262   4.071   7.061 -0.1330  0.5309 -0.3858
  191SLPC   H6X22144   0.369   4.077   7.032  0.2642  0.5509  1.0556
  191SLPC   H6Y22145   0.223   3.969   7.081  1.2464  0.4488  2.0659
  191SLPC   C3722146   0.235   4.152   7.191  0.0981 -0.5497  0.7431
  191SLPC   H7X22147   0.240   4.262   7.174 -2.3545 -0.6480 -0.8196
  191SLPC   H7Y22148   0.317   4.126   7.261 -0.2760 -2.2400  0.5594
  191SLPC   C3822149   0.105   4.114   7.255 -0.3425 -0.1813  0.1360
  191SLPC   H8X22150   0.111   4.022   7.317 -0.1381 -1.1670 -1.2980
  191SLPC   H8Y22151   0.036   4.107   7.168  0.2434  1.1385 -0.4510
  191SLPC   C3922152   0.042   4.232   7.339 -0.5447 -0.2981 -0.1882
  191SLPC   H9X22153  -0.065   4.207   7.355 -0.2779 -1.4102 -0.0805
  191SLPC   H9Y22154   0.048   4.329   7.285  0.6977 -0.3666 -0.1873
  191SLPC  C31022155   0.115   4.257   7.479 -0.4926  0.8577 -0.6498
  191SLPC  H10X22156   0.223   4.267   7.455 -0.5943 -0.1278 -1.5666
  191SLPC  H10Y22157   0.104   4.161   7.533 -2.7977  1.3356 -0.2203
  191SLPC  C31122158   0.064   4.374   7.559 -0.0687  0.4031  0.1497
  191SLPC  H11X22159   0.102   4.359   7.663 -1.2558  0.3558  0.5839
  191SLPC  H11Y22160  -0.044   4.349   7.568 -0.5759  2.1989 -0.7584
  191SLPC  C31222161   0.092   4.511   7.494  0.3644  0.7257  0.8053
  191SLPC  H12X22162   0.076   4.499   7.385 -0.5319  2.6474  0.7162
  191SLPC  H12Y22163   0.198   4.538   7.516  0.0264  1.6090  1.3782
  191SLPC  C31322164  -0.001   4.621   7.556 -0.0591  0.3406  0.0032
  191SLPC  H13X22165   0.029   4.715   7.506 -2.0945  0.6471 -0.6882
  191SLPC  H13Y22166   0.035   4.626   7.662 -0.9985 -1.0672  0.4021
  191SLPC  C31422167  -0.152   4.597   7.553 -0.5276 -0.7173  0.3840
  191SLPC  H14X22168  -0.184   4.525   7.632  2.3253  1.0283  3.2453
  191SLPC  H14Y22169  -0.174   4.545   7.457  0.6176 -4.1270  1.8613
  191SLPC  C31522170  -0.231   4.727   7.571  0.4017  0.2952  0.0925
  191SLPC  H15X22171  -0.205   4.786   7.662 -2.7181  0.7155  0.7807
  191SLPC  H15Y22172  -0.335   4.693   7.592  0.6518  0.2185  1.2971
  191SLPC  C31622173  -0.241   4.825   7.450  0.4599 -0.4103  0.8198
  191SLPC  H16X22174  -0.283   4.752   7.377 -0.3176  2.4097 -1.6527
  191SLPC  H16Y22175  -0.146   4.846   7.397 -0.2774 -3.2296 -1.7888
  191SLPC  C31722176  -0.323   4.946   7.465 -0.5107 -0.2593  0.1018
  191SLPC  H17X22177  -0.266   5.017   7.529  0.2800 -0.6257 -0.1952
  191SLPC  H17Y22178  -0.426   4.931   7.505 -1.3165  0.8188 -1.5324
  191SLPC  C31822179  -0.337   5.023   7.323 -0.1743  0.4613 -0.0093
  191SLPC  H18X22180  -0.394   4.958   7.253  2.0747 -1.2752 -0.2609
  191SLPC  H18Y22181  -0.240   5.051   7.277 -0.9760  1.3656 -1.1925
  191SLPC  H18Z22182  -0.401   5.114   7.333  0.6476  1.0879 -0.4279
  192SLPC     N22183   0.426   5.132   6.131 -0.1888 -0.4318 -0.0633
  192SLPC   C1322184   0.574   5.083   6.128  0.2657  0.0389 -0.7305
  192SLPC  H13A22185   0.641   5.156   6.085  1.1327 -0.6138 -0.4999
  192SLPC  H13B22186   0.608   5.064   6.228 -1.7468 -0.7642 -0.1700
  192SLPC  H13C22187   0.580   4.997   6.063  1.9736 -0.1052 -0.4058
  192SLPC   C1422188   0.335   5.027   6.178 -0.7367  0.0093  0.0737
  192SLPC  H14A22189   0.368   4.976   6.267 -0.6595 -0.4108 -0.1917
  192SLPC  H14B22190   0.234   5.062   6.192 -0.5498 -0.1127  1.7510
  192SLPC  H14C22191   0.323   4.961   6.093 -2.7125 -1.6633  1.6164
  192SLPC   C1522192   0.390   5.167   5.991  0.1477  0.2528 -0.3664
  192SLPC  H15A22193   0.437   5.256   5.951 -2.2071  0.6606 -2.3872
  192SLPC  H15B22194   0.411   5.085   5.923  0.0006  0.6433 -0.8885
  192SLPC  H15C22195   0.284   5.191   5.989  0.2070  0.8368  2.4654
  192SLPC   C1222196   0.420   5.251   6.222  0.4636 -0.3216  0.0009
  192SLPC  H12A22197   0.322   5.296   6.212  0.5844  0.5351  2.2862
  192SLPC  H12B22198   0.489   5.328   6.194 -2.1334  2.5682  1.2106
  192SLPC   C1122199   0.449   5.227   6.367 -0.6932 -0.2225 -0.0528
  192SLPC  H11A22200   0.366   5.161   6.402 -0.9152  0.6713  1.1483
  192SLPC  H11B22201   0.441   5.324   6.421 -0.2939 -0.0651 -0.2763
  192SLPC     P22202   0.709   5.265   6.387 -0.3968  0.2923 -0.0307
  192SLPC   O1322203   0.830   5.178   6.382 -0.3245 -0.1498 -0.6233
  192SLPC   O1422204   0.696   5.371   6.285  0.0426  0.3215  0.3735
  192SLPC   O1222205   0.581   5.170   6.391  0.0642 -0.1317 -0.3834
  192SLPC   O1122206   0.718   5.324   6.537  0.1066 -0.0097 -0.3935
  192SLPC    C122207   0.667   5.241   6.638 -0.5500 -0.3499  0.1717
  192SLPC    HA22208   0.558   5.230   6.625 -0.4793  0.2718 -0.9634
  192SLPC    HB22209   0.712   5.139   6.633 -0.8329 -0.4097 -1.1760
  192SLPC    C222210   0.693   5.305   6.785  0.6850 -0.3013 -0.2384
  192SLPC    HS22211   0.664   5.239   6.870 -4.6356  0.1617 -1.4785
  192SLPC   O2122212   0.616   5.427   6.793 -0.5444 -0.1531 -0.5247
  192SLPC   C2122213   0.490   5.405   6.802  0.2030  0.2057 -1.1336
  192SLPC   O2222214   0.437   5.298   6.821 -0.7992  0.4291 -0.7052
  192SLPC   C2222215   0.397   5.524   6.814 -0.0493 -0.2880 -0.7082
  192SLPC   H2R22216   0.387   5.566   6.712  0.1203  5.1393  1.2992
  192SLPC   H2S22217   0.293   5.489   6.831  0.0034 -0.0992  0.0560
  192SLPC    C322218   0.846   5.327   6.797  0.4017 -0.0698 -0.3055
  192SLPC    HX22219   0.871   5.416   6.735 -0.9899 -0.1138 -0.9483
  192SLPC    HY22220   0.898   5.237   6.758  0.8782 -0.4402  1.1439
  192SLPC   O3122221   0.891   5.348   6.932 -0.0701 -0.6121 -0.1851
  192SLPC   C3122222   0.942   5.239   6.992 -0.6202  0.5651  0.0197
  192SLPC   O3222223   0.945   5.124   6.946 -0.4133  0.9006 -0.2834
  192SLPC   C3222224   1.017   5.296   7.117  0.0710 -0.4270 -0.4841
  192SLPC   H2X22225   0.938   5.311   7.194  0.7454 -0.4265  0.2189
  192SLPC   H2Y22226   1.058   5.395   7.090  0.9004 -0.4577  0.5979
  192SLPC   C2322227   0.438   5.628   6.926  0.6564 -0.5839  0.3280
  192SLPC   H3R22228   0.376   5.719   6.910  0.0978 -1.2480 -1.4223
  192SLPC   H3S22229   0.542   5.662   6.907  0.3836  0.4457  0.6303
  192SLPC   C2422230   0.422   5.579   7.068 -0.7739 -0.2792  0.8828
  192SLPC   H4R22231   0.511   5.512   7.077 -0.8182 -0.7931 -1.8226
  192SLPC   H4S22232   0.323   5.531   7.083 -1.6888  1.5589  0.8697
  192SLPC   C2522233   0.431   5.698   7.160 -0.3304 -0.3372  0.6203
  192SLPC   H5R22234   0.343   5.756   7.124 -0.2031  0.2104  1.1847
  192SLPC   H5S22235   0.517   5.763   7.133 -1.5300  0.1320 -2.2042
  192SLPC   C2622236   0.427   5.663   7.309 -0.0287  0.3375  0.3430
  192SLPC   H6R22237   0.516   5.605   7.341  0.2692  1.5935  1.8612
  192SLPC   H6S22238   0.336   5.602   7.329 -0.3735  0.9239  0.5895
  192SLPC   C2722239   0.431   5.792   7.392 -0.2340 -0.0973 -0.5764
  192SLPC   H7R22240   0.351   5.862   7.360  0.0124 -0.0772 -1.1396
  192SLPC   H7S22241   0.530   5.841   7.383 -0.8529  1.5431  1.2115
  192SLPC   C2822242   0.407   5.771   7.545 -0.4262 -0.4390 -0.1619
  192SLPC   H8R22243   0.484   5.701   7.583  1.7478  2.2766  0.6293
  192SLPC   H8S22244   0.307   5.726   7.562 -1.0536  2.2003  3.7033
  192SLPC   C2922245   0.402   5.903   7.624 -0.0532 -0.0379 -0.4132
  192SLPC   H9R22246   0.403   6.002   7.576 -0.7865  0.4212  0.4899
  192SLPC  C21022247   0.413   5.910   7.757  0.2824  0.2424 -0.0753
  192SLPC  H10R22248   0.420   6.001   7.818 -1.2590 -1.9955  3.6155
  192SLPC  C21122249   0.444   5.795   7.851 -0.3991 -0.0298 -0.5173
  192SLPC  H11R22250   0.417   5.702   7.797  0.0759 -0.4901  0.0272
  192SLPC  H11S22251   0.376   5.793   7.939  0.1750 -0.4877 -0.0719
  192SLPC  C21222252   0.585   5.783   7.904  0.1161 -0.6639 -0.4516
  192SLPC  H12R22253   0.650   5.727   7.834 -0.5384 -1.7348 -0.2213
  192SLPC  C21322254   0.631   5.824   8.029  0.1422 -0.0481 -0.2570
  192SLPC  H13R22255   0.736   5.812   8.057 -0.1342  1.0978  1.3502
  192SLPC  C21422256   0.541   5.904   8.124 -0.1566 -0.3067 -0.4146
  192SLPC  H14R22257   0.459   5.953   8.068 -1.3883 -0.5352  1.1423
  192SLPC  H14S22258   0.600   5.976   8.185 -0.4436 -2.0155  1.9365
  192SLPC  C21522259   0.480   5.803   8.224 -0.4531  0.3075  0.7631
  192SLPC  H15R22260   0.559   5.761   8.290  0.3571  1.0413  0.2663
  192SLPC  H15S22261   0.431   5.730   8.156  0.3502  1.0488 -0.6342
  192SLPC  C21622262   0.374   5.854   8.323  0.6090 -0.2251 -0.2385
  192SLPC  H16R22263   0.421   5.935   8.383  1.4878 -1.4019  0.6574
  192SLPC  H16S22264   0.350   5.780   8.402  1.9908 -0.4555 -0.0240
  192SLPC  C21722265   0.247   5.916   8.269  0.0929 -1.4236 -0.3593
  192SLPC  H17R22266   0.170   5.953   8.340  0.9218  0.6915 -0.5162
  192SLPC  H17S22267   0.265   6.007   8.208  0.0682  0.2670  2.0653
  192SLPC  C21822268   0.173   5.808   8.186  0.5464 -0.3200  1.2164
  192SLPC  H18R22269   0.132   5.732   8.256 -0.2799 -0.2655  0.8020
  192SLPC  H18S22270   0.228   5.768   8.098  0.4583  1.8758  0.1236
  192SLPC  H18T22271   0.090   5.860   8.132  1.1313 -0.1312  0.4965
  192SLPC   C3322272   1.113   5.199   7.177 -0.0250  0.6119  0.0787
  192SLPC   H3X22273   1.204   5.196   7.113  0.1592 -2.2448  0.4104
  192SLPC   H3Y22274   1.072   5.096   7.185  1.1834  0.2072  1.2916
  192SLPC   C3422275   1.151   5.239   7.325 -0.7438 -0.3742  0.0964
  192SLPC   H4X22276   1.160   5.348   7.345  0.2650 -0.7090  1.6377
  192SLPC   H4Y22277   1.250   5.192   7.344 -1.4934 -2.1403 -0.2222
  192SLPC   C3522278   1.059   5.183   7.433 -0.4642  0.1200  0.0786
  192SLPC   H5X22279   1.055   5.072   7.436 -3.9039  0.1615 -0.9024
  192SLPC   H5Y22280   0.954   5.212   7.415  0.0833  1.0816 -1.7607
  192SLPC   C3622281   1.109   5.232   7.569  0.4944  0.0689  1.4370
  192SLPC   H6X22282   1.129   5.342   7.568  0.6158  0.0389  0.2868
  192SLPC   H6Y22283   1.207   5.181   7.578  1.5576  1.8238  0.0099
  192SLPC   C3722284   1.019   5.208   7.694  0.4330 -0.0328 -0.2385
  192SLPC   H7X22285   0.989   5.101   7.690 -0.2044  0.1624 -0.7834
  192SLPC   H7Y22286   0.932   5.277   7.683  1.3897  0.9345 -1.9229
  192SLPC   C3822287   1.088   5.233   7.827  0.2905 -0.3751 -0.5071
  192SLPC   H8X22288   1.123   5.338   7.830 -1.6350  0.2478  0.9684
  192SLPC   H8Y22289   1.179   5.169   7.828 -0.0129 -0.8065 -0.2261
  192SLPC   C3922290   0.998   5.194   7.946  0.6145  0.4114 -0.5052
  192SLPC   H9X22291   0.932   5.107   7.928 -0.9053  1.5420 -0.5059
  192SLPC   H9Y22292   0.928   5.280   7.960  0.2848 -0.1696  1.5860
  192SLPC  C31022293   1.059   5.164   8.085  0.9474  0.5941  0.5287
  192SLPC  H10X22294   1.107   5.260   8.114 -0.9032  1.4759  0.7614
  192SLPC  H10Y22295   1.136   5.086   8.101  1.7306  1.5429  1.5552
  192SLPC  C31122296   0.935   5.143   8.185 -0.3489 -0.2345 -1.1124
  192SLPC  H11X22297   0.881   5.052   8.153 -0.6591 -0.6663  0.5973
  192SLPC  H11Y22298   0.861   5.225   8.176 -0.1258  0.0809 -0.1284
  192SLPC  C31222299   0.982   5.116   8.336  0.5006  0.5379  0.5926
  192SLPC  H12X22300   1.064   5.189   8.353  2.3029 -1.5277  1.0721
  192SLPC  H12Y22301   1.015   5.010   8.343  3.1860  1.2805  0.1538
  192SLPC  C31322302   0.872   5.143   8.444  0.0688  0.5404  0.8764
  192SLPC  H13X22303   0.849   5.251   8.440 -1.8341  0.1333  0.0344
  192SLPC  H13Y22304   0.909   5.122   8.546  1.2081  1.1901  0.6018
  192SLPC  C31422305   0.742   5.057   8.423 -0.0387  0.0611 -0.4103
  192SLPC  H14X22306   0.759   4.949   8.438  1.7037  0.3479 -0.2902
  192SLPC  H14Y22307   0.713   5.060   8.315  1.1717 -1.5492 -0.7920
  192SLPC  C31522308   0.622   5.110   8.500 -0.2073  0.4864  0.4393
  192SLPC  H15X22309   0.610   5.220   8.487 -0.0147  0.3781 -0.7195
  192SLPC  H15Y22310   0.664   5.097   8.602 -1.1445  0.3670  0.8197
  192SLPC  C31622311   0.486   5.045   8.486  0.1014  0.1967  0.2296
  192SLPC  H16X22312   0.463   5.045   8.377  0.4864 -0.5875  0.1402
  192SLPC  H16Y22313   0.406   5.094   8.545 -0.3420 -0.9522  0.6076
  192SLPC  C31722314   0.486   4.897   8.539  0.6829  0.7297 -0.9730
  192SLPC  H17X22315   0.584   4.844   8.534 -0.2324 -0.8797 -2.3263
  192SLPC  H17Y22316   0.428   4.846   8.459  0.6526 -1.0299  0.1448
  192SLPC  C31822317   0.430   4.897   8.683  0.7211  0.2088  0.8044
  192SLPC  H18X22318   0.407   4.797   8.726 -0.6128  0.4267  0.6260
  192SLPC  H18Y22319   0.336   4.956   8.686 -0.8564 -2.2591  4.1833
  192SLPC  H18Z22320   0.497   4.949   8.755  2.1137  0.4408 -0.6257
  193SOD    SOD22321   1.330   4.887   1.547  0.7798  0.2234  0.2497
  194SOD    SOD22322   0.726   4.862   4.638 -0.1340  0.3138 -0.6233
  195SOD    SOD22323   1.011   0.582  12.911 -0.2898  0.4854  0.0905
  196SOD    SOD22324   1.019   5.187   5.054  0.4685 -0.3242  0.1020
  197SOD    SOD22325   5.753   5.658  15.298 -0.4709  0.1539  0.0710
  198SOD    SOD22326   0.128   6.744  11.997 -0.3748  0.0555 -0.5647
  199SOD    SOD22327   0.638   0.947   6.430  0.5267  0.3016  0.1856
  200SOD    SOD22328   0.640   2.077   2.834  0.2411  0.3699  0.0767
  201SOD    SOD22329   3.799   3.513  11.317 -0.0592 -0.2337 -0.9732
  202SOD    SOD22330   5.475   0.622  11.158 -0.2984  0.1109  0.3929
  203SOD    SOD22331   2.700   2.279   0.855 -0.2823 -0.2107  0.0428
  204SOD    SOD22332   0.631   3.376  15.530 -0.0981  0.1029  0.3121
  205SOD    SOD22333   2.290   6.699  16.766 -0.2381 -0.4575 -0.2134
  206SOD    SOD22334   3.252   4.255  11.369 -0.4791 -0.5980 -0.0503
  207SOD    SOD22335   4.060   5.437   0.693 -0.3311 -0.0638  0.5481
  208SOD    SOD22336   3.571   6.698   2.044  0.0061  0.3515  0.5460
  209SOD    SOD22337   2.750   5.966   4.864 -0.0462  0.3127 -0.2703
  210SOD    SOD22338   4.011   2.497   3.868  0.0356  0.0676  0.5558
  211SOD    SOD22339   4.221   0.178  15.317  0.3448 -0.1721  0.5141
  212SOD    SOD22340   0.484   5.939  12.696  0.2216 -0.3509  0.2697
  213SOD    SOD22341   4.076   0.608  17.110 -0.4906 -0.5535  0.4702
  214SOD    SOD22342   2.751   1.826   6.665  0.6002 -0.4378  0.4588
  215SOD    SOD22343   4.304   5.284  16.064  0.5509  0.1725 -0.4460
  216SOD    SOD22344   5.343   4.710  14.612 -0.2756 -0.4957  0.1926
  217SOD    SOD22345   3.784   1.577   2.681  0.2879 -0.3644  0.3058
  218SOD    SOD22346   4.134   1.403   6.672  0.0981 -0.0145 -0.1799
  219SOD    SOD22347   1.266   6.165  14.874 -0.0242 -0.0380  0.0746
  220SOD    SOD22348   5.387   2.197  11.997 -0.3596  0.0747  0.3760
  221SOD    SOD22349   4.441   1.134   5.781 -0.0809  0.0422 -0.2517
  222SOD    SOD22350   1.770   6.370  11.074 -0.5366  0.1948 -0.3031
  223SOD    SOD22351   3.366   2.829  11.472 -0.3935  0.5964  0.1889
  224SOD    SOD22352   3.404   5.168   5.444 -0.3754 -0.5608  0.1432
  225SOD    SOD22353   5.050   3.417  13.877  0.1209  0.2162  0.0236
  226SOD    SOD22354   6.631   4.042  16.305 -0.2970 -0.2262 -0.3630
  227SOD    SOD22355   1.634   6.274   3.653 -0.2797  0.0248  0.2002
  228SOD    SOD22356   5.564   4.075   6.177 -0.2894 -0.2308  0.7527
  229SOD    SOD22357   3.877   1.454  11.700 -0.4564 -0.2502  0.5327
  230SOD    SOD22358   3.404   6.683   5.382 -0.1109 -0.0476 -0.1263
  231SOD    SOD22359   0.384   4.436  12.370  0.0123  0.0096  0.4472
  232SOD    SOD22360   1.898   2.102   0.083  1.1497 -0.2458 -0.1668
  233SOD    SOD22361   2.286   5.311   2.776 -0.0353 -0.0175 -0.3736
  234SOD    SOD22362   6.615   3.788   3.364  0.0224  0.3800  0.1144
  235SOD    SOD22363   2.559   1.437  11.815 -0.0390 -0.2836  0.0455
  236SOD    SOD22364   1.997   0.475  15.419 -0.6385  0.2879  0.3541
  237SOD    SOD22365   5.028   2.346  10.528  0.0282  0.3479  0.9444
  238SOD    SOD22366   2.191   3.643  12.445 -0.4681 -0.1668 -0.1988
  239SOD    SOD22367   5.830   6.328   3.080 -0.4177  0.3583  0.2040
  240SOD    SOD22368   0.066   6.238   5.225  0.1796 -0.6851 -0.6096
  241SOD    SOD22369   6.272   6.004   3.299 -0.2653 -0.4038 -0.0004
  242SOD    SOD22370   5.579   1.108   4.306  0.0518 -0.0589  0.1166
  243SOD    SOD22371   5.237   5.614   6.169 -0.4374  0.0791  0.4984
  244SOD    SOD22372   0.059   4.763   5.931 -0.2043 -0.4844  0.1470
  245SOD    SOD22373   6.175   2.947  11.285 -0.1627  0.0783 -0.6842
  246SOD    SOD22374   5.876   0.220   4.509  0.2958 -0.3868  0.3915
  247SOD    SOD22375   0.728   4.192  11.775  0.1020 -0.0471 -0.4172
  248SOD    SOD22376   0.136   4.188  10.527 -0.0176 -0.0862  0.1503
  249SOD    SOD22377   1.099   0.871   5.926  0.5204 -0.2788  0.5739
  250SOD    SOD22378   1.881   3.743  15.794 -1.0120  0.9134  0.1649
  251SOD    SOD22379   5.276   2.511   5.294 -0.2003 -0.2192  0.3522
  252SOD    SOD22380   6.512   1.663  13.340 -0.0380  0.2048  0.4072
  253SOD    SOD22381   5.337   3.117   2.719 -0.0308  0.1262  0.0741
  254SOD    SOD22382   2.265   3.450  11.088 -0.0799 -0.1675 -0.8084
  255SOD    SOD22383   1.036   3.320   5.480 -0.4498  0.3625  0.2571
  256SOD    SOD22384   2.646   1.546  15.028  0.1898 -0.4990 -0.1215
  257SOD    SOD22385   6.328   2.093   6.178 -0.0436  0.6521  0.4377
  258SOD    SOD22386   5.538   3.658  11.993 -0.1177  0.1768  0.5917
  259SOD    SOD22387   1.174   6.207  11.267  0.5972  0.1887 -0.1725
  260SOD    SOD22388   4.415   0.481   1.306 -0.3739 -0.3815 -0.1052
  261SOD    SOD22389   4.147   6.486   1.684 -0.6405 -0.3890  0.4175
  262SOD    SOD22390   1.905   6.435   2.486  0.4533  0.2170 -0.2464
  263SOD    SOD22391   0.669   3.909   1.980  0.0749  0.1133  0.6964
  264SOD    SOD22392   4.143   3.377  16.692 -0.1302 -0.2267  0.0659
  265SOD    SOD22393   5.217   3.054   2.143 -0.1109 -0.4949 -0.2155
  266CLA    CLA22394   3.020   5.638   5.252 -0.1930  0.3483  0.0897
  267CLA    CLA22395   0.928   6.460  16.709 -0.1038 -0.3077  0.0194
  268CLA    CLA22396   6.215   3.977   3.308 -0.3844 -0.2463  0.1499
  269CLA    CLA22397   0.536   4.743   0.244 -0.1560 -0.1646 -0.3494
  270CLA    CLA22398   0.224   2.214  12.665  0.1820 -0.3854  0.2408
  271CLA    CLA22399   2.601   0.816  16.400  0.2955  0.0851 -0.5239
  272CLA    CLA22400   4.342   3.457  15.077 -0.4858 -0.0424 -0.5068
  273CLA    CLA22401   4.579   4.137   0.755 -0.3237 -0.0477  0.1521
  274CLA    CLA22402   0.708   0.207   1.348  0.2785 -0.2922 -0.4679
  275CLA    CLA22403   2.775   1.955  11.317  0.1332 -0.4507  0.2348
  276CLA    CLA22404   4.405   4.711  15.505 -0.0993  0.3482 -0.2879
  277CLA    CLA22405   5.072   6.206   4.690  0.1581  0.3396 -0.3153
  278CLA    CLA22406   0.156   4.337  11.353 -0.1000  0.5113 -0.0481
  279CLA    CLA22407   0.042   2.918  12.840 -0.1801 -0.3280 -0.2763
  280CLA    CLA22408   3.227   3.170   3.710 -0.0583 -0.1446  0.0425
  281CLA    CLA22409   4.920   6.669  15.418 -0.2984 -0.1694 -0.1909
  282CLA    CLA22410   5.061   0.435   3.723  0.1092 -0.0049 -0.3034
  283CLA    CLA22411   1.087   5.215  15.507  0.0488 -0.3751  0.0410
  284CLA    CLA22412   0.040   6.508  15.492 -0.0309  0.2095 -0.3555
  285CLA    CLA22413   4.261   0.007   2.027  0.3258 -0.1345  0.5275
  286CLA    CLA22414   5.509   2.211  12.228  0.0526  0.0519 -0.1075
  287CLA    CLA22415   4.569   1.621  15.805 -0.3766 -0.1367 -0.2135
  288CLA    CLA22416   0.290   3.190  14.528  0.4064 -0.0520  0.1545
  289CLA    CLA22417   0.039   3.932   4.491 -0.0486 -0.1869 -0.2711
  290CLA    CLA22418   6.329   2.549   1.092 -0.3564  0.0978  0.0616
  291CLA    CLA22419   5.375   4.158  12.361  0.1953 -0.0898  0.1121
  292CLA    CLA22420   0.475   6.640   5.240  0.1191  0.1941  0.1825
  293CLA    CLA22421   4.452   5.325   2.134 -0.2905 -0.6033 -0.1421
  294CLA    CLA22422   6.335   6.222   1.605  0.2262 -0.2942  0.1431
  295CLA    CLA22423   3.995   2.426   4.317  0.4428 -0.0771 -0.0492
  296CLA    CLA22424   4.164   5.115   0.738 -0.0328  0.0208 -0.4322
  297CLA    CLA22425   2.716   1.185  13.478  0.3072 -0.0641  0.2831
  298CLA    CLA22426   1.556   0.679  11.591  0.1441 -0.1708  0.2310
  299CLA    CLA22427   0.303   3.552  11.972  0.2777 -0.0032  0.4432
  300CLA    CLA22428   6.540   2.409  15.548  0.4704 -0.1295 -0.1326
  301CLA    CLA22429   3.747   0.243  15.813 -0.3398  0.1611 -0.2718
  302CLA    CLA22430   0.941   5.573  12.034 -0.0680 -0.0562 -0.4847
  303CLA    CLA22431   6.813   0.770   3.788  0.2533 -0.1460  0.2708
  304CLA    CLA22432   6.455   6.782  12.013 -0.2355 -0.5019 -0.2629
  305CLA    CLA22433   6.619   1.645   5.576 -0.3090 -0.2053 -0.5038
  306CLA    CLA22434   4.137   0.136   1.114  0.2014  0.0034  0.2674
  307CLA    CLA22435   0.829   4.308   5.637  0.0298 -0.0198 -0.1626
  308CLA    CLA22436   4.162   0.980   2.920 -0.0370 -0.3153  0.3206
  309CLA    CLA22437   6.531   5.221   3.118 -0.2620  0.5745  0.1615
  310CLA    CLA22438   3.371   2.523   3.316 -0.0087 -0.1177  0.2990
  311CLA    CLA22439   6.489   3.236   0.235 -0.4010 -0.0034 -0.0303
  312CLA    CLA22440   5.788   4.857  13.551 -0.2297  0.1519  0.1345
  313CLA    CLA22441   1.549   0.147   0.666  0.1605 -0.1258 -0.4305
  314CLA    CLA22442   2.294   5.982   4.071  0.1077  0.1909 -0.2674
  315CLA    CLA22443   0.459   0.265  14.116 -0.1553  0.0343  0.4172
  316CLA    CLA22444   3.609   4.547  16.042 -0.2882  0.2967 -0.0267
  317CLA    CLA22445   3.760   1.219   4.513 -0.3855 -0.1062  0.1270
  318CLA    CLA22446   6.193   4.770   2.284  0.0658 -0.2697 -0.3216
  319TIP3   OH222447   3.762   4.669  14.974  0.5828  0.1564  0.0032
  319TIP3    H122448   3.855   4.657  14.994  0.5912 -0.7518 -0.5239
  319TIP3    H222449   3.741   4.598  14.913  0.3091  2.3075 -2.4446
  320TIP3   OH222450   4.284   1.920   3.002 -0.4733 -0.1417  0.4538
  320TIP3    H122451   4.318   1.954   3.084 -1.2064  1.8876 -0.0677
  320TIP3    H222452   4.224   1.987   2.970  1.0871 -0.1089 -2.6088
  321TIP3   OH222453   4.680   5.669   3.408  0.0262 -0.1711  0.2696
  321TIP3    H122454   4.730   5.688   3.328  0.7667  0.6477  0.9147
  321TIP3    H222455   4.589   5.669   3.379  0.3156 -0.3962 -0.6745
  322TIP3   OH222456   3.185   5.912   0.313  0.4511  0.3420  0.3575
  322TIP3    H122457   3.163   5.839   0.371  1.2393 -0.1986 -0.0181
  322TIP3    H222458   3.225   5.870   0.237  3.1173  1.3079  1.1783
  323TIP3   OH222459   0.761   6.802   1.126 -0.6653 -0.4563 -0.3555
  323TIP3    H122460   0.762   6.834   1.217  0.8783  1.3254 -0.9784
  323TIP3    H222461   0.841   6.750   1.118 -0.5570 -0.2197 -0.8253
  324TIP3   OH222462   3.348   6.722   3.509  0.2655 -0.4715 -0.3063
  324TIP3    H122463   3.386   6.667   3.441 -0.9575 -0.4924 -0.9851
  324TIP3    H222464   3.256   6.694   3.515 -0.1937  0.9943 -0.1636
  325TIP3   OH222465   6.323   0.332  15.487 -0.6373  0.6612 -0.4186
  325TIP3    H122466   6.283   0.382  15.558  1.5960  0.4989  0.9964
  325TIP3    H222467   6.415   0.355  15.490 -0.2223 -0.6859 -2.1673
  326TIP3   OH222468   2.594   3.038  12.838 -0.3952 -0.1935 -0.2747
  326TIP3    H122469   2.504   3.015  12.814 -0.6099 -1.2875  1.4851
  326TIP3    H222470   2.602   3.011  12.929  1.5829  0.3210 -0.2737
  327TIP3   OH222471   2.151   3.617  12.981 -0.5606 -0.4325 -0.7016
  327TIP3    H122472   2.101   3.553  13.032  0.7408 -0.6760  0.3059
  327TIP3    H222473   2.216   3.650  13.043 -1.1153  1.7431 -1.2633
  328TIP3   OH222474   5.293   5.100   5.272  0.2647  0.7064 -0.2673
  328TIP3    H122475   5.343   5.172   5.312  2.2338  0.4640 -2.2040
  328TIP3    H222476   5.315   5.023   5.326  2.2254  0.5515 -1.2596
  329TIP3   OH222477   3.316   0.113   0.510 -0.4179  0.1781  0.5040
  329TIP3    H122478   3.236   0.115   0.561 -1.2892  1.4464 -0.8656
  329TIP3    H222479   3.332   0.205   0.487  1.3144 -0.0770  0.5880
  330TIP3   OH222480   6.405   0.126   5.579 -0.2488 -0.0397 -0.6493
  330TIP3    H122481   6.369   0.052   5.627  1.0986  0.0191  0.4636
  330TIP3    H222482   6.332   0.188   5.573 -0.9934 -0.8880 -0.4365
  331TIP3   OH222483   1.412   3.099   1.637 -0.2451 -0.4482 -0.0247
  331TIP3    H122484   1.439   3.078   1.547 -0.6942  2.4435 -0.8568
  331TIP3    H222485   1.492   3.129   1.680 -0.5805  0.8073 -0.2680
  332TIP3   OH222486   6.790   2.813  10.665  0.1090 -0.1014  0.1861
  332TIP3    H122487   6.703   2.819  10.704 -0.8220 -1.7651 -1.5248
  332TIP3    H222488   6.796   2.722  10.635  2.1475  0.1995 -0.3721
  333TIP3   OH222489   6.150   1.345  14.156  0.7045 -0.0779  0.1409
  333TIP3    H122490   6.091   1.418  14.140  0.3941 -0.0566  1.2928
  333TIP3    H222491   6.208   1.344  14.081 -0.7102 -0.0467 -0.9803
  334TIP3   OH222492   5.309   6.229   6.205  0.1102  0.0465 -0.0221
  334TIP3    H122493   5.377   6.296   6.210  0.6508 -0.5534  0.6734
  334TIP3    H222494   5.330   6.181   6.124  0.2744  0.1161 -0.0227
  335TIP3   OH222495   3.287   3.771   5.000 -0.8008 -0.3387 -0.2551
  335TIP3    H122496   3.308   3.679   5.014 -1.7664 -0.4744  0.3664
  335TIP3    H222497   3.343   3.798   4.928 -0.2166 -1.3053 -0.1671
  336TIP3   OH222498   3.477   1.304   3.191 -0.0146  0.1915  0.7336
  336TIP3    H122499   3.515   1.369   3.132  0.2026 -0.4965  0.1089
  336TIP3    H222500   3.521   1.222   3.168 -3.1181 -1.0212 -1.2644
  337TIP3   OH222501   5.701   0.503  15.433  1.0522  1.0078  0.4584
  337TIP3    H122502   5.761   0.573  15.410  1.5098  0.3979 -0.2499
  337TIP3    H222503   5.644   0.495  15.356 -0.0413  1.6899  1.1892
  338TIP3   OH222504   0.634   5.554  10.801  0.2248 -0.0779 -0.3099
  338TIP3    H122505   0.715   5.578  10.846 -1.1469  1.8274  1.2443
  338TIP3    H222506   0.631   5.614  10.726  0.6314 -0.6793 -0.8104
  339TIP3   OH222507   3.456   0.278   5.361  0.5736 -0.3531 -0.3033
  339TIP3    H122508   3.445   0.190   5.326 -0.2460 -0.0699 -0.7852
  339TIP3    H222509   3.379   0.326   5.330  0.9343  0.4905  0.0754
  340TIP3   OH222510   6.670   4.805  12.496 -0.1456 -0.3118  0.3312
  340TIP3    H122511   6.627   4.725  12.525  1.7878 -2.3333 -2.1725
  340TIP3    H222512   6.763   4.792  12.517 -0.0990  2.3660  2.1640
  341TIP3   OH222513   6.482   2.271  10.649  0.0912 -0.1041 -0.2726
  341TIP3    H122514   6.442   2.358  10.642  0.5356  0.0567 -0.8809
  341TIP3    H222515   6.449   2.223  10.573  0.0203 -0.3980 -0.0553
  342TIP3   OH222516   6.296   1.202  15.978  0.4347  0.0800  0.3686
  342TIP3    H122517   6.233   1.153  16.030  1.3979 -0.6212  0.8698
  342TIP3    H222518   6.313   1.281  16.030  1.7709 -0.8498  1.3707
  343TIP3   OH222519   6.037   6.588   1.823 -0.5382 -0.6663  0.3546
  343TIP3    H122520   6.050   6.550   1.911  1.9315  0.6481  0.5918
  343TIP3    H222521   6.115   6.561   1.774 -0.7233  0.6948 -0.7002
  344TIP3   OH222522   1.973   1.503  16.985 -0.3344  0.4108 -0.6533
  344TIP3    H122523   2.032   1.453  16.928 -1.1198  0.1184 -1.2176
  344TIP3    H222524   1.888   1.459  16.975 -0.5262  0.5056  0.5600
  345TIP3   OH222525   4.999   2.599  15.345  0.2618 -0.5377  0.3851
  345TIP3    H122526   4.989   2.693  15.357  2.4202 -0.0288 -1.3857
  345TIP3    H222527   5.050   2.571  15.421  0.0006 -0.2007  0.6855
  346TIP3   OH222528   0.911   3.532  12.995 -0.7933  0.3312 -0.5444
  346TIP3    H122529   0.837   3.549  12.937 -2.7454 -0.7219  1.5723
  346TIP3    H222530   0.907   3.601  13.061  1.4482  1.5549 -1.6042
  347TIP3   OH222531   0.158   2.361   3.703 -0.3149 -0.3382 -0.2030
  347TIP3    H122532   0.162   2.453   3.731  1.9773 -0.6322  0.4710
  347TIP3    H222533   0.159   2.311   3.784  2.7436 -1.0813 -0.6492
  348TIP3   OH222534   6.122   2.486  11.564  0.1529  0.3097  0.0578
  348TIP3    H122535   6.045   2.470  11.509 -0.0541 -0.4683  0.5639
  348TIP3    H222536   6.131   2.406  11.615 -0.6269  1.6365  2.3385
  349TIP3   OH222537   3.236   3.915   2.087  0.3905 -0.0452  0.3119
  349TIP3    H122538   3.307   3.852   2.101  0.3682  0.1321  1.1843
  349TIP3    H222539   3.177   3.901   2.160 -1.3044 -1.3224 -1.2547
  350TIP3   OH222540   3.275   6.724   2.345  0.2692 -0.0504  0.7153
  350TIP3    H122541   3.224   6.805   2.343  1.9903  1.0498 -0.9823
  350TIP3    H222542   3.309   6.715   2.256  1.0786 -2.0126  1.1920
  351TIP3   OH222543   4.056   3.440   5.039  0.7151 -0.1400  0.1641
  351TIP3    H122544   4.035   3.493   4.962  2.8134  3.0553  1.6602
  351TIP3    H222545   4.125   3.382   5.009  2.0313  1.5782 -0.2158
  352TIP3   OH222546   3.365   5.713   3.189 -0.2448 -0.0007  0.4994
  352TIP3    H122547   3.411   5.656   3.128 -1.7376 -1.8016  1.0063
  352TIP3    H222548   3.275   5.718   3.155 -0.5218  0.8017  1.3045
  353TIP3   OH222549   0.953   1.363   0.312 -0.1360  0.2576  0.1184
  353TIP3    H122550   0.954   1.291   0.375 -0.9227  0.9440  0.9300
  353TIP3    H222551   0.992   1.436   0.360  2.4814 -0.1279 -1.3381
  354TIP3   OH222552   6.585   5.953   2.122 -0.0421 -0.6391 -0.8262
  354TIP3    H122553   6.515   6.001   2.168  0.8040  0.0567 -0.2495
  354TIP3    H222554   6.609   6.010   2.049  2.5734  0.9555  1.1881
  355TIP3   OH222555   3.709   2.956   3.685  0.8730 -0.5322 -0.1571
  355TIP3    H122556   3.748   2.982   3.769  1.4621 -0.8754 -0.3208
  355TIP3    H222557   3.677   3.038   3.647  0.2932 -0.4228  0.5596
  356TIP3   OH222558   3.258   5.416   2.757 -0.6734 -0.3630  0.4638
  356TIP3    H122559   3.296   5.435   2.671 -0.3321 -2.6471  0.0839
  356TIP3    H222560   3.332   5.425   2.817 -0.5647 -0.2822  0.3199
  357TIP3   OH222561   0.038   1.985  12.828  0.1013  0.3746 -0.0539
  357TIP3    H122562   0.103   2.015  12.765 -0.5353  0.6892 -0.5722
  357TIP3    H222563  -0.031   1.946  12.775 -0.2235  0.2159  0.4775
  358TIP3   OH222564   0.847   6.018  16.381  0.1284  0.1281  0.7953
  358TIP3    H122565   0.755   5.996  16.395 -0.2217  0.6292 -0.6080
  358TIP3    H222566   0.853   6.112  16.401  0.4679 -0.0355  1.4829
  359TIP3   OH222567   6.210   2.490   3.178  0.1406  0.1489 -0.5722
  359TIP3    H122568   6.156   2.426   3.225 -1.5796  2.0385  0.0568
  359TIP3    H222569   6.259   2.437   3.114 -1.6630 -1.7143 -0.4616
  360TIP3   OH222570   3.373   3.101  13.845  0.1551 -0.3585 -0.6840
  360TIP3    H122571   3.323   3.036  13.894 -0.1611  0.6310  0.3240
  360TIP3    H222572   3.344   3.091  13.754  1.0363 -2.4697 -0.7574
  361TIP3   OH222573   4.664   2.962  10.538 -0.2857 -0.5598 -0.4641
  361TIP3    H122574   4.579   2.922  10.522 -0.8445 -0.2495  1.6662
  361TIP3    H222575   4.724   2.887  10.548 -0.6544 -0.8045 -0.0908
  362TIP3   OH222576   0.892   5.646  12.882  0.1054 -0.3452  0.0867
  362TIP3    H122577   0.915   5.553  12.889  0.4180 -0.4865 -2.4112
  362TIP3    H222578   0.939   5.677  12.805 -0.4942  1.7565  0.5250
  363TIP3   OH222579   3.597   0.842   4.342 -0.3804 -0.1738 -0.6691
  363TIP3    H122580   3.615   0.778   4.272  0.5096 -0.7305  0.0534
  363TIP3    H222581   3.598   0.790   4.422  3.6611  1.1825  0.3179
  364TIP3   OH222582   4.856   6.754   4.778  0.2588 -0.1830 -0.2300
  364TIP3    H122583   4.937   6.751   4.828 -0.2139  1.3172  0.6694
  364TIP3    H222584   4.797   6.808   4.831 -1.4513 -1.5679 -0.6867
  365TIP3   OH222585   4.292   1.585   5.895  0.0582  0.1976 -0.0215
  365TIP3    H122586   4.337   1.637   5.962  1.5890 -1.3877  0.2200
  365TIP3    H222587   4.214   1.552   5.938  0.6079 -0.1299  0.7375
  366TIP3   OH222588   2.568   1.290  13.785  0.0590 -0.1022 -0.0073
  366TIP3    H122589   2.585   1.378  13.749 -1.8400  0.7279  1.0866
  366TIP3    H222590   2.576   1.232  13.709  1.3490  0.9954 -0.7450
  367TIP3   OH222591   3.611   5.514  10.863  0.1020  0.2812  0.6213
  367TIP3    H122592   3.567   5.515  10.778  1.1664 -1.4991  0.0217
  367TIP3    H222593   3.695   5.556  10.846  0.4632 -0.4024  0.6920
  368TIP3   OH222594   1.967   3.367   1.671  0.2715 -0.6600 -0.1025
  368TIP3    H122595   1.977   3.338   1.581 -1.1312 -2.9006  0.4198
  368TIP3    H222596   2.048   3.341   1.715 -0.3298 -2.4096 -0.0071
  369TIP3   OH222597   2.766   0.464  16.151  0.5135 -0.5719 -0.2014
  369TIP3    H122598   2.852   0.451  16.190  1.7765 -1.2796 -3.0836
  369TIP3    H222599   2.761   0.399  16.081 -1.0739  1.5684 -2.1485
  370TIP3   OH222600   1.357   4.928   3.786  0.2613 -0.1339 -0.1992
  370TIP3    H122601   1.447   4.928   3.818  0.2050  2.4120  0.0283
  370TIP3    H222602   1.350   4.846   3.736  2.4624 -0.7286  0.4011
  371TIP3   OH222603   6.185   2.432   5.525 -0.2465  0.3349 -0.0102
  371TIP3    H122604   6.133   2.474   5.594  0.4771  0.8613  0.2251
  371TIP3    H222605   6.216   2.504   5.471  1.2127  0.1442  0.5358
  372TIP3   OH222606   3.644   5.292   1.144  0.0609 -0.2536  0.0148
  372TIP3    H122607   3.599   5.373   1.120 -0.5485 -0.8844 -1.0018
  372TIP3    H222608   3.579   5.242   1.193  0.5023 -0.0525  0.8161
  373TIP3   OH222609   2.542   5.137   1.072 -0.0362 -0.1825  0.4631
  373TIP3    H122610   2.618   5.165   1.021  1.5104 -3.4736  0.7841
  373TIP3    H222611   2.473   5.199   1.049  2.4731  2.3466 -0.5579
  374TIP3   OH222612   3.525   4.772   5.556  0.4331 -0.0007 -0.2554
  374TIP3    H122613   3.467   4.747   5.627  0.4275  0.5736 -0.0592
  374TIP3    H222614   3.553   4.861   5.577  1.0983 -0.1404 -0.5334
  375TIP3   OH222615   2.658   2.655  16.033 -0.2276  0.1930  0.2914
  375TIP3    H122616   2.692   2.738  16.001  1.3767 -0.6505 -0.2918
  375TIP3    H222617   2.590   2.678  16.096 -1.8694  1.9246 -2.0120
  376TIP3   OH222618   1.769   0.240  15.206  0.0965  0.3982  0.2816
  376TIP3    H122619   1.696   0.289  15.243 -0.5305 -0.5757  0.3767
  376TIP3    H222620   1.825   0.221  15.280  1.3880  2.6937 -0.0757
  377TIP3   OH222621   1.871   3.179  15.701 -0.3120  0.5370 -0.3575
  377TIP3    H122622   1.820   3.259  15.693  0.2497  0.8515 -0.8036
  377TIP3    H222623   1.821   3.124  15.761 -0.9025  1.0580 -0.3797
  378TIP3   OH222624   1.380   3.018   1.988  0.2925 -0.2659  0.1774
  378TIP3    H122625   1.425   2.951   1.936  2.4903  0.1118  1.5453
  378TIP3    H222626   1.412   3.101   1.953  1.6255 -0.0050  1.9502
  379TIP3   OH222627   0.205   0.663   3.580 -0.3930 -0.6233 -0.5280
  379TIP3    H122628   0.124   0.708   3.607  0.8670  1.7923 -0.6197
  379TIP3    H222629   0.258   0.660   3.659  0.1537 -0.5883 -0.8933
  380TIP3   OH222630   1.828   1.032   3.006  0.1699  0.1137  0.2787
  380TIP3    H122631   1.770   1.020   3.081 -1.0671  0.8049 -0.5481
  380TIP3    H222632   1.778   1.088   2.946  0.8527 -0.9828 -1.3583
  381TIP3   OH222633   0.178   4.032  15.393 -0.2806 -0.1294 -0.0395
  381TIP3    H122634   0.183   4.045  15.298 -1.5642  0.1214 -0.0760
  381TIP3    H222635   0.091   4.063  15.417  0.6750  1.4801  1.4835
  382TIP3   OH222636   1.326   5.729   2.382  0.3353 -0.5152 -0.2553
  382TIP3    H122637   1.235   5.734   2.354  1.1935 -0.7235 -3.3539
  382TIP3    H222638   1.353   5.639   2.362  0.6240 -1.1252  2.7238
  383TIP3   OH222639   2.545   0.605   3.639 -0.1733 -0.1785 -0.5145
  383TIP3    H122640   2.608   0.570   3.576  0.2032 -0.1822 -0.1349
  383TIP3    H222641   2.569   0.697   3.650  0.0597 -0.2943 -0.0184
  384TIP3   OH222642   3.337   2.324   1.526  0.2171  0.0210 -0.0479
  384TIP3    H122643   3.253   2.358   1.497 -1.2519 -2.4855  1.0372
  384TIP3    H222644   3.359   2.375   1.603  0.0030  1.1113 -0.7052
  385TIP3   OH222645   2.654   1.745   5.814  0.2328 -0.2424  0.5283
  385TIP3    H122646   2.609   1.692   5.880  0.3655  0.7698  1.4353
  385TIP3    H222647   2.739   1.703   5.803 -0.2310 -1.1048  0.1208
  386TIP3   OH222648   1.967   4.669   4.850 -0.1008  0.0539 -0.1235
  386TIP3    H122649   2.037   4.682   4.786  1.3166 -0.4179  1.3032
  386TIP3    H222650   1.968   4.575   4.869 -1.2251  0.0167 -0.2029
  387TIP3   OH222651   1.535   6.324   5.853  0.1823 -0.1787  0.1473
  387TIP3    H122652   1.480   6.246   5.864 -1.1479  0.8591  1.0617
  387TIP3    H222653   1.575   6.337   5.939  0.1244  0.3363  0.0959
  388TIP3   OH222654   4.909   4.959   4.694 -0.0702 -0.6447 -0.0019
  388TIP3    H122655   4.910   4.946   4.599  3.6573  1.2489 -0.2757
  388TIP3    H222656   4.877   5.048   4.705 -0.9618 -1.0300  0.5746
  389TIP3   OH222657   5.220   0.720  12.104  0.5866  0.5725  0.1276
  389TIP3    H122658   5.265   0.711  12.187 -2.5410 -0.2972  1.8217
  389TIP3    H222659   5.149   0.656  12.108 -1.6446  2.7879 -1.8083
  390TIP3   OH222660   4.368   2.796   0.862  0.0519  0.6943  0.3603
  390TIP3    H122661   4.305   2.740   0.817  0.6852  0.4160 -0.1911
  390TIP3    H222662   4.429   2.825   0.793 -1.2567  3.4710  0.3102
  391TIP3   OH222663   1.870   6.706   0.285 -0.0611 -0.1160 -0.0690
  391TIP3    H122664   1.891   6.787   0.330 -0.0173 -0.1870  0.0405
  391TIP3    H222665   1.777   6.692   0.300  0.4009 -1.2924  1.9052
  392TIP3   OH222666   5.582   3.100   4.822  0.0861 -0.4854 -0.6660
  392TIP3    H122667   5.524   3.041   4.869  0.8152  0.1217  1.0535
  392TIP3    H222668   5.529   3.135   4.751 -0.8562 -1.8923 -0.6589
  393TIP3   OH222669   3.122   0.613   6.044 -0.0743 -0.1668 -0.3074
  393TIP3    H122670   3.046   0.565   6.011  0.3193  0.1353 -1.6606
  393TIP3    H222671   3.196   0.557   6.024  0.2523  0.3938 -0.6515
  394TIP3   OH222672   2.629   4.879   6.657  0.1021 -0.1091  1.0274
  394TIP3    H122673   2.668   4.802   6.617  0.0491 -0.0977  0.9529
  394TIP3    H222674   2.569   4.844   6.723 -0.3459 -0.1470  0.6011
  395TIP3   OH222675   3.306   2.458   3.782 -0.0635  0.0808 -0.0234
  395TIP3    H122676   3.286   2.508   3.861  2.6467  1.0505  0.0989
  395TIP3    H222677   3.301   2.523   3.711 -1.1788 -0.5139 -0.5184
  396TIP3   OH222678   2.240   6.758   3.138  0.1653 -0.0487  0.0614
  396TIP3    H122679   2.198   6.679   3.173  2.0263 -0.3005  1.8204
  396TIP3    H222680   2.250   6.740   3.044 -1.8061 -0.7876 -0.0317
  397TIP3   OH222681   2.962   1.178   1.650 -0.0888  0.6635  0.3808
  397TIP3    H122682   2.963   1.253   1.709 -0.4588  0.6647  0.3851
  397TIP3    H222683   2.917   1.109   1.699  0.8182  0.2393  0.6205
  398TIP3   OH222684   4.865   3.099  10.355 -0.0281 -0.2516 -0.0834
  398TIP3    H122685   4.836   3.120  10.444  0.3693  0.3154 -0.0898
  398TIP3    H222686   4.943   3.153  10.341 -0.8400  0.6398 -1.2515
  399TIP3   OH222687   3.596   4.170  16.390  0.6140  0.1991  0.1576
  399TIP3    H122688   3.679   4.171  16.344 -0.4372 -0.6518 -1.7992
  399TIP3    H222689   3.537   4.223  16.337 -0.5213 -0.4934  0.6856
  400TIP3   OH222690   4.452   1.419  13.181  0.4150  0.1702  0.0307
  400TIP3    H122691   4.423   1.465  13.259  0.2948 -0.3921  0.3183
  400TIP3    H222692   4.455   1.487  13.113  0.1057  0.5722  0.4159
  401TIP3   OH222693   0.259   4.798   2.002  0.4430 -0.3658  0.0731
  401TIP3    H122694   0.251   4.795   1.907 -0.4676  0.7121  0.1070
  401TIP3    H222695   0.351   4.780   2.019  0.5725 -0.7398 -0.9989
  402TIP3   OH222696   3.272   0.606  10.950  0.2183  0.2768 -0.2466
  402TIP3    H122697   3.312   0.692  10.937 -1.6553  0.9413 -1.8065
  402TIP3    H222698   3.320   0.548  10.891 -0.7951  0.9791 -1.7803
  403TIP3   OH222699   0.395   6.345   3.478  0.0856  0.0008 -0.2114
  403TIP3    H122700   0.416   6.375   3.390  1.3691  1.8721  0.6990
  403TIP3    H222701   0.305   6.374   3.492 -0.1727 -0.4313 -0.9666
  404TIP3   OH222702   3.795   6.784  17.277 -0.6768  0.0858 -0.3045
  404TIP3    H122703   3.746   6.707  17.249  0.8330 -1.3066  0.7557
  404TIP3    H222704   3.732   6.837  17.325 -1.2970 -1.3658  0.5012
  405TIP3   OH222705   1.174   2.456  15.583 -0.2894  0.3853  0.4672
  405TIP3    H122706   1.220   2.394  15.527  1.4248 -0.2664  2.5319
  405TIP3    H222707   1.120   2.401  15.640  0.9069  0.7971  2.0165
  406TIP3   OH222708   5.292   1.611   0.759 -0.2579 -0.0522  0.2553
  406TIP3    H122709   5.253   1.526   0.777  1.4888 -1.1620 -1.0589
  406TIP3    H222710   5.294   1.655   0.844 -3.1355 -0.4587  0.5711
  407TIP3   OH222711   4.619   6.168   3.451 -0.5384  0.0374  0.0113
  407TIP3    H122712   4.565   6.093   3.475  1.0392 -1.3673 -0.8417
  407TIP3    H222713   4.702   6.153   3.496 -0.4672  1.6761  0.4666
  408TIP3   OH222714   0.276   0.086  14.848 -0.4156  0.2134  0.0232
  408TIP3    H122715   0.239   0.102  14.935 -3.1293 -1.6539 -0.7209
  408TIP3    H222716   0.368   0.063  14.865 -0.9487 -0.3060  2.4305
  409TIP3   OH222717   1.255   1.307   1.020 -0.1938 -0.2186 -0.2157
  409TIP3    H122718   1.343   1.276   0.998 -0.6082 -0.5060 -1.5214
  409TIP3    H222719   1.269   1.394   1.056  0.8002 -1.0777  1.5210
  410TIP3   OH222720   1.144   4.407  12.719  0.0094  0.1587 -0.1556
  410TIP3    H122721   1.172   4.489  12.760  1.6283 -0.2724 -0.3630
  410TIP3    H222722   1.222   4.373  12.676 -0.5851 -1.6016  0.0906
  411TIP3   OH222723   3.761   4.877  12.979  0.3040 -0.4403  0.5437
  411TIP3    H122724   3.857   4.874  12.972  0.2604 -0.2670 -0.1580
  411TIP3    H222725   3.730   4.847  12.894 -0.2796 -1.3002  1.0415
  412TIP3   OH222726   1.894   4.724  16.152 -0.6149 -0.1122 -0.1715
  412TIP3    H122727   1.963   4.658  16.153  1.6151  2.1367 -0.3579
  412TIP3    H222728   1.825   4.686  16.097  0.9525 -1.9240 -0.9503
  413TIP3   OH222729   4.276   2.405  17.003 -0.6530 -0.0651 -0.0429
  413TIP3    H122730   4.204   2.396  16.941 -2.7059 -0.2209  2.2880
  413TIP3    H222731   4.286   2.500  17.014 -0.1885 -0.0330 -0.6841
  414TIP3   OH222732   2.338   0.050   5.347 -0.1714 -0.3808 -0.1021
  414TIP3    H122733   2.379   0.002   5.276 -0.4522 -0.6636 -0.0701
  414TIP3    H222734   2.389   0.026   5.425  0.0454 -0.1824 -0.1804
  415TIP3   OH222735   4.381   2.009  15.990  0.6182 -0.6273 -0.3364
  415TIP3    H122736   4.372   2.050  15.904  2.3172 -1.6286 -1.0388
  415TIP3    H222737   4.476   2.004  16.003  0.3722 -1.0406  1.3288
  416TIP3   OH222738   3.020   2.140   3.313  0.1604  0.1592  0.0730
  416TIP3    H122739   3.019   2.234   3.297  0.2410 -0.2248 -2.4968
  416TIP3    H222740   3.094   2.126   3.372  1.2417  1.5356 -0.9128
  417TIP3   OH222741   2.947   1.600  16.921 -0.0964 -0.1928 -0.3288
  417TIP3    H122742   3.035   1.600  16.883 -0.3076  0.3494 -0.8246
  417TIP3    H222743   2.941   1.517  16.967  2.1365  1.4725  3.1152
  418TIP3   OH222744   4.161   2.765   0.310  0.0285  0.0478  0.3572
  418TIP3    H122745   4.172   2.672   0.329  1.5432  0.2986  0.8020
  418TIP3    H222746   4.119   2.800   0.388  0.2761 -0.1107  0.5633
  419TIP3   OH222747   1.102   1.542  14.431  0.0708  0.0906  0.8309
  419TIP3    H122748   1.181   1.572  14.386 -0.3184 -1.2610 -0.7893
  419TIP3    H222749   1.055   1.491  14.365 -1.4678 -0.2893  2.2049
  420TIP3   OH222750   3.579   3.563  17.249  0.2101 -0.3072 -0.5265
  420TIP3    H122751   3.658   3.511  17.261 -0.0912 -0.3412  1.4168
  420TIP3    H222752   3.514   3.501  17.217  0.5224 -0.5905 -0.6169
  421TIP3   OH222753   5.410   4.981   2.262 -0.5008  0.6663  0.0559
  421TIP3    H122754   5.445   5.063   2.296  1.3516 -0.1040  0.0559
  421TIP3    H222755   5.437   4.980   2.170 -0.6088  0.1206  0.0305
  422TIP3   OH222756   0.914   4.348   0.290 -0.0828  0.6235  0.1984
  422TIP3    H122757   1.006   4.323   0.299  0.1329  1.8012  1.4352
  422TIP3    H222758   0.916   4.430   0.241 -0.4943  0.5509  0.0578
  423TIP3   OH222759   0.573   0.567  15.581  0.3362  0.1235  0.2883
  423TIP3    H122760   0.563   0.571  15.676 -1.4947  0.3850  0.1066
  423TIP3    H222761   0.630   0.641  15.560  0.3950  0.3293  1.1449
  424TIP3   OH222762   6.244   6.559  12.359  0.1838  0.6794 -0.6432
  424TIP3    H122763   6.315   6.500  12.383 -0.7309 -0.0082  0.3928
  424TIP3    H222764   6.249   6.563  12.263 -0.2053 -1.6565 -0.7909
  425TIP3   OH222765   1.805   0.529   2.717  0.4245  0.6667  0.1501
  425TIP3    H122766   1.807   0.624   2.713  1.0474  0.6187 -0.8264
  425TIP3    H222767   1.720   0.505   2.680  0.1079  0.8493  0.7490
  426TIP3   OH222768   3.611   5.909   1.004 -0.4326  0.1083 -0.0165
  426TIP3    H122769   3.574   5.827   0.971 -1.3759  0.0878  1.0374
  426TIP3    H222770   3.590   5.974   0.936  1.3304 -0.7298 -1.3929
  427TIP3   OH222771   6.703   6.185  13.767  0.1244  0.2605 -0.1789
  427TIP3    H122772   6.748   6.208  13.686 -0.8202  0.6422 -0.6090
  427TIP3    H222773   6.731   6.252  13.830  0.3867  0.3163 -0.3546
  428TIP3   OH222774   4.885   1.268  11.215  0.0415 -0.4235 -0.0722
  428TIP3    H122775   4.892   1.285  11.309  2.1677  0.1054 -0.2940
  428TIP3    H222776   4.866   1.354  11.177 -0.7456 -0.6248 -0.1437
  429TIP3   OH222777   3.817   1.831   3.893  0.7177 -0.4303  0.6221
  429TIP3    H122778   3.797   1.738   3.889  0.9729 -0.3980 -3.2728
  429TIP3    H222779   3.732   1.874   3.891  0.6664 -0.5526  0.1043
  430TIP3   OH222780   6.429   5.174   5.390  0.0294 -0.3482 -0.0053
  430TIP3    H122781   6.490   5.232   5.435 -0.1964  0.7688 -1.1123
  430TIP3    H222782   6.391   5.121   5.460 -1.2346  2.1903  1.3319
  431TIP3   OH222783   6.730   3.589  15.767 -0.3638  0.1446 -0.2896
  431TIP3    H122784   6.723   3.640  15.848 -1.1711  0.0498 -0.2939
  431TIP3    H222785   6.824   3.573  15.757 -0.2972 -0.3221  0.9295
  432TIP3   OH222786   1.886   3.554   0.024  0.7831 -0.0146 -0.2318
  432TIP3    H122787   1.818   3.490   0.043  1.2498 -0.8942 -1.4755
  432TIP3    H222788   1.968   3.504   0.029  1.3623  1.0708  1.4486
  433TIP3   OH222789   2.473   3.152   2.881  0.3099  0.5842  0.2883
  433TIP3    H122790   2.475   3.216   2.952  2.0584  1.1939 -0.2896
  433TIP3    H222791   2.478   3.067   2.925 -1.1214  0.8558  1.0084
  434TIP3   OH222792   5.026   6.808   3.713 -0.0297  0.3260 -0.4002
  434TIP3    H122793   4.948   6.761   3.743  1.2830 -0.6695  1.4963
  434TIP3    H222794   4.991   6.882   3.664 -2.1915  0.1000  0.7378
  435TIP3   OH222795   6.392   1.823   5.747  0.3279 -0.1571 -0.4837
  435TIP3    H122796   6.464   1.767   5.718  0.5020 -0.2348  0.0983
  435TIP3    H222797   6.371   1.792   5.835 -0.8498 -0.5639 -0.8947
  436TIP3   OH222798   2.277   1.597   2.851 -0.4329  0.1292  0.0992
  436TIP3    H122799   2.215   1.530   2.880  0.7867 -0.3596  1.6243
  436TIP3    H222800   2.272   1.593   2.755 -0.1034 -2.4287  0.1455
  437TIP3   OH222801   6.582   0.450  11.811  0.3950 -0.0924 -0.0673
  437TIP3    H122802   6.535   0.412  11.737  0.3791 -1.5917  0.6790
  437TIP3    H222803   6.517   0.455  11.881  1.2694 -2.0221  0.9169
  438TIP3   OH222804   0.355   3.858   2.850  0.0895  0.1377 -0.5960
  438TIP3    H122805   0.377   3.812   2.768 -0.4568  0.4189 -0.9020
  438TIP3    H222806   0.309   3.937   2.821 -1.6641 -0.6195  0.0654
  439TIP3   OH222807   0.071   2.246  12.409 -0.8853  0.0465 -0.2719
  439TIP3    H122808   0.138   2.236  12.476 -1.3894 -0.3443  0.1819
  439TIP3    H222809   0.076   2.338  12.383 -0.6587  0.1841  0.2631
  440TIP3   OH222810   2.374   1.028  16.120  0.0475 -0.0083  0.2008
  440TIP3    H122811   2.386   0.962  16.052 -0.2634  0.3723 -0.2236
  440TIP3    H222812   2.324   0.983  16.188  1.7134 -0.8684  0.8929
  441TIP3   OH222813   6.741   6.427   1.415  0.2106 -0.5060  0.2158
  441TIP3    H122814   6.733   6.359   1.349  1.9016  0.6290 -1.1834
  441TIP3    H222815   6.754   6.379   1.497  0.2709 -1.8681 -0.5716
  442TIP3   OH222816   3.293   5.923   1.800  0.5129  0.2395  0.4019
  442TIP3    H122817   3.259   5.989   1.739  0.5352  0.9816  1.1961
  442TIP3    H222818   3.361   5.878   1.750 -0.6495 -0.3324 -0.7340
  443TIP3   OH222819   2.638   0.470   3.208  0.5651  0.4030  0.0415
  443TIP3    H122820   2.689   0.519   3.273 -0.7586  3.3015 -1.0041
  443TIP3    H222821   2.553   0.513   3.208 -1.5121 -3.4802  0.7845
  444TIP3   OH222822   6.314   5.091   4.238 -0.3874 -0.1164 -0.0827
  444TIP3    H122823   6.342   5.154   4.170  0.6660 -0.5899 -0.1028
  444TIP3    H222824   6.396   5.053   4.269 -0.8552  0.2500  1.6169
  445TIP3   OH222825   5.419   5.618   0.325  0.1606  0.2107 -0.0840
  445TIP3    H122826   5.414   5.631   0.420  0.9072  0.8586 -0.1312
  445TIP3    H222827   5.469   5.536   0.315 -1.1894 -0.6533  0.1097
  446TIP3   OH222828   2.000   6.684  14.271  0.0439  0.2410  0.1021
  446TIP3    H122829   1.965   6.657  14.187  0.5009 -0.9611  0.2803
  446TIP3    H222830   2.095   6.678  14.260  0.0906 -1.0069  1.0282
  447TIP3   OH222831   0.911   2.504   1.498 -0.1674  0.2234 -0.0917
  447TIP3    H122832   0.965   2.578   1.524 -0.0060 -0.1036  0.5274
  447TIP3    H222833   0.950   2.429   1.543 -1.1363 -0.0089  0.3831
  448TIP3   OH222834   5.154   1.878  12.772 -0.3004 -0.2681  0.5201
  448TIP3    H122835   5.179   1.859  12.682 -1.7653 -1.1391  0.2869
  448TIP3    H222836   5.219   1.942  12.802  0.4814 -0.3447 -0.9860
  449TIP3   OH222837   2.699   0.818  12.759 -0.0678 -0.4100 -0.2858
  449TIP3    H122838   2.625   0.757  12.764  0.6803 -1.3653 -0.7794
  449TIP3    H222839   2.770   0.775  12.807  0.1949  0.4867  0.1527
  450TIP3   OH222840   3.554   3.492   2.189  0.0757  0.0129  0.0663
  450TIP3    H122841   3.497   3.568   2.198  0.3531  0.4141 -1.2931
  450TIP3    H222842   3.604   3.489   2.271 -1.6883 -0.1895  1.1464
  451TIP3   OH222843   1.186   5.093   3.309 -0.0292  0.1057  0.2965
  451TIP3    H122844   1.095   5.090   3.278  0.0119 -1.9816  0.3037
  451TIP3    H222845   1.179   5.106   3.403 -0.2843  0.6938  0.2024
  452TIP3   OH222846   1.159   3.164  10.653  0.0180 -0.0109  0.1314
  452TIP3    H122847   1.144   3.108  10.577  0.4978 -1.2702  0.9463
  452TIP3    H222848   1.097   3.133  10.719  1.3000 -0.5866  1.0909
  453TIP3   OH222849   0.270   5.895   5.428  0.4601 -0.2119 -0.4090
  453TIP3    H122850   0.362   5.871   5.412  0.4011 -1.5687  1.1699
  453TIP3    H222851   0.270   5.933   5.516 -0.4658 -0.0452 -0.4837
  454TIP3   OH222852   0.326   6.120  12.657  0.3890  0.2031  0.6034
  454TIP3    H122853   0.346   6.205  12.695  2.0299  0.7236 -1.2990
  454TIP3    H222854   0.248   6.135  12.604  1.3426  0.8408 -0.6588
  455TIP3   OH222855   0.851   2.046   3.247  0.1571 -0.3699 -0.4441
  455TIP3    H122856   0.808   2.049   3.333  1.4548  1.5510  0.1614
  455TIP3    H222857   0.904   1.967   3.250 -0.7863 -0.9980  0.0309
  456TIP3   OH222858   2.324   2.539   5.073  0.0857 -0.4782  0.0208
  456TIP3    H122859   2.380   2.513   5.146 -0.0754 -1.4232 -0.1809
  456TIP3    H222860   2.363   2.619   5.039  1.4899 -1.2986 -0.3173
  457TIP3   OH222861   0.592   6.033   5.702 -0.1631  0.0657  0.3431
  457TIP3    H122862   0.647   6.038   5.780 -0.2229 -1.7155  0.5231
  457TIP3    H222863   0.651   6.005   5.632  0.0057  2.2019 -0.3898
  458TIP3   OH222864   4.554   1.901   5.732  0.1103  0.3942 -0.1599
  458TIP3    H122865   4.524   1.820   5.692 -2.6978  0.5012  1.6121
  458TIP3    H222866   4.586   1.875   5.818  1.5953  0.8461 -0.5530
  459TIP3   OH222867   2.809   5.628   4.326  0.8195  0.3497 -0.5115
  459TIP3    H122868   2.740   5.665   4.270 -0.2846 -0.4972  0.2853
  459TIP3    H222869   2.858   5.705   4.357  0.8414  0.8944 -1.8457
  460TIP3   OH222870   0.474   4.296   1.812  0.1731 -0.2394  0.3190
  460TIP3    H122871   0.445   4.234   1.745 -0.5686  1.5146 -1.0124
  460TIP3    H222872   0.402   4.297   1.876  0.4098 -1.1190  0.6006
  461TIP3   OH222873   3.674   6.521  11.752  0.5492  0.0535 -0.4161
  461TIP3    H122874   3.727   6.598  11.772  0.2978  0.1305 -0.0485
  461TIP3    H222875   3.586   6.556  11.736  0.9706  0.1251 -2.7508
  462TIP3   OH222876   6.118   2.011   4.155 -0.2399 -0.4984 -0.8888
  462TIP3    H122877   6.080   1.970   4.233 -0.3966  0.1681 -0.6114
  462TIP3    H222878   6.066   2.090   4.142 -0.0366 -0.4637 -1.5117
  463TIP3   OH222879   2.467   2.015  11.322 -0.1970  0.6885 -0.0386
  463TIP3    H122880   2.452   2.023  11.228 -2.0801  1.5394  0.3104
  463TIP3    H222881   2.561   2.004  11.331 -0.0899 -0.1585 -2.0753
  464TIP3   OH222882   4.322   3.541   6.052  0.0051  0.1565 -0.4849
  464TIP3    H122883   4.396   3.487   6.023 -0.6581 -0.3824 -1.1883
  464TIP3    H222884   4.363   3.614   6.098  1.0219  0.2768 -1.5530
  465TIP3   OH222885   3.631   5.391  16.277 -0.1029  0.0636 -0.1343
  465TIP3    H122886   3.597   5.303  16.296 -1.0935  0.5194  0.1933
  465TIP3    H222887   3.723   5.376  16.255 -0.0240 -0.9632  0.8132
  466TIP3   OH222888   1.961   5.597  12.538  0.3391 -0.1807  1.0660
  466TIP3    H122889   1.994   5.561  12.621  0.5735  0.5374  1.2966
  466TIP3    H222890   2.038   5.598  12.481  0.8176  1.7174  1.6791
  467TIP3   OH222891   0.206   1.879   6.282 -0.3433 -1.1148 -0.0546
  467TIP3    H122892   0.195   1.874   6.377 -0.0063 -1.0855 -0.0132
  467TIP3    H222893   0.301   1.882   6.269 -0.3974 -0.6778 -0.3684
  468TIP3   OH222894   6.373   5.006   5.612 -0.5591  0.1585  0.0377
  468TIP3    H122895   6.279   4.998   5.630 -0.8696 -0.3141 -1.7524
  468TIP3    H222896   6.404   4.916   5.607 -0.3724  0.2859 -1.2098
  469TIP3   OH222897   1.684   2.024   3.337 -0.0745  0.2292  0.1775
  469TIP3    H122898   1.653   1.944   3.293 -0.5078  1.1283 -1.1865
  469TIP3    H222899   1.604   2.068   3.365  0.0885  0.9463 -0.4639
  470TIP3   OH222900   2.773   2.312   5.062  0.5460  0.7094  0.2637
  470TIP3    H122901   2.855   2.287   5.019  0.1887 -0.3049  0.1563
  470TIP3    H222902   2.787   2.403   5.089  1.6369  0.6079  0.0796
  471TIP3   OH222903   2.311   0.193   2.234  0.0528 -0.4385 -0.0724
  471TIP3    H122904   2.309   0.247   2.313 -3.0189 -0.4234 -0.1030
  471TIP3    H222905   2.342   0.253   2.165  2.3939 -0.3606  1.0128
  472TIP3   OH222906   3.708   2.690  15.807  0.2630  0.4097 -0.0349
  472TIP3    H122907   3.643   2.743  15.854  2.5939  1.0456  2.6301
  472TIP3    H222908   3.680   2.599  15.822  1.2222  0.5798  3.0787
  473TIP3   OH222909   6.379   6.173   1.924 -0.2573 -0.7590 -0.4340
  473TIP3    H122910   6.410   6.262   1.941  0.0540 -1.0217  0.3557
  473TIP3    H222911   6.350   6.175   1.832 -2.4717  0.7854  0.2708
  474TIP3   OH222912   2.418   1.390   5.773 -0.2753 -0.3714 -0.2101
  474TIP3    H122913   2.419   1.310   5.720 -0.5412 -0.7820  0.3925
  474TIP3    H222914   2.401   1.359   5.862 -1.0907  0.4171 -0.0829
  475TIP3   OH222915   3.314   5.062   5.633 -0.1231 -0.0766  0.0024
  475TIP3    H122916   3.256   5.118   5.684 -1.2527 -0.6949 -0.5690
  475TIP3    H222917   3.285   4.973   5.652  0.2126 -0.3653 -0.7784
  476TIP3   OH222918   2.869   5.950  12.012  0.2395 -0.3531  0.3700
  476TIP3    H122919   2.826   5.896  11.946  0.9779 -1.1811  0.5615
  476TIP3    H222920   2.962   5.932  12.000  0.3372 -1.2074  2.2533
  477TIP3   OH222921   4.949   2.885  15.361  0.6162  0.5651  0.1834
  477TIP3    H122922   4.856   2.897  15.345  0.6565  0.6506  0.0003
  477TIP3    H222923   4.990   2.962  15.320  0.9958 -0.8505 -2.2099
  478TIP3   OH222924   5.893   0.125   3.497  0.0061  0.0145 -0.2035
  478TIP3    H122925   5.979   0.164   3.513 -0.7357  0.8718  1.9736
  478TIP3    H222926   5.839   0.196   3.463  0.7242 -1.0730 -3.8394
  479TIP3   OH222927   0.270   0.622  16.366  0.0618  0.1032 -0.2415
  479TIP3    H122928   0.360   0.618  16.333  0.9300 -2.0564  2.2177
  479TIP3    H222929   0.230   0.541  16.335 -0.7629  0.5914 -0.4683
  480TIP3   OH222930   3.614   3.740   2.375 -0.2634  0.0690 -0.2935
  480TIP3    H122931   3.608   3.700   2.462  2.0076  2.3662  0.9947
  480TIP3    H222932   3.699   3.713   2.341  0.4113  2.0392 -0.2675
  481TIP3   OH222933   5.660   6.333  15.160  0.1258  0.3885 -0.2998
  481TIP3    H122934   5.735   6.285  15.194  1.6993  3.9692  1.5473
  481TIP3    H222935   5.686   6.358  15.071 -0.0773 -0.7735 -0.6989
  482TIP3   OH222936   1.097   2.755  12.060 -1.3833  0.5223 -0.1836
  482TIP3    H122937   1.003   2.737  12.064 -1.4125  0.1804 -1.8217
  482TIP3    H222938   1.118   2.746  11.967  0.1050  1.4316  0.0571
  483TIP3   OH222939   4.292   2.703   2.452  0.5543 -0.1646  1.2113
  483TIP3    H122940   4.279   2.622   2.404 -2.2531  0.3661  1.0027
  483TIP3    H222941   4.305   2.770   2.384  0.5608 -0.0614  1.3130
  484TIP3   OH222942   1.791   0.983   1.975 -0.1973 -0.1315  0.2139
  484TIP3    H122943   1.862   0.953   1.919  1.2220  0.6712  1.5216
  484TIP3    H222944   1.806   0.938   2.059 -1.6826 -0.5328  0.2930
  485TIP3   OH222945   2.047   5.374   3.195 -0.2325 -0.2065 -0.3779
  485TIP3    H122946   1.975   5.314   3.178  1.7804 -2.5729 -0.8024
  485TIP3    H222947   2.045   5.389   3.290 -0.1101 -1.7798 -0.1218
  486TIP3   OH222948   6.704   1.974  10.726  0.4752  0.7992 -0.3700
  486TIP3    H122949   6.620   1.945  10.690  0.0879 -0.0427  1.1945
  486TIP3    H222950   6.692   1.972  10.821  1.7644  2.1964 -0.1546
  487TIP3   OH222951   3.574   2.418   4.031 -0.1350 -0.5604  0.2802
  487TIP3    H122952   3.544   2.383   4.115 -0.2837 -0.5598  0.2272
  487TIP3    H222953   3.532   2.503   4.024  0.0216 -0.4823  0.2880
  488TIP3   OH222954   5.126   3.542   5.605 -0.4506  0.7085 -0.5024
  488TIP3    H122955   5.113   3.629   5.567 -3.1439  0.4369 -0.2741
  488TIP3    H222956   5.148   3.559   5.696 -0.5937  1.1548 -0.5494
  489TIP3   OH222957   3.914   5.064  13.287  0.5848 -0.0218 -0.3489
  489TIP3    H122958   3.976   5.118  13.337 -0.3907  0.0354  0.8473
  489TIP3    H222959   3.891   4.992  13.347 -1.0351  0.3532 -0.4810
  490TIP3   OH222960   0.911   4.616  16.384 -0.3853 -0.2813  0.0118
  490TIP3    H122961   0.881   4.617  16.293  1.3049  0.0503 -0.5594
  490TIP3    H222962   0.840   4.657  16.433 -1.3738 -0.5862 -1.1319
  491TIP3   OH222963   2.818   6.731  13.781  0.2870 -0.0266 -0.3116
  491TIP3    H122964   2.901   6.696  13.813 -0.0782 -0.9893 -0.4211
  491TIP3    H222965   2.801   6.806  13.838  1.2942  0.2616 -0.3784
  492TIP3   OH222966   5.900   4.483  15.394  0.5697  0.0503 -0.0429
  492TIP3    H122967   5.924   4.465  15.303  1.4866 -1.3518  0.4618
  492TIP3    H222968   5.930   4.406  15.442 -0.6043  0.4426  1.3382
  493TIP3   OH222969   5.887   4.282   0.643  0.5391 -0.2237 -0.9718
  493TIP3    H122970   5.871   4.236   0.726 -0.3057  0.9975 -0.4329
  493TIP3    H222971   5.875   4.375   0.665 -0.6816  0.0416 -2.6862
  494TIP3   OH222972   4.404   2.134   4.195  0.1217  0.6914 -0.6640
  494TIP3    H122973   4.312   2.140   4.218 -0.1645 -0.7079 -1.4050
  494TIP3    H222974   4.435   2.225   4.195 -0.6885  0.9834  1.7875
  495TIP3   OH222975   2.246   3.339  14.975 -0.4659  0.5518  0.7305
  495TIP3    H122976   2.339   3.316  14.983 -0.1763  1.3017 -0.3488
  495TIP3    H222977   2.224   3.317  14.885 -1.2898  0.5438  0.9348
  496TIP3   OH222978   6.027   1.287  16.334  0.0857  0.2434 -0.3082
  496TIP3    H122979   6.027   1.236  16.253  2.7913 -1.4665  0.7255
  496TIP3    H222980   6.005   1.224  16.402 -0.5350  1.3384  0.5281
  497TIP3   OH222981   0.697   4.861   3.499 -0.4089  0.1078  0.4313
  497TIP3    H122982   0.697   4.840   3.592 -0.5236  1.4463  0.7503
  497TIP3    H222983   0.716   4.955   3.496  0.0929 -0.0216 -0.9205
  498TIP3   OH222984   6.268   5.243  16.570  0.4355 -0.3269  0.1972
  498TIP3    H122985   6.336   5.308  16.587  1.5101 -1.6870  1.2509
  498TIP3    H222986   6.287   5.209  16.483  0.0974  0.4866 -0.1974
  499TIP3   OH222987   3.211   6.058  11.095  1.1203 -0.3295  0.3191
  499TIP3    H122988   3.250   5.971  11.082  1.6253  0.2872 -2.4604
  499TIP3    H222989   3.124   6.051  11.057  1.4518  0.6011 -0.6278
  500TIP3   OH222990   4.056   3.741   3.532  0.2242 -0.2159 -1.0163
  500TIP3    H122991   4.029   3.650   3.548  0.7401 -0.1494  0.3493
  500TIP3    H222992   3.993   3.793   3.582 -0.2061  0.1945 -1.9791
  501TIP3   OH222993   2.776   0.202   0.971 -0.0898  0.1142  0.0107
  501TIP3    H122994   2.698   0.186   0.918 -0.5977  0.2066  0.7330
  501TIP3    H222995   2.784   0.124   1.026  0.2557  0.1591  0.0245
  502TIP3   OH222996   2.603   0.209   2.396  0.1211  0.2599  0.2236
  502TIP3    H122997   2.563   0.123   2.410  0.1875  0.4797  1.8467
  502TIP3    H222998   2.591   0.255   2.479  0.2562  1.7572 -0.5696
  503TIP3   OH222999   3.960   0.739  12.568 -0.3957 -0.4210 -0.3850
  503TIP3    H123000   3.992   0.727  12.658 -1.0286 -0.5379 -0.1715
  503TIP3    H223001   3.910   0.660  12.550 -2.3756  0.7138  0.0659
  504TIP3   OH223002   2.304   0.831  15.354 -0.0815 -0.3146  0.6294
  504TIP3    H123003   2.286   0.915  15.312 -1.3031  0.2093  2.1363
  504TIP3    H223004   2.386   0.801  15.314  0.9284  2.0890  0.8128
  505TIP3   OH223005   0.474   1.937   3.360 -0.1204 -0.0859  0.1280
  505TIP3    H123006   0.540   1.881   3.318  0.0993  1.8534 -2.2238
  505TIP3    H223007   0.519   2.021   3.373 -1.6810  0.8368 -0.2494
  506TIP3   OH223008   2.101   4.528   4.564 -0.0157 -0.4175 -0.3237
  506TIP3    H123009   2.167   4.551   4.629 -0.8353  1.0330  0.0257
  506TIP3    H223010   2.018   4.552   4.605 -0.5395  0.5149 -1.8915
  507TIP3   OH223011   0.569   5.938  16.461 -0.5962 -0.5209  0.2096
  507TIP3    H123012   0.591   5.847  16.481 -0.2763 -0.6612 -0.7802
  507TIP3    H223013   0.474   5.943  16.472 -0.9417 -1.5701 -2.0311
  508TIP3   OH223014   5.236   4.056   1.350  0.0641 -0.2345 -0.5053
  508TIP3    H123015   5.267   4.125   1.292  1.0515  0.1749  0.4933
  508TIP3    H223016   5.177   4.003   1.296  0.0543  0.8255 -1.5381
  509TIP3   OH223017   3.305   1.908   1.995  0.1313 -0.1419 -0.2318
  509TIP3    H123018   3.331   2.000   1.984 -0.5020  0.2650  1.4602
  509TIP3    H223019   3.386   1.862   2.012  0.2834  0.3622  0.4307
  510TIP3   OH223020   3.329   4.001  16.731  0.8506 -0.3479  0.1060
  510TIP3    H123021   3.285   4.050  16.800  1.6275  0.8805 -0.2481
  510TIP3    H223022   3.422   4.004  16.756  1.0618 -0.4279 -0.6525
  511TIP3   OH223023   6.175   2.843  13.780 -0.6360 -0.0852 -0.3160
  511TIP3    H123024   6.159   2.775  13.715 -0.5527 -1.8018  1.4094
  511TIP3    H223025   6.271   2.845  13.790 -0.7509 -1.2135  1.1616
  512TIP3   OH223026   4.162   0.552   0.864 -0.0252 -0.2179  0.4303
  512TIP3    H123027   4.126   0.546   0.952  0.2161  1.8974  0.7093
  512TIP3    H223028   4.225   0.480   0.858 -0.3952 -0.6628  1.8114
  513TIP3   OH223029   4.189   1.911   5.400 -0.4944  0.0232 -0.1690
  513TIP3    H123030   4.199   1.870   5.315 -2.4844 -0.6730 -0.0968
  513TIP3    H223031   4.278   1.920   5.433  0.0810 -3.2724 -0.6611
  514TIP3   OH223032   4.706   0.769  12.795 -0.2733 -0.6663  0.2750
  514TIP3    H123033   4.739   0.697  12.849  0.5451 -0.9474 -0.5796
  514TIP3    H223034   4.782   0.798  12.744 -1.0599 -0.5074 -0.8364
  515TIP3   OH223035   2.912   1.296   3.274  0.7055 -0.4379  0.1858
  515TIP3    H123036   3.007   1.298   3.264  0.7862 -0.8161  0.8640
  515TIP3    H223037   2.890   1.203   3.279  0.2110 -0.3786 -0.7929
  516TIP3   OH223038   5.885   1.517   0.440  0.1117  0.9931  0.0402
  516TIP3    H123039   5.958   1.456   0.429 -0.2757  0.3891  0.7367
  516TIP3    H223040   5.810   1.470   0.404 -0.2030  1.0373  0.6447
  517TIP3   OH223041   3.556   2.685  11.492  0.2488  0.1313 -0.2332
  517TIP3    H123042   3.623   2.724  11.435 -0.3140  1.2868 -0.1278
  517TIP3    H223043   3.607   2.635  11.556  0.9474 -0.1357 -0.9804
  518TIP3   OH223044   0.574   0.356  15.400 -0.6881  0.2732 -0.1051
  518TIP3    H123045   0.536   0.406  15.473  0.2231 -1.8290  1.9028
  518TIP3    H223046   0.637   0.416  15.360  0.4840  0.7448  2.3372
  519TIP3   OH223047   3.008   0.848  14.563 -0.4079  0.3749  0.2842
  519TIP3    H123048   2.924   0.810  14.536 -1.1517  1.9502  0.2971
  519TIP3    H223049   3.067   0.774  14.569 -1.7928 -0.7595  0.2117
  520TIP3   OH223050   0.095   4.846   5.690  0.2074  0.6986  0.7898
  520TIP3    H123051   0.106   4.781   5.621  1.6521 -1.4656  2.9713
  520TIP3    H223052   0.149   4.920   5.663  0.7590 -0.1362 -0.3904
  521TIP3   OH223053   2.103   1.256   1.041  0.0855  0.2271 -0.0841
  521TIP3    H123054   2.177   1.300   0.998  0.3368 -0.5403 -0.4562
  521TIP3    H223055   2.104   1.289   1.131  1.7614 -0.8448  0.3134
  522TIP3   OH223056   2.230   5.838  11.736 -0.2410  0.7421  0.7893
  522TIP3    H123057   2.316   5.869  11.765 -0.3417  1.2699  0.5223
  522TIP3    H223058   2.238   5.743  11.737  0.0604  0.7634  1.6517
  523TIP3   OH223059   1.663   1.016   5.461 -0.5149 -0.5226  0.2345
  523TIP3    H123060   1.740   1.054   5.503  0.5572 -0.2538 -1.8817
  523TIP3    H223061   1.653   0.930   5.502  0.9654 -0.5886  0.4886
  524TIP3   OH223062   4.620   1.947   6.010 -0.0886 -0.0362  0.0362
  524TIP3    H123063   4.668   1.939   6.092  0.4987  1.9624 -0.0899
  524TIP3    H223064   4.531   1.972   6.036 -0.3776 -1.1432  0.1384
  525TIP3   OH223065   2.805   3.630   2.096  0.1418  0.6240 -0.4942
  525TIP3    H123066   2.847   3.710   2.066  2.4655 -0.1755  0.4863
  525TIP3    H223067   2.838   3.617   2.185 -1.0315 -0.8644 -0.2460
  526TIP3   OH223068   6.772   1.053  10.413 -0.2766  0.4545  0.6757
  526TIP3    H123069   6.746   0.975  10.461 -0.9226  0.6471  0.6460
  526TIP3    H223070   6.815   1.021  10.334 -0.2143  0.1307  0.8433
  527TIP3   OH223071   1.240   0.833  12.976  0.3498 -0.2650 -0.4734
  527TIP3    H123072   1.197   0.876  12.903 -0.3793  1.7279  1.0615
  527TIP3    H223073   1.310   0.894  13.002  0.4432 -0.8119  0.6091
  528TIP3   OH223074   0.104   4.799  14.772  0.2291  0.4876  0.1657
  528TIP3    H123075   0.052   4.720  14.756 -0.4975  1.2610 -1.2644
  528TIP3    H223076   0.189   4.780  14.732 -0.5765  1.1819 -1.9407
  529TIP3   OH223077   4.655   2.639   5.144  0.3298 -0.1332  0.5092
  529TIP3    H123078   4.719   2.704   5.115  0.3426 -0.3802 -0.0231
  529TIP3    H223079   4.708   2.569   5.184  0.2146  1.0454  2.8403
  530TIP3   OH223080   0.850   0.098   0.566 -0.2180 -0.5750  0.3523
  530TIP3    H123081   0.901   0.159   0.512 -0.4036 -0.6396  0.1075
  530TIP3    H223082   0.886   0.110   0.655  0.6538 -1.0684  0.0769
  531TIP3   OH223083   4.165   1.623   2.035  0.4788  0.8772  0.2803
  531TIP3    H123084   4.107   1.635   2.110 -1.4176  0.7677 -1.1174
  531TIP3    H223085   4.163   1.528   2.019  0.2587  0.9924 -0.3792
  532TIP3   OH223086   4.132   4.194  16.798  0.1780  0.1790  0.2655
  532TIP3    H123087   4.061   4.140  16.765 -0.2360  0.5481  0.5464
  532TIP3    H223088   4.099   4.284  16.790  0.6129  0.3504  0.3884
  533TIP3   OH223089   3.678   2.505  11.852  0.3706 -0.3671 -0.2510
  533TIP3    H123090   3.672   2.440  11.923  1.7870 -0.1064  0.1062
  533TIP3    H223091   3.738   2.466  11.789  1.4742  0.7315  0.1113
  534TIP3   OH223092   4.497   5.257   1.651  0.2153  0.0846  0.5407
  534TIP3    H123093   4.466   5.222   1.734  0.2831  1.2596  1.0682
  534TIP3    H223094   4.573   5.202   1.630  0.4076 -0.0060  1.4263
  535TIP3   OH223095   4.297   3.982   0.359  0.2343 -0.4481  0.2627
  535TIP3    H123096   4.303   3.904   0.304  0.0308 -0.3187  0.0590
  535TIP3    H223097   4.345   3.959   0.439  1.7378 -0.1485 -0.5411
  536TIP3   OH223098   4.933   5.065  11.821 -0.3848  0.0857  0.5134
  536TIP3    H123099   5.013   5.055  11.872 -0.9968 -0.9032  1.3169
  536TIP3    H223100   4.941   5.000  11.751 -1.0671 -0.9944  1.3986
  537TIP3   OH223101   2.471   5.458  11.873  0.3816  0.0782  0.9259
  537TIP3    H123102   2.494   5.453  11.966 -0.4923  1.0855  1.2029
  537TIP3    H223103   2.385   5.500  11.872 -0.1040 -0.9142 -0.2741
  538TIP3   OH223104   1.946   4.562  14.591 -0.3895  0.1700  0.2567
  538TIP3    H123105   2.029   4.600  14.620  0.6259 -1.3019 -0.6394
  538TIP3    H223106   1.892   4.637  14.566  0.2292  1.2102  1.9518
  539TIP3   OH223107   1.345   6.393  12.519 -0.5336  0.5777 -0.8912
  539TIP3    H123108   1.329   6.406  12.426 -0.9111 -1.5748 -1.1421
  539TIP3    H223109   1.295   6.315  12.542 -0.2642  0.9452  1.0731
  540TIP3   OH223110   0.920   4.331  14.704 -0.0945 -0.1253 -0.0714
  540TIP3    H123111   0.858   4.258  14.705  0.6214 -0.7821  2.5531
  540TIP3    H223112   0.870   4.405  14.670 -0.9855 -1.7014 -2.2781
  541TIP3   OH223113   3.755   4.537  14.700 -0.7571 -0.4230  0.5572
  541TIP3    H123114   3.683   4.596  14.722 -0.2924  0.5096 -0.3442
  541TIP3    H223115   3.820   4.593  14.657  0.1521 -1.3996  0.6193
  542TIP3   OH223116   3.185   1.485   1.569  0.4660  0.0599 -0.2882
  542TIP3    H123117   3.275   1.506   1.544  0.2956 -1.6123 -2.4414
  542TIP3    H223118   3.193   1.404   1.621  0.2894  0.4029  0.2735
  543TIP3   OH223119   2.977   2.017   2.326  0.0228 -0.2207 -0.4397
  543TIP3    H123120   3.029   2.024   2.246  1.9479  2.5172  0.9358
  543TIP3    H223121   2.911   2.086   2.317  0.6269  0.5021  0.5571
  544TIP3   OH223122   2.090   1.148   4.125 -0.2613 -0.0418 -0.1321
  544TIP3    H123123   2.019   1.154   4.190  0.6952  1.3447  0.7962
  544TIP3    H223124   2.123   1.058   4.135 -0.4651 -0.0117  0.9594
  545TIP3   OH223125   6.546   0.104  12.260  0.2776  0.0406 -0.3633
  545TIP3    H123126   6.504   0.069  12.181 -1.4768 -1.4864  1.2137
  545TIP3    H223127   6.477   0.151  12.305  0.6949 -1.0117  1.4046
  546TIP3   OH223128   0.708   3.121  12.020  0.0488  0.2041  0.2708
  546TIP3    H123129   0.766   3.071  12.078 -1.0854  0.5836  1.7532
  546TIP3    H223130   0.628   3.134  12.071 -0.7754  1.0012 -1.1921
  547TIP3   OH223131   3.900   2.759   2.793 -0.0630 -0.2757  0.2843
  547TIP3    H123132   3.905   2.796   2.882  0.2903 -0.1350  0.2069
  547TIP3    H223133   3.841   2.818   2.746 -0.5722 -0.5766  0.5329
  548TIP3   OH223134   3.860   5.303  12.656  0.6022 -0.2341 -0.1186
  548TIP3    H123135   3.933   5.330  12.711  0.7278 -0.8207 -0.0061
  548TIP3    H223136   3.849   5.210  12.673  0.0349 -0.2179 -0.3769
  549TIP3   OH223137   3.048   0.198   2.806  0.1080  0.1879 -0.4759
  549TIP3    H123138   2.971   0.141   2.809  0.0923  0.1257 -1.8294
  549TIP3    H223139   3.122   0.138   2.813  0.0487  0.3010  1.5056
  550TIP3   OH223140   3.294   1.436   6.136 -0.0055  0.1251 -0.3601
  550TIP3    H123141   3.346   1.357   6.122  1.4027  0.6610  1.4934
  550TIP3    H223142   3.352   1.493   6.187 -0.0015  3.4191 -3.8461
  551TIP3   OH223143   2.376   2.468   1.073 -0.6703  0.1250  0.0421
  551TIP3    H123144   2.396   2.540   1.132 -0.5957 -1.0111  1.4367
  551TIP3    H223145   2.285   2.481   1.048 -0.7100  0.5974  0.4366
  552TIP3   OH223146   3.725   6.446   0.354 -1.0852 -0.3723 -0.0863
  552TIP3    H123147   3.784   6.508   0.310  0.1016 -1.4691 -0.0699
  552TIP3    H223148   3.679   6.401   0.282  0.3891 -1.7151 -0.2088
  553TIP3   OH223149   6.785   1.374   3.209 -0.2395  0.7810  0.4106
  553TIP3    H123150   6.829   1.330   3.282 -1.4258 -1.1321  0.0096
  553TIP3    H223151   6.702   1.327   3.199 -0.6078  1.7720 -1.4132
  554TIP3   OH223152   6.662   5.440   0.936  0.2261  0.0311 -0.2386
  554TIP3    H123153   6.736   5.487   0.975  1.3807 -1.1858 -0.9354
  554TIP3    H223154   6.701   5.361   0.898 -1.5560 -1.0275  0.0939
  555TIP3   OH223155   0.865   4.907  11.392  0.0882 -0.6786 -0.1908
  555TIP3    H123156   0.946   4.921  11.343 -0.0976  0.0043 -0.3070
  555TIP3    H223157   0.813   4.985  11.375  1.1600  0.9167  3.3737
  556TIP3   OH223158   1.306   5.353  16.495 -0.3340  0.2410 -0.2494
  556TIP3    H123159   1.256   5.424  16.456  0.3506  1.3140  0.7557
  556TIP3    H223160   1.307   5.373  16.589  0.5719 -0.6401 -0.0530
  557TIP3   OH223161   1.424   2.614  15.306 -0.6583  0.5442  0.2528
  557TIP3    H123162   1.471   2.581  15.383 -1.0174 -0.0381  0.2261
  557TIP3    H223163   1.342   2.649  15.341 -0.7153  0.5017  0.1611
  558TIP3   OH223164   3.150   2.593   0.994 -0.3127  0.4531  0.0677
  558TIP3    H123165   3.137   2.574   0.902 -0.4389 -1.8061  0.5312
  558TIP3    H223166   3.242   2.573   1.010 -0.0888  1.5967  0.2648
  559TIP3   OH223167   3.468   5.217   4.369  0.1955 -0.0063  0.2159
  559TIP3    H123168   3.387   5.239   4.415 -0.4495 -3.0225  0.5850
  559TIP3    H223169   3.528   5.191   4.439  0.1393 -1.7686 -0.3684
  560TIP3   OH223170   2.609   5.481  17.232  1.2363 -0.7078  0.5436
  560TIP3    H123171   2.598   5.387  17.242  2.0758 -1.1598 -2.3563
  560TIP3    H223172   2.562   5.502  17.152  1.3511  1.3026  0.9731
  561TIP3   OH223173   1.906   5.847  14.138 -0.4851 -0.0968  0.9350
  561TIP3    H123174   1.840   5.833  14.071  0.5753 -0.4777 -0.0559
  561TIP3    H223175   1.885   5.932  14.176 -1.7745 -0.4044  0.9058
  562TIP3   OH223176   1.337   0.734  14.185 -0.1167 -0.0518 -0.3583
  562TIP3    H123177   1.355   0.648  14.148 -0.6031 -1.0352  1.5955
  562TIP3    H223178   1.244   0.749  14.166 -0.3818 -0.5823  0.4721
  563TIP3   OH223179   0.326   2.018  15.833  0.4956  0.3926  0.5763
  563TIP3    H123180   0.311   1.943  15.776 -0.0459  0.9161  0.0134
  563TIP3    H223181   0.258   2.081  15.808  2.1504  1.8647 -0.3162
  564TIP3   OH223182   6.005   5.586  11.049 -0.3884  0.1825  0.5258
  564TIP3    H123183   5.969   5.500  11.026  1.3123 -0.5428  0.4893
  564TIP3    H223184   6.097   5.569  11.065 -0.2568  1.8365  1.5639
  565TIP3   OH223185   0.707   1.346   3.903 -0.1950 -0.6231  0.2071
  565TIP3    H123186   0.619   1.378   3.881  0.1583  0.3343  0.1911
  565TIP3    H223187   0.699   1.314   3.993 -0.1409  1.0492  0.8207
  566TIP3   OH223188   1.321   6.683  14.000  0.1900  0.1543  0.0006
  566TIP3    H123189   1.247   6.650  14.051 -0.1954 -1.5496 -1.6094
  566TIP3    H223190   1.397   6.671  14.057 -0.7202  1.7346  1.5856
  567TIP3   OH223191   4.327   6.203   4.060 -0.3732 -0.0368 -0.7805
  567TIP3    H123192   4.414   6.215   4.022  0.5288 -1.5675  0.7226
  567TIP3    H223193   4.341   6.145   4.135 -2.5764  0.3458 -0.0276
  568TIP3   OH223194   4.603   3.709   2.977  0.3161 -0.3382 -0.4445
  568TIP3    H123195   4.583   3.695   3.070 -2.2216 -2.6036 -1.2572
  568TIP3    H223196   4.634   3.800   2.972  0.1988 -0.0858  2.5442
  569TIP3   OH223197   1.253   6.619  16.466 -0.3128  0.7264 -0.0507
  569TIP3    H123198   1.219   6.706  16.488 -0.2995  0.6761  0.1747
  569TIP3    H223199   1.316   6.600  16.535 -0.8763  0.2157  0.3293
  570TIP3   OH223200   5.150   3.334  14.636  0.6080 -0.2290 -0.1812
  570TIP3    H123201   5.186   3.410  14.681  0.7443  0.7114 -1.8454
  570TIP3    H223202   5.220   3.304  14.579 -0.4013  0.1955 -1.6936
  571TIP3   OH223203   4.343   3.219   4.794 -0.7259  0.4570  0.2588
  571TIP3    H123204   4.363   3.312   4.785 -1.5431  0.5937 -0.2105
  571TIP3    H223205   4.424   3.180   4.826 -0.4192  1.3525  0.6026
  572TIP3   OH223206   4.044   4.733  12.601 -0.7345  0.1255  0.2000
  572TIP3    H123207   4.103   4.680  12.547 -1.5563 -0.9662  0.3568
  572TIP3    H223208   3.998   4.669  12.655 -0.3986  1.1471  1.7248
  573TIP3   OH223209   3.721   5.735   1.903  0.7202  0.4374  0.1569
  573TIP3    H123210   3.739   5.827   1.920 -1.2849  0.9153 -0.2139
  573TIP3    H223211   3.750   5.721   1.813  0.8241  0.7509  0.1412
  574TIP3   OH223212   4.458   3.799  14.259  0.0951  0.6788 -0.0317
  574TIP3    H123213   4.419   3.742  14.326  0.1798 -2.4342 -2.4822
  574TIP3    H223214   4.392   3.866  14.243 -1.5873 -0.8134  0.4319
  575TIP3   OH223215   2.695   4.249  13.187 -0.4516 -0.3731 -0.5396
  575TIP3    H123216   2.694   4.179  13.121 -1.5471 -0.2707 -0.6278
  575TIP3    H223217   2.706   4.202  13.270  1.1922 -0.4859 -0.7892
  576TIP3   OH223218   4.801   5.514   4.206 -0.1245 -0.3982 -0.1548
  576TIP3    H123219   4.888   5.475   4.217  1.0208  1.6042 -1.8377
  576TIP3    H223220   4.795   5.533   4.113 -2.1282  0.0691  0.0562
  577TIP3   OH223221   6.703   1.170  11.911  0.4212 -0.3828 -0.6768
  577TIP3    H123222   6.718   1.080  11.940  1.5641 -0.3517 -1.1343
  577TIP3    H223223   6.652   1.161  11.831  1.0286 -0.6554 -1.0380
  578TIP3   OH223224   2.195   5.717  16.653 -0.1989  0.2336  0.5780
  578TIP3    H123225   2.169   5.790  16.710  2.4328  0.2723  1.8117
  578TIP3    H223226   2.223   5.759  16.571 -0.9807  0.4233  0.4079
  579TIP3   OH223227   1.106   2.495   0.895  0.3598  0.0067 -0.1321
  579TIP3    H123228   1.113   2.448   0.978 -0.5036 -1.3447 -0.8133
  579TIP3    H223229   1.178   2.559   0.897 -1.4443  2.0195  2.9268
  580TIP3   OH223230   3.490   5.353  12.818 -0.1903 -0.7418  0.2895
  580TIP3    H123231   3.498   5.258  12.808 -0.6759 -0.6159 -1.4357
  580TIP3    H223232   3.543   5.373  12.895  0.6618 -2.2993  0.1336
  581TIP3   OH223233   0.341   1.689  11.079  0.0219  0.3626 -0.1785
  581TIP3    H123234   0.401   1.740  11.134 -0.0707 -1.3576  1.5769
  581TIP3    H223235   0.265   1.745  11.068 -1.2036 -0.2797  3.9053
  582TIP3   OH223236   3.893   0.336  16.239  0.2810  0.3996  0.4258
  582TIP3    H123237   3.898   0.274  16.312 -1.1434 -0.2834 -0.0479
  582TIP3    H223238   3.800   0.356  16.230  0.3055 -0.3816 -1.9058
  583TIP3   OH223239   0.313   3.653  15.483 -0.7032 -0.2404 -0.5231
  583TIP3    H123240   0.325   3.728  15.541 -0.5424 -1.0817  0.5464
  583TIP3    H223241   0.318   3.689  15.395 -0.6599  1.0076 -0.0108
  584TIP3   OH223242   5.452   1.267  12.359  0.2146  0.0741  0.2056
  584TIP3    H123243   5.458   1.219  12.442 -0.8821 -0.1285  0.1721
  584TIP3    H223244   5.380   1.225  12.312  0.1633  0.8495 -0.4112
  585TIP3   OH223245   0.161   2.348  11.987 -0.2748 -0.0169 -0.4358
  585TIP3    H123246   0.128   2.413  12.049 -0.4293 -0.9928  0.5158
  585TIP3    H223247   0.096   2.349  11.915 -0.3283  0.7937 -0.3880
  586TIP3   OH223248   2.694   6.378   3.483  0.7417 -0.4265  0.2578
  586TIP3    H123249   2.674   6.458   3.435  1.9019  0.9283  1.9562
  586TIP3    H223250   2.668   6.396   3.573  1.3437 -1.8321  0.7409
  587TIP3   OH223251   4.408   6.634  15.915  0.1074  0.5691  0.0925
  587TIP3    H123252   4.442   6.547  15.894 -0.3893  0.3931  0.0125
  587TIP3    H223253   4.474   6.673  15.972  0.5677  0.3272 -0.2685
  588TIP3   OH223254   2.787   4.914   4.277 -0.1845  0.0610  0.3336
  588TIP3    H123255   2.770   4.829   4.317  1.2075 -0.3112  0.1621
  588TIP3    H223256   2.703   4.960   4.281 -1.0594 -1.4735  0.0512
  589TIP3   OH223257   0.194   1.952   3.238  0.2793  0.2916 -0.3093
  589TIP3    H123258   0.275   1.982   3.279 -0.4974  0.3330  1.2288
  589TIP3    H223259   0.204   1.857   3.231  0.6448  0.3450 -0.5679
  590TIP3   OH223260   2.121   6.156   5.367  0.0264 -0.0303 -0.5849
  590TIP3    H123261   2.204   6.203   5.377  0.0259 -0.1043 -0.2371
  590TIP3    H223262   2.073   6.175   5.448  0.8924 -2.3685  0.5036
  591TIP3   OH223263   4.836   6.098   4.881 -0.2650 -0.1963  0.3737
  591TIP3    H123264   4.901   6.129   4.817 -2.5821  0.8115 -1.5826
  591TIP3    H223265   4.887   6.081   4.960  2.8678 -2.3586 -1.9626
  592TIP3   OH223266   5.039   1.252  17.085  0.2190 -0.0266  0.7571
  592TIP3    H123267   5.065   1.169  17.045 -0.9011  1.3696 -3.1132
  592TIP3    H223268   4.945   1.243  17.100 -0.4037  1.3377 -1.9688
  593TIP3   OH223269   0.445   4.634   4.429 -0.1747 -0.2774 -0.7230
  593TIP3    H123270   0.380   4.675   4.486  1.5547  1.6359 -0.0356
  593TIP3    H223271   0.403   4.554   4.397 -2.4247  0.3503  0.5595
  594TIP3   OH223272   4.968   0.924   2.664  0.0563 -0.1139  0.0744
  594TIP3    H123273   4.882   0.965   2.675  0.2127  0.5004 -0.8992
  594TIP3    H223274   5.013   0.939   2.747 -0.4631  0.3450  0.2762
  595TIP3   OH223275   4.287   1.316   4.742 -0.3970 -0.7222  0.0561
  595TIP3    H123276   4.220   1.338   4.678  0.8428 -0.4136 -1.1571
  595TIP3    H223277   4.329   1.237   4.708 -1.2591 -1.9264  1.6807
  596TIP3   OH223278   4.930   5.908   3.047 -0.1918 -0.0414 -0.5260
  596TIP3    H123279   4.888   5.896   2.962  2.9384 -0.8870 -1.9939
  596TIP3    H223280   4.989   5.982   3.036  0.5378 -0.3998  0.7751
  597TIP3   OH223281   5.342   5.045   4.556 -0.0942  0.2133  0.1384
  597TIP3    H123282   5.299   5.007   4.633 -0.0118 -0.4790 -0.1537
  597TIP3    H223283   5.362   5.135   4.582 -1.4620  0.4555  0.3765
  598TIP3   OH223284   3.520   1.173   1.233 -0.1729 -0.1666  0.1726
  598TIP3    H123285   3.562   1.199   1.150  1.2482  1.5847  1.3897
  598TIP3    H223286   3.458   1.104   1.208  0.2481  0.3035 -2.3410
  599TIP3   OH223287   1.741   5.891   4.914  0.1755 -0.0937  0.3848
  599TIP3    H123288   1.788   5.883   4.996  0.4951 -0.0040  0.2103
  599TIP3    H223289   1.805   5.869   4.846 -0.3757 -1.2300  0.2218
  600TIP3   OH223290   3.719   2.346   3.320 -0.5115 -0.2444 -0.6973
  600TIP3    H123291   3.755   2.400   3.249 -0.6114 -0.0811 -0.6225
  600TIP3    H223292   3.790   2.339   3.383 -1.0211  1.0962  0.0269
  601TIP3   OH223293   0.200   6.277  11.114 -0.3598  0.0752  0.3823
  601TIP3    H123294   0.292   6.254  11.104 -0.6747 -0.8695 -0.5361
  601TIP3    H223295   0.189   6.355  11.060 -0.8010 -1.7447 -2.2680
  602TIP3   OH223296   1.158   0.808  15.030 -0.2571 -0.0683 -0.9301
  602TIP3    H123297   1.099   0.763  14.969 -2.1423 -0.8286  1.3620
  602TIP3    H223298   1.124   0.785  15.117  1.7000  1.8570  0.3891
  603TIP3   OH223299   5.556   1.078   3.458  0.1514  0.3502 -0.3277
  603TIP3    H123300   5.546   1.112   3.370  0.7490  0.7659 -0.2357
  603TIP3    H223301   5.593   0.991   3.446  0.9546  0.7108 -0.4540
  604TIP3   OH223302   2.911   1.278   2.188 -0.6917  0.5579  0.0847
  604TIP3    H123303   2.945   1.357   2.144 -0.9964  0.0929 -1.0036
  604TIP3    H223304   2.984   1.216   2.184 -0.1283  1.0976  1.7817
  605TIP3   OH223305   1.263   4.357   0.045  0.4394 -0.2228  0.1959
  605TIP3    H123306   1.189   4.322  -0.004  0.2148  0.6114 -0.0499
  605TIP3    H223307   1.292   4.433  -0.005  1.4383 -0.5250  0.3101
  606TIP3   OH223308   1.697   1.517  12.305  0.5614 -0.0501  0.2073
  606TIP3    H123309   1.692   1.424  12.283  1.0660  0.0755 -0.4660
  606TIP3    H223310   1.638   1.528  12.379  0.6847 -0.9563  0.4425
  607TIP3   OH223311   4.556   1.680  13.897 -0.2026  0.0168 -0.1934
  607TIP3    H123312   4.470   1.698  13.933  0.9951  0.4660  2.5804
  607TIP3    H223313   4.585   1.599  13.940  1.9222  1.4383  1.1920
  608TIP3   OH223314   4.315   6.059  11.311  0.0157 -0.4571  0.8879
  608TIP3    H123315   4.232   6.033  11.350 -0.4561  1.9356  1.5756
  608TIP3    H223316   4.293   6.136  11.258  1.6350 -0.3211  0.3895
  609TIP3   OH223317   4.107   3.695   4.591  0.1778  0.0953 -0.2097
  609TIP3    H123318   4.051   3.722   4.664  0.2161 -1.5487  0.4565
  609TIP3    H223319   4.185   3.750   4.599  0.4551 -0.4953  1.3845
  610TIP3   OH223320   3.075   3.241   2.989 -0.2401  0.2416  0.3065
  610TIP3    H123321   3.082   3.153   3.027  1.2695 -0.1619 -0.8323
  610TIP3    H223322   3.012   3.230   2.917  0.4204 -0.0731 -0.2357
  611TIP3   OH223323   0.042   5.403   2.162 -0.3520 -0.3154 -0.0673
  611TIP3    H123324   0.016   5.493   2.140  1.6676  0.3869  0.2512
  611TIP3    H223325  -0.018   5.348   2.113 -0.9805  1.2285 -1.0894
  612TIP3   OH223326   3.320   3.132  11.600  0.2190  0.3612 -0.7659
  612TIP3    H123327   3.276   3.089  11.673  1.1880  1.0325  0.2207
  612TIP3    H223328   3.255   3.131  11.530 -0.6924 -0.3621  0.0715
  613TIP3   OH223329   6.260   5.747   1.206  0.2409  0.1537  0.5575
  613TIP3    H123330   6.178   5.698   1.214 -1.1170  1.8311 -2.3899
  613TIP3    H223331   6.327   5.681   1.191 -0.6741 -1.1699  2.1125
  614TIP3   OH223332   1.300   4.134   1.086  0.2208  0.1566  0.5125
  614TIP3    H123333   1.278   4.105   0.998  0.5753 -2.0418  1.1085
  614TIP3    H223334   1.330   4.224   1.076  2.4909 -0.8281 -1.9395
  615TIP3   OH223335   0.013   6.755  12.650 -0.1052 -0.2069 -0.3514
  615TIP3    H123336   0.073   6.761  12.725 -0.4728  2.0429 -0.2025
  615TIP3    H223337  -0.066   6.716  12.686  0.2587 -0.5182  0.1092
  616TIP3   OH223338   5.147   3.315   1.419  0.3378  1.0161  0.4787
  616TIP3    H123339   5.186   3.308   1.506  1.5285  1.1856 -0.0243
  616TIP3    H223340   5.055   3.334   1.435  0.4598  0.6086  1.7021
  617TIP3   OH223341   5.735   2.470   5.786  0.5187 -0.3792 -0.2339
  617TIP3    H123342   5.811   2.483   5.842  0.4825 -0.1648 -0.2363
  617TIP3    H223343   5.728   2.550   5.735  1.2908 -1.0637 -1.4470
  618TIP3   OH223344   5.267   4.574   2.503 -0.1751 -0.7876 -0.5347
  618TIP3    H123345   5.355   4.573   2.542 -0.0656  1.6413 -0.6015
  618TIP3    H223346   5.209   4.556   2.577  0.2138  0.8890  0.2280
  619TIP3   OH223347   5.387   3.328   1.013 -0.0927  0.3217  0.5849
  619TIP3    H123348   5.340   3.347   0.932  0.3657  0.6951  0.4025
  619TIP3    H223349   5.466   3.282   0.984  0.4720  1.1772  0.7503
  620TIP3   OH223350   0.417   5.156   0.578  0.1551 -0.1400  0.1672
  620TIP3    H123351   0.405   5.138   0.485  0.7632 -1.0597  0.2623
  620TIP3    H223352   0.474   5.086   0.609  0.6387  0.6398  1.0544
  621TIP3   OH223353   0.153   4.175   4.279  0.5755  0.3799 -0.0356
  621TIP3    H123354   0.078   4.143   4.229  0.8050  1.2068 -0.9110
  621TIP3    H223355   0.166   4.108   4.347 -0.0965 -0.4504 -0.7105
  622TIP3   OH223356   5.469   3.816  15.046  0.1404  0.2799 -0.3365
  622TIP3    H123357   5.527   3.757  14.999  0.6618 -1.3792  2.2516
  622TIP3    H223358   5.513   3.832  15.129 -2.4344  0.0672  1.1388
  623TIP3   OH223359   5.263   2.540   0.689  0.4339  0.7929  0.1249
  623TIP3    H123360   5.247   2.545   0.594 -0.1982  0.1185  0.1838
  623TIP3    H223361   5.306   2.455   0.701 -1.9740 -0.3953  0.7420
  624TIP3   OH223362   5.079   2.823   4.139  0.0894  0.0705  0.0642
  624TIP3    H123363   4.984   2.835   4.139 -0.1189 -1.4733 -0.0745
  624TIP3    H223364   5.113   2.897   4.190 -1.3560 -0.6294  2.1013
  625TIP3   OH223365   2.186   1.242   3.522  0.3140 -0.2710 -0.1691
  625TIP3    H123366   2.105   1.197   3.499  0.1095 -0.2889  0.5817
  625TIP3    H223367   2.162   1.334   3.525 -0.0102 -0.3985  1.4348
  626TIP3   OH223368   3.311   5.806   2.886  0.0117  0.5866 -0.1339
  626TIP3    H123369   3.240   5.794   2.949 -0.2873 -1.8363 -0.8825
  626TIP3    H223370   3.270   5.795   2.801  1.0687  0.3216 -0.6183
  627TIP3   OH223371   0.282   1.951   1.893  0.4119  0.2547  0.2306
  627TIP3    H123372   0.339   1.899   1.949  1.3967  0.0333 -0.9494
  627TIP3    H223373   0.341   2.011   1.847 -0.3989  0.5961 -0.3950
  628TIP3   OH223374   4.977   3.955  15.680  0.6342  0.1096 -0.1531
  628TIP3    H123375   4.976   3.954  15.776  0.1877  2.6637 -0.1165
  628TIP3    H223376   4.939   3.871  15.655  1.7160 -1.0315  1.8976
  629TIP3   OH223377   6.692   6.376  17.277 -0.1773  0.3743 -0.6501
  629TIP3    H123378   6.778   6.335  17.273  0.9729  2.6424  0.3216
  629TIP3    H223379   6.678   6.410  17.188  0.0735  0.2865 -0.7254
  630TIP3   OH223380   6.346   0.542   6.054  0.1495  0.6357 -0.0732
  630TIP3    H123381   6.356   0.483   6.128  0.6937  0.4216 -0.3149
  630TIP3    H223382   6.405   0.615   6.074  0.6214  0.3755 -0.4941
  631TIP3   OH223383   4.728   4.421   0.701 -0.1851  0.2027 -0.6993
  631TIP3    H123384   4.796   4.414   0.633  1.8354 -0.3793  1.3042
  631TIP3    H223385   4.665   4.352   0.679  1.4185 -1.2115 -0.9547
  632TIP3   OH223386   6.161   3.641  11.915 -0.1974 -0.2280 -0.2127
  632TIP3    H123387   6.205   3.725  11.907 -0.9510  0.1483 -0.4670
  632TIP3    H223388   6.227   3.576  11.892  1.3117  0.0928  2.9666
  633TIP3   OH223389   1.874   3.218  11.656  0.0356  0.0108 -0.2518
  633TIP3    H123390   1.840   3.170  11.581 -0.3233 -0.3767  0.1579
  633TIP3    H223391   1.955   3.258  11.624  0.3514 -0.8904 -0.5766
  634TIP3   OH223392   6.384   2.299  13.351 -0.7526  0.0433 -0.1692
  634TIP3    H123393   6.326   2.263  13.284 -0.3452 -0.9424 -0.0076
  634TIP3    H223394   6.385   2.232  13.420 -0.3256  0.5665  0.3345
  635TIP3   OH223395   5.657   4.114  14.933  0.0134  0.0405 -0.4934
  635TIP3    H123396   5.589   4.058  14.893  0.6263 -0.2150 -1.1918
  635TIP3    H223397   5.634   4.202  14.904 -1.1841  0.2122  0.9343
  636TIP3   OH223398   6.005   5.616  13.379  0.1281  0.3138  0.3351
  636TIP3    H123399   5.935   5.583  13.322  0.2428  0.7062 -0.0344
  636TIP3    H223400   6.074   5.550  13.372 -0.9912 -1.1045  2.2763
  637TIP3   OH223401   3.309   4.638   1.508  0.2610 -0.0658 -0.6018
  637TIP3    H123402   3.281   4.729   1.513  0.2772 -0.1108  0.3525
  637TIP3    H223403   3.334   4.616   1.597  0.4378 -0.9507 -0.8680
  638TIP3   OH223404   3.649   3.201   3.586  0.6653 -0.1192 -0.5309
  638TIP3    H123405   3.692   3.245   3.513  1.1146 -1.2923 -0.9825
  638TIP3    H223406   3.566   3.249   3.597  0.8636  0.4465 -1.4033
  639TIP3   OH223407   4.264   1.614  14.529 -0.3121  0.1004 -0.0020
  639TIP3    H123408   4.337   1.643  14.474  0.2107 -0.4737  0.3867
  639TIP3    H223409   4.305   1.575  14.605 -1.0364  0.9861  0.8541
  640TIP3   OH223410   0.055   3.946   5.328 -0.5016  0.3681 -0.4117
  640TIP3    H123411  -0.006   3.876   5.353  1.1149 -0.7228  0.5334
  640TIP3    H223412   0.024   3.975   5.242 -3.8918  1.5831  1.1002
  641TIP3   OH223413   0.596   3.696   2.711 -0.1523 -0.1681  0.0855
  641TIP3    H123414   0.634   3.694   2.798  0.1392  0.2256 -0.0316
  641TIP3    H223415   0.579   3.789   2.694 -0.5699 -0.2809 -0.1180
  642TIP3   OH223416   5.818   5.476  16.316  0.5231 -0.3944 -0.3886
  642TIP3    H123417   5.901   5.509  16.352  0.6135 -0.8509 -0.1669
  642TIP3    H223418   5.799   5.533  16.242  1.0597 -0.3077 -0.4636
  643TIP3   OH223419   6.021   1.946  13.504 -0.3856  0.3265 -0.1060
  643TIP3    H123420   5.930   1.943  13.474  0.1079 -0.9668 -1.5246
  643TIP3    H223421   6.066   2.000  13.438 -0.1342  1.0900  0.6720
  644TIP3   OH223422   3.586   5.030   5.379 -0.7071  0.4247 -0.3334
  644TIP3    H123423   3.587   4.946   5.332 -1.2845  0.6627 -0.7810
  644TIP3    H223424   3.675   5.062   5.373 -0.3612 -0.3797  0.2512
  645TIP3   OH223425   4.777   4.126   1.477 -0.5936  0.2907  0.2695
  645TIP3    H123426   4.744   4.194   1.535 -1.8144 -1.1051  1.2585
  645TIP3    H223427   4.729   4.138   1.395 -1.0314  0.4296  0.5474
  646TIP3   OH223428   0.802   5.859   6.216 -0.0551  0.2078  0.0339
  646TIP3    H123429   0.758   5.857   6.301  0.8770  0.0094  0.5174
  646TIP3    H223430   0.879   5.804   6.227 -0.0458 -0.0032 -1.0112
  647TIP3   OH223431   2.581   0.410  11.156  0.0156 -0.1493  0.2580
  647TIP3    H123432   2.657   0.467  11.144  0.2776 -0.5189  0.1192
  647TIP3    H223433   2.537   0.411  11.071 -1.2985  1.6997  0.9384
  648TIP3   OH223434   6.411   2.541  11.705 -0.4190  0.2842  0.3877
  648TIP3    H123435   6.341   2.495  11.752 -0.2497 -1.0641 -0.6423
  648TIP3    H223436   6.444   2.477  11.643  0.6118  1.4554 -0.2964
  649TIP3   OH223437   6.078   4.881  16.083  0.4517  0.0799 -0.6422
  649TIP3    H123438   6.043   4.912  16.166  0.1491 -1.0656 -0.3264
  649TIP3    H223439   6.133   4.953  16.051  1.1310  0.2659  0.8876
  650TIP3   OH223440   2.427   4.835   0.690  0.5443  0.1349  0.5253
  650TIP3    H123441   2.395   4.883   0.767  0.7655  0.2181  0.5666
  650TIP3    H223442   2.479   4.763   0.727 -0.7528 -0.8421  0.4934
  651TIP3   OH223443   5.634   4.421  16.423  0.2771  0.0449  0.0768
  651TIP3    H123444   5.540   4.410  16.442  0.0639  1.3750 -0.2025
  651TIP3    H223445   5.658   4.501  16.468  1.4623 -0.6750  0.7402
  652TIP3   OH223446   3.479   1.638   2.090 -0.7504 -0.2462  0.1122
  652TIP3    H123447   3.421   1.603   2.023  0.6587 -0.9930 -0.7449
  652TIP3    H223448   3.436   1.618   2.173 -2.1362  0.0001 -0.5431
  653TIP3   OH223449   4.584   5.167   5.879 -0.5070  0.1951 -0.3281
  653TIP3    H123450   4.529   5.156   5.801 -0.0977 -1.8920 -0.3445
  653TIP3    H223451   4.616   5.257   5.873 -2.7526  0.9774 -1.0816
  654TIP3   OH223452   4.601   3.304  14.276 -0.0377  0.3145  0.0836
  654TIP3    H123453   4.635   3.218  14.250  0.4383  0.2964  0.7554
  654TIP3    H223454   4.612   3.359  14.198 -1.4043 -0.5380 -0.7261
  655TIP3   OH223455   3.040   3.075  14.838  0.0078  0.0197 -0.0429
  655TIP3    H123456   3.090   3.060  14.918  0.3386  0.7837 -0.0993
  655TIP3    H223457   3.005   2.989  14.814  1.2432 -0.5060  0.0324
  656TIP3   OH223458   1.514   3.016  16.944 -0.1104 -0.8634  0.2231
  656TIP3    H123459   1.506   3.018  17.039 -0.9517 -0.5308  0.1543
  656TIP3    H223460   1.438   3.067  16.913  2.2056  2.3097 -0.5323
  657TIP3   OH223461   4.521   1.566   2.866  0.3348 -0.4066 -0.0414
  657TIP3    H123462   4.588   1.508   2.902  0.3175 -0.6600 -0.4266
  657TIP3    H223463   4.530   1.559   2.771  0.8981  0.8692 -0.0898
  658TIP3   OH223464   4.770   2.715   2.863 -0.0294  0.1237 -0.1176
  658TIP3    H123465   4.846   2.773   2.862  0.0011  0.2402  2.8572
  658TIP3    H223466   4.698   2.767   2.829  1.1286  0.1304 -2.6215
  659TIP3   OH223467   6.072   1.664  15.516 -0.1626  0.4939 -0.3224
  659TIP3    H123468   6.084   1.728  15.445  0.5851 -0.0939 -0.7284
  659TIP3    H223469   6.151   1.610  15.513 -2.2690 -2.6085 -2.1436
  660TIP3   OH223470   4.226   2.977  13.646 -1.1318  0.6492 -0.3252
  660TIP3    H123471   4.220   2.910  13.714 -0.7104 -0.3554 -1.2481
  660TIP3    H223472   4.220   3.060  13.692 -1.8207 -0.0330  0.8313
  661TIP3   OH223473   2.804   1.236  13.177 -0.3065 -0.7833  0.2424
  661TIP3    H123474   2.760   1.230  13.262  0.2472 -0.8732  0.5253
  661TIP3    H223475   2.819   1.145  13.152  0.3022 -0.7450  0.4543
  662TIP3   OH223476   0.911   5.978   2.270 -0.2183  0.0136  0.8226
  662TIP3    H123477   0.835   5.921   2.259 -0.8215  1.1180 -0.8873
  662TIP3    H223478   0.881   6.064   2.240  0.9490  1.0357  2.5076
  663TIP3   OH223479   0.246   4.998  16.073 -0.1894 -0.0783  0.6358
  663TIP3    H123480   0.175   4.934  16.081 -1.5584  1.5214  1.8022
  663TIP3    H223481   0.235   5.056  16.149  1.1962  1.3360 -0.2005
  664TIP3   OH223482   4.323   1.386   1.392  0.4030 -0.4246  0.0473
  664TIP3    H123483   4.312   1.372   1.298  1.1376  1.4940 -0.3374
  664TIP3    H223484   4.387   1.456   1.399  0.7691 -0.9195  1.9995
  665TIP3   OH223485   5.060   2.900  14.502  0.1273 -0.0366  0.1057
  665TIP3    H123486   5.078   2.856  14.419 -0.5324  1.8257 -1.0659
  665TIP3    H223487   4.969   2.931  14.494  0.9686  2.6205  0.3425
  666TIP3   OH223488   5.648   2.270  15.138  0.2476  0.5299  0.2676
  666TIP3    H123489   5.662   2.331  15.066  0.3798  2.0051  1.5177
  666TIP3    H223490   5.577   2.308  15.189  1.7101  0.7688  2.2179
  667TIP3   OH223491   6.549   4.777  13.555 -0.3377 -0.0933  0.1637
  667TIP3    H123492   6.586   4.759  13.642  0.1628  0.4426  0.0656
  667TIP3    H223493   6.458   4.803  13.573 -0.3121 -0.2342  0.5094
  668TIP3   OH223494   0.711   3.128  11.395 -0.0776 -0.2158 -0.4345
  668TIP3    H123495   0.787   3.161  11.345  0.1000 -1.2926 -0.8817
  668TIP3    H223496   0.720   3.033  11.392  0.0982 -0.3043  1.9150
  669TIP3   OH223497   2.197   4.839  16.104  0.3520  0.5400  0.1286
  669TIP3    H123498   2.274   4.807  16.057  1.0677  1.9155  0.3650
  669TIP3    H223499   2.149   4.759  16.127 -0.1574 -0.1936 -3.1168
  670TIP3   OH223500   4.945   0.383   3.231 -0.3484 -0.1218 -0.4312
  670TIP3    H123501   4.852   0.397   3.251 -0.6047 -1.4612 -0.5787
  670TIP3    H223502   4.948   0.293   3.197  1.2150 -0.6789  1.0820
  671TIP3   OH223503   6.538   5.973  16.245  0.6094  0.1967  0.1073
  671TIP3    H123504   6.618   5.929  16.218 -2.2447 -3.8840 -2.3950
  671TIP3    H223505   6.536   6.054  16.192  0.8567 -1.9821 -3.4244
  672TIP3   OH223506   5.153   4.834  12.344 -0.3769 -0.4062 -0.5848
  672TIP3    H123507   5.144   4.897  12.272  2.1963  1.0806  0.3394
  672TIP3    H223508   5.242   4.846  12.376 -0.6519 -2.8074  1.2531
  673TIP3   OH223509   4.314   3.912   3.619  0.0170  0.3589  0.0270
  673TIP3    H123510   4.265   3.835   3.647 -0.4098  1.1250  1.4877
  673TIP3    H223511   4.295   3.978   3.686  0.3177  1.7557 -1.2274
  674TIP3   OH223512   2.525   4.204   0.454  0.0413 -0.0006  0.1371
  674TIP3    H123513   2.525   4.121   0.502  0.0794  0.5594  1.1324
  674TIP3    H223514   2.616   4.234   0.457  0.0752 -0.0484 -0.4325
  675TIP3   OH223515   5.511   3.257   2.836 -0.2829  0.6356 -0.0599
  675TIP3    H123516   5.530   3.202   2.912 -1.1064  0.6569  0.1667
  675TIP3    H223517   5.588   3.313   2.826  0.5435 -0.5093 -0.2479
  676TIP3   OH223518   4.877   2.801   3.671 -0.3663 -0.1987 -0.2381
  676TIP3    H123519   4.878   2.709   3.646  1.9980 -0.1502 -0.4704
  676TIP3    H223520   4.948   2.840   3.620  1.0001  1.0148  2.5087
  677TIP3   OH223521   3.082   2.506   4.448  0.2797  0.9557  0.4295
  677TIP3    H123522   3.059   2.566   4.377 -0.4728  0.4762  0.2553
  677TIP3    H223523   3.023   2.431   4.435  0.3221  0.7508  1.4053
  678TIP3   OH223524   5.814   1.611  11.896 -0.5557  0.5244  0.0370
  678TIP3    H123525   5.810   1.545  11.965 -1.4907  1.1200  0.5642
  678TIP3    H223526   5.853   1.688  11.938 -1.3918  0.9803 -0.0136
  679TIP3   OH223527   1.324   4.976   4.137 -0.3575 -0.2666 -0.0122
  679TIP3    H123528   1.394   4.915   4.113  0.4128  0.1662  1.1258
  679TIP3    H223529   1.316   5.033   4.061 -0.5936 -1.3207 -0.8051
  680TIP3   OH223530   2.666   4.790  12.461  0.3351 -0.3919  0.0847
  680TIP3    H123531   2.709   4.874  12.446  1.1726 -0.6383  1.0546
  680TIP3    H223532   2.733   4.724  12.442 -0.1447 -0.8263 -0.1290
  681TIP3   OH223533   6.073   4.701   1.734 -0.1959 -0.1368 -0.7218
  681TIP3    H123534   6.105   4.704   1.823 -0.5995  1.7423 -0.6191
  681TIP3    H223535   5.978   4.698   1.743 -0.1877 -1.6300 -1.0709
  682TIP3   OH223536   0.474   6.537   2.866 -0.0121  0.3881  0.1655
  682TIP3    H123537   0.537   6.474   2.901  0.0967 -0.5535 -1.6654
  682TIP3    H223538   0.500   6.549   2.775  0.2877  3.4996  0.6006
  683TIP3   OH223539   4.332   5.871  16.708 -0.6121  0.3913 -0.5174
  683TIP3    H123540   4.396   5.942  16.716  1.2066 -1.1550 -0.9874
  683TIP3    H223541   4.293   5.884  16.621  1.0879 -0.2743 -1.3997
  684TIP3   OH223542   0.240   2.596  16.461 -0.2072 -0.0874  0.8450
  684TIP3    H123543   0.153   2.631  16.482 -0.0046  0.8155  0.2089
  684TIP3    H223544   0.284   2.591  16.546 -0.7654 -0.2200  1.1303
  685TIP3   OH223545   0.432   4.246   4.559  0.0910  0.0574 -0.3443
  685TIP3    H123546   0.384   4.224   4.638 -1.3614 -2.2934 -1.8241
  685TIP3    H223547   0.502   4.181   4.554  1.2720  1.2720 -0.1011
  686TIP3   OH223548   5.550   4.682   3.655  0.3716  0.5073 -0.2992
  686TIP3    H123549   5.568   4.645   3.568 -0.1715 -0.4234 -0.0240
  686TIP3    H223550   5.636   4.710   3.687  0.8183 -0.6319 -0.4727
  687TIP3   OH223551   5.312   4.625  12.903 -0.1772  0.3403 -0.2072
  687TIP3    H123552   5.247   4.556  12.893  1.1736 -0.7284 -1.7308
  687TIP3    H223553   5.305   4.652  12.995 -3.2753  0.7643 -0.5291
  688TIP3   OH223554   0.215   3.340  12.200  0.2400 -0.2689  0.6412
  688TIP3    H123555   0.125   3.363  12.224  0.5630 -0.0616  1.6867
  688TIP3    H223556   0.239   3.403  12.132 -1.1518 -1.6942 -1.2242
  689TIP3   OH223557   3.474   6.808   3.767 -0.6707  0.2900 -0.0341
  689TIP3    H123558   3.454   6.738   3.704  1.5215  0.8961 -1.4316
  689TIP3    H223559   3.465   6.889   3.717  0.5287  0.8090  0.5820
  690TIP3   OH223560   1.204   5.606   4.048 -0.6111  0.2418  0.0565
  690TIP3    H123561   1.289   5.576   4.080 -1.7403 -1.5065  1.5376
  690TIP3    H223562   1.184   5.684   4.099 -0.7791 -0.4863  1.1111
  691TIP3   OH223563   6.461   4.523  16.183  0.2760 -0.7255 -0.3690
  691TIP3    H123564   6.403   4.504  16.257  0.7156 -0.5771  0.0166
  691TIP3    H223565   6.402   4.538  16.109 -0.2669  1.3042  0.4554
  692TIP3   OH223566   4.280   2.400  16.676  0.3466 -0.3460  0.0868
  692TIP3    H123567   4.331   2.318  16.676 -1.3628 -1.4365 -1.3292
  692TIP3    H223568   4.259   2.415  16.584  0.8357  1.8467  0.3016
  693TIP3   OH223569   0.768   3.369   1.453  0.0814  0.5223 -0.4093
  693TIP3    H123570   0.719   3.288   1.468  0.7243  0.0042 -1.0328
  693TIP3    H223571   0.845   3.362   1.510 -0.9131  1.6622  1.1069
  694TIP3   OH223572   4.124   1.871   2.421  0.2168  0.2895  0.2012
  694TIP3    H123573   4.063   1.932   2.461  1.0216  0.7926  0.6663
  694TIP3    H223574   4.182   1.845   2.492  0.8756  0.2184 -0.3566
  695TIP3   OH223575   0.527   5.383  14.952  0.0870  0.3791  0.0672
  695TIP3    H123576   0.602   5.341  14.993  0.0954  1.9213  1.7431
  695TIP3    H223577   0.521   5.344  14.865  2.5143 -0.1200  0.0952
  696TIP3   OH223578   4.237   1.567   0.056  0.0226  0.4150  0.0504
  696TIP3    H123579   4.331   1.584   0.045  0.0594  0.5257  0.5070
  696TIP3    H223580   4.194   1.635   0.005  0.1796  1.4063  1.2247
  697TIP3   OH223581   0.509   2.757   3.561  0.4431 -0.1357  0.2532
  697TIP3    H123582   0.425   2.771   3.605  0.8964  0.4150  0.9610
  697TIP3    H223583   0.500   2.804   3.477 -0.1006 -0.4272  0.1457
  698TIP3   OH223584   2.101   2.488  14.592 -0.1194 -0.2489 -0.2878
  698TIP3    H123585   2.022   2.523  14.633  1.7816  2.9785  0.7553
  698TIP3    H223586   2.149   2.446  14.663  0.0534 -0.4997 -0.5489
  699TIP3   OH223587   0.322   3.268   2.494  0.1288  0.0990  0.5980
  699TIP3    H123588   0.340   3.361   2.493 -1.2110  0.3702 -0.9935
  699TIP3    H223589   0.266   3.255   2.571 -0.2111  0.7204  0.4600
  700TIP3   OH223590   5.801   2.756   1.109 -0.0353  0.2289 -0.2453
  700TIP3    H123591   5.882   2.706   1.112 -0.2733 -0.1631 -0.3135
  700TIP3    H223592   5.789   2.779   1.017 -0.2775 -0.1775 -0.3204
  701TIP3   OH223593   5.624   5.522   6.340  0.3754  0.4140  0.1121
  701TIP3    H123594   5.577   5.462   6.399  0.1248 -0.3060 -0.8172
  701TIP3    H223595   5.716   5.510   6.362  0.3399 -0.4528 -0.2090
  702TIP3   OH223596   4.557   4.624  16.506  0.6951  0.0901 -0.2794
  702TIP3    H123597   4.506   4.543  16.513 -0.3457  0.7356 -0.3852
  702TIP3    H223598   4.507   4.689  16.554  1.1738  0.8456 -0.7863
  703TIP3   OH223599   4.841   2.915  13.866  0.2760  0.5767  0.2303
  703TIP3    H123600   4.846   2.945  13.956 -0.6745  0.1221  0.4483
  703TIP3    H223601   4.800   2.987  13.818  0.2489  0.5898  0.2744
  704TIP3   OH223602   2.953   0.739  13.375 -0.1439  1.2809 -0.2474
  704TIP3    H123603   2.973   0.664  13.432 -1.1733  0.8573 -0.4328
  704TIP3    H223604   3.033   0.753  13.325  0.3788  0.9068  0.4685
  705TIP3   OH223605   5.263   5.475  15.440  0.1877 -0.3986 -0.2681
  705TIP3    H123606   5.284   5.382  15.444  0.8044 -0.2277  0.3576
  705TIP3    H223607   5.310   5.507  15.363  2.3123  0.0053  1.1778
  706TIP3   OH223608   6.058   0.072   5.590 -0.7926  0.3440  0.2869
  706TIP3    H123609   5.978   0.080   5.539 -0.2982  1.3085 -0.3516
  706TIP3    H223610   6.035   0.108   5.676 -0.5237  2.3648 -0.4726
  707TIP3   OH223611   1.909   5.732   2.628 -0.1534  0.5311  0.2058
  707TIP3    H123612   1.936   5.819   2.655 -1.7062  0.7789  1.0118
  707TIP3    H223613   1.840   5.708   2.690  2.6913 -2.7191  2.2844
  708TIP3   OH223614   5.029   4.248  14.322 -0.0662 -1.0200  0.0145
  708TIP3    H123615   5.088   4.305  14.372 -0.9370  0.9767 -1.1752
  708TIP3    H223616   4.972   4.209  14.388  0.1331 -0.0088  0.8039
  709TIP3   OH223617   0.957   3.162   5.916  0.0015  0.0283  0.1419
  709TIP3    H123618   0.954   3.069   5.938 -0.8358  0.2161  0.8465
  709TIP3    H223619   0.882   3.200   5.961 -0.2848  0.8662 -1.0269
  710TIP3   OH223620   4.156   5.288   6.287 -0.2443  0.3468 -0.3983
  710TIP3    H123621   4.085   5.287   6.351 -0.5693 -1.2746 -0.7666
  710TIP3    H223622   4.212   5.215   6.312 -0.0670  0.0506 -1.6154
  711TIP3   OH223623   3.835   2.700  16.569 -0.1909 -0.6100 -0.1451
  711TIP3    H123624   3.746   2.704  16.534  0.3213  0.1277 -1.4215
  711TIP3    H223625   3.824   2.680  16.661 -1.6755 -0.7681 -0.3443
  712TIP3   OH223626   6.206   3.421   1.284 -0.0444 -0.1486  0.4899
  712TIP3    H123627   6.163   3.466   1.357 -1.7932 -1.1462  0.0833
  712TIP3    H223628   6.221   3.491   1.219 -0.3522  0.3460  0.9447
  713TIP3   OH223629   6.455   2.227  11.622  0.0495  0.0084 -0.2372
  713TIP3    H123630   6.548   2.228  11.646  0.2048  1.6839 -0.8177
  713TIP3    H223631   6.412   2.184  11.696  1.0801  0.8726  0.8904
  714TIP3   OH223632   2.342   2.377   2.974  0.8864  0.4278  0.2748
  714TIP3    H123633   2.371   2.445   2.913  0.6202 -0.4126 -0.8015
  714TIP3    H223634   2.260   2.345   2.937  1.1590 -0.6860  0.6157
  715TIP3   OH223635   0.575   5.737  14.183 -0.1906  0.1150 -0.6181
  715TIP3    H123636   0.652   5.696  14.222  0.4003  2.7968  1.1516
  715TIP3    H223637   0.604   5.825  14.159 -2.5012  0.9199 -0.6026
  716TIP3   OH223638   2.860   2.331  11.422  0.2839 -0.1449  0.4204
  716TIP3    H123639   2.846   2.317  11.516  1.3678 -2.4666  0.2626
  716TIP3    H223640   2.857   2.244  11.384 -0.5929  0.8363 -1.7864
  717TIP3   OH223641   3.431   6.818  13.971  0.2117  0.3916 -0.1939
  717TIP3    H123642   3.435   6.779  13.884  0.6658  0.9899 -0.4368
  717TIP3    H223643   3.428   6.742  14.031  0.1896 -0.0127 -0.7065
  718TIP3   OH223644   4.064   4.395  15.382 -0.3782 -0.4822  0.0560
  718TIP3    H123645   4.130   4.348  15.331 -0.2444 -0.2556  0.0183
  718TIP3    H223646   4.088   4.487  15.373 -0.0874 -0.4724  0.9059
  719TIP3   OH223647   4.524   3.569  11.574  0.5342  0.1705 -0.2141
  719TIP3    H123648   4.525   3.565  11.670  2.2866 -0.7383 -0.2638
  719TIP3    H223649   4.608   3.609  11.551 -0.0042  0.6421 -1.3720
  720TIP3   OH223650   0.918   3.748   4.848  0.0864  0.1609  0.0697
  720TIP3    H123651   0.985   3.711   4.790  1.0774 -0.3360  1.4998
  720TIP3    H223652   0.836   3.733   4.802  0.7164 -1.5716 -0.5255
  721TIP3   OH223653   1.684   2.919  16.755 -0.4865  0.1456  0.3047
  721TIP3    H123654   1.613   2.931  16.819 -1.7133  0.1051 -1.0303
  721TIP3    H223655   1.727   2.838  16.783  1.0214  1.7826  2.9533
  722TIP3   OH223656   1.671   5.806  13.930 -0.3575 -0.4599 -0.1937
  722TIP3    H123657   1.580   5.790  13.956 -0.3565  0.5096  0.4422
  722TIP3    H223658   1.666   5.875  13.864 -0.0639 -0.0927  0.1595
  723TIP3   OH223659   0.641   0.130  12.193  0.2606 -0.0667 -0.3439
  723TIP3    H123660   0.571   0.092  12.247  0.5999  0.8716  0.7504
  723TIP3    H223661   0.721   0.086  12.223  0.3083 -0.3004 -0.8074
  724TIP3   OH223662   2.189   5.050   2.198 -1.4209 -0.1628  0.3614
  724TIP3    H123663   2.166   5.014   2.112  0.9683  0.9773 -0.7994
  724TIP3    H223664   2.142   5.133   2.203 -0.6470  0.3223 -0.3475
  725TIP3   OH223665   1.109   1.242  16.908 -0.2644  0.6933  0.2113
  725TIP3    H123666   1.126   1.159  16.952 -0.9126  0.4201 -0.0541
  725TIP3    H223667   1.042   1.222  16.843 -1.0278  1.6021  0.7077
  726TIP3   OH223668   1.143   5.722  15.575  0.5463 -0.1818  0.5129
  726TIP3    H123669   1.219   5.778  15.589 -0.3639  1.1488  0.2224
  726TIP3    H223670   1.162   5.643  15.626  3.1727 -0.9034 -1.4476
  727TIP3   OH223671   1.220   1.048  15.966  0.4922  0.3078  0.1743
  727TIP3    H123672   1.274   1.126  15.958 -1.5539  1.7706  0.3410
  727TIP3    H223673   1.260   0.999  16.039  0.2284  2.4790  1.8298
  728TIP3   OH223674   6.361   2.509  10.627  0.0205 -0.2595 -0.2392
  728TIP3    H123675   6.375   2.571  10.555 -0.6261 -0.6635 -0.7170
  728TIP3    H223676   6.267   2.513  10.644  0.3880  1.1354  1.7648
  729TIP3   OH223677   6.135   4.187  15.941 -0.2941 -0.2077 -0.8053
  729TIP3    H123678   6.170   4.222  16.023 -1.1934 -1.1520  0.0003
  729TIP3    H223679   6.078   4.115  15.968 -0.6539 -0.4903 -2.2620
  730TIP3   OH223680   3.519   3.411   0.649  0.3462 -0.3991  0.1209
  730TIP3    H123681   3.484   3.381   0.733 -0.0396 -3.1877 -0.9922
  730TIP3    H223682   3.580   3.481   0.673 -0.3354 -0.6152  2.6628
  731TIP3   OH223683   1.148   6.170  12.539 -0.6047  0.1837 -0.2557
  731TIP3    H123684   1.097   6.152  12.459 -0.3601  1.7292 -0.7780
  731TIP3    H223685   1.107   6.116  12.606 -1.0372 -0.8723 -1.3525
  732TIP3   OH223686   1.265   1.217  13.846  0.3148 -0.2715 -1.1273
  732TIP3    H123687   1.296   1.216  13.937  0.0084  0.5560 -1.0113
  732TIP3    H223688   1.241   1.127  13.827 -3.4442  0.2136  0.9113
  733TIP3   OH223689   4.047   3.947  14.664 -0.6646 -0.1575  0.1557
  733TIP3    H123690   4.053   4.002  14.587 -0.7346 -0.6491 -0.2017
  733TIP3    H223691   4.049   4.008  14.738  0.7155  0.2172 -0.1906
  734TIP3   OH223692   3.307   1.682  16.581  0.6792 -0.3155  0.1603
  734TIP3    H123693   3.304   1.588  16.599 -0.1641 -0.5495 -1.1272
  734TIP3    H223694   3.227   1.699  16.529  0.9409  1.0580  0.1957
  735TIP3   OH223695   2.227   2.691   4.739  0.2271 -0.9733  0.1892
  735TIP3    H123696   2.173   2.734   4.673  0.2640 -1.6419 -0.2716
  735TIP3    H223697   2.272   2.764   4.783 -0.0787 -0.5046 -0.2648
  736TIP3   OH223698   2.272   0.652  11.824 -0.7049  0.5946 -0.0894
  736TIP3    H123699   2.304   0.583  11.765 -0.4486  1.0029 -0.4310
  736TIP3    H223700   2.192   0.684  11.782 -1.4009 -0.2124  0.6051
  737TIP3   OH223701   4.590   5.901  10.501  0.3706  0.0037  0.1557
  737TIP3    H123702   4.670   5.898  10.553  0.8266  0.0795 -0.5224
  737TIP3    H223703   4.555   5.812  10.504  0.7751 -0.1610  0.0113
  738TIP3   OH223704   4.674   5.483   1.580  0.1093  0.3385 -0.0756
  738TIP3    H123705   4.736   5.530   1.636  0.1076 -1.5704  1.5709
  738TIP3    H223706   4.620   5.432   1.640  0.1223 -1.7706 -1.7645
  739TIP3   OH223707   5.096   3.647   2.961  0.5704 -0.5385 -0.5434
  739TIP3    H123708   5.027   3.606   3.013  1.7027 -0.2209  1.2586
  739TIP3    H223709   5.072   3.629   2.870 -1.9573 -0.3080  0.0330
  740TIP3   OH223710   1.400   4.948  13.890  0.7415  0.9984 -0.2234
  740TIP3    H123711   1.445   4.969  13.971  0.3643  1.6305 -0.1763
  740TIP3    H223712   1.341   4.876  13.912  1.9294 -0.0412 -0.3542
  741TIP3   OH223713   2.100   3.630  13.702  0.2470  0.5714  0.3728
  741TIP3    H123714   2.042   3.585  13.640  2.0716 -0.4193 -0.6538
  741TIP3    H223715   2.058   3.715  13.715  0.1121  1.0449 -2.7050
  742TIP3   OH223716   0.074   1.007   4.652  0.1317  0.0413 -0.1092
  742TIP3    H123717   0.082   1.088   4.704 -1.6482 -1.2119  2.2118
  742TIP3    H223718   0.136   0.947   4.693 -2.3237 -1.4258  1.5360
  743TIP3   OH223719   4.343   4.945   0.915  0.0993  0.0587  0.0167
  743TIP3    H123720   4.283   4.990   0.854  0.3746 -0.1459 -0.4123
  743TIP3    H223721   4.404   4.899   0.857 -0.5476 -1.3750  0.4514
  744TIP3   OH223722   6.397   6.399  16.878  0.2893 -0.1817 -0.2156
  744TIP3    H123723   6.357   6.476  16.918  0.8499 -0.0612  0.1157
  744TIP3    H223724   6.363   6.398  16.789  0.2953  0.4540 -0.2256
  745TIP3   OH223725   5.875   6.126  15.254  0.1679 -0.5200 -0.3202
  745TIP3    H123726   5.956   6.111  15.303 -0.4520  0.4550  1.0455
  745TIP3    H223727   5.879   6.063  15.182  0.9388 -2.2647  1.1851
  746TIP3   OH223728   6.525   6.003   3.739  0.0279 -0.1124 -0.2551
  746TIP3    H123729   6.532   5.979   3.832 -0.0225 -1.1601 -0.5136
  746TIP3    H223730   6.490   5.925   3.697 -1.5678  0.9283 -0.8996
  747TIP3   OH223731   3.467   5.547  14.385  0.0935  0.3909 -0.2696
  747TIP3    H123732   3.480   5.572  14.294  0.5139 -0.1324 -0.3529
  747TIP3    H223733   3.538   5.592  14.432  0.7877 -0.5548 -0.4066
  748TIP3   OH223734   5.382   0.890  15.006  0.4676  0.4308 -0.3280
  748TIP3    H123735   5.357   0.892  15.099 -1.2174 -2.5224 -0.6843
  748TIP3    H223736   5.361   0.978  14.975 -0.6219  0.9278  1.6760
  749TIP3   OH223737   1.101   3.497   4.132 -0.1642  0.1903 -0.3255
  749TIP3    H123738   1.071   3.540   4.052 -1.9878  0.7059  0.6141
  749TIP3    H223739   1.029   3.507   4.194  0.2684 -2.2512  0.6443
  750TIP3   OH223740   6.081   2.712  17.224 -0.4752  0.4168  0.3912
  750TIP3    H123741   6.044   2.761  17.151 -0.0652  1.1453  0.6691
  750TIP3    H223742   6.175   2.706  17.206 -0.6460 -1.0543 -0.0954
  751TIP3   OH223743   5.137   4.004  11.814  0.1177 -0.0279  0.5369
  751TIP3    H123744   5.145   4.050  11.898  0.6683 -1.7388  1.4434
  751TIP3    H223745   5.043   4.008  11.794  0.1475  1.4279  0.6258
  752TIP3   OH223746   6.496   0.998   1.669 -0.2504 -0.8062 -0.0568
  752TIP3    H123747   6.422   0.938   1.666 -1.8466  0.9718  2.1975
  752TIP3    H223748   6.567   0.947   1.709 -1.1700 -1.6336  0.5460
  753TIP3   OH223749   4.732   6.403  12.398 -0.2263  0.2505  0.2446
  753TIP3    H123750   4.790   6.328  12.393 -0.0271  0.2855  1.7787
  753TIP3    H223751   4.648   6.366  12.426 -1.0556  0.1579 -2.2396
  754TIP3   OH223752   1.158   1.133   1.709  0.4583 -0.0982 -0.5528
  754TIP3    H123753   1.079   1.172   1.672  0.4785 -0.8078 -1.3715
  754TIP3    H223754   1.159   1.162   1.800 -0.4809  0.3133 -0.6641
  755TIP3   OH223755   3.793   4.585   1.584  0.1831 -0.5123 -0.0285
  755TIP3    H123756   3.865   4.525   1.565  0.4688 -1.5900  3.9729
  755TIP3    H223757   3.730   4.532   1.632 -1.0947  1.5792  0.6632
  756TIP3   OH223758   4.157   3.527  11.473  0.1032  0.2549 -0.2134
  756TIP3    H123759   4.066   3.511  11.448  0.6197 -1.7050 -0.9207
  756TIP3    H223760   4.170   3.478  11.554  0.5532  0.4777 -0.1442
  757TIP3   OH223761   5.293   6.396  13.182 -0.7742 -0.5947  0.0827
  757TIP3    H123762   5.275   6.396  13.276 -0.4292 -0.6767  0.1485
  757TIP3    H223763   5.376   6.350  13.173  0.8030  2.1206  0.0725
  758TIP3   OH223764   3.070   1.501   3.635 -0.2954  0.0981 -0.0453
  758TIP3    H123765   3.009   1.434   3.605 -1.7641  0.3312  2.3093
  758TIP3    H223766   3.069   1.567   3.565 -2.1082 -0.2997 -0.4170
  759TIP3   OH223767   2.182   6.400   5.595 -0.2621  0.3237 -0.5434
  759TIP3    H123768   2.196   6.475   5.653  2.0839 -0.6227  0.1603
  759TIP3    H223769   2.212   6.324   5.646 -1.3966 -0.9403 -1.7199
  760TIP3   OH223770   6.779   1.796  11.318  0.4093 -0.6092  0.1873
  760TIP3    H123771   6.766   1.853  11.242  0.3439 -0.7878  0.0627
  760TIP3    H223772   6.772   1.707  11.282 -1.3913 -0.7007  0.6777
  761TIP3   OH223773   2.655   1.447   1.500 -0.0571  0.7230  0.0282
  761TIP3    H123774   2.652   1.503   1.423  0.1013 -0.4731 -0.8525
  761TIP3    H223775   2.718   1.379   1.478  0.7675  0.9568  1.6144
  762TIP3   OH223776   6.103   0.661   3.880 -0.3784 -1.0310  0.0763
  762TIP3    H123777   6.140   0.696   3.799  0.7210  1.1021  1.4470
  762TIP3    H223778   6.008   0.665   3.866 -0.2265  0.3973 -0.6870
  763TIP3   OH223779   4.527   2.715   0.614  0.6647 -0.0402 -0.6583
  763TIP3    H123780   4.505   2.624   0.594  1.2238 -0.0036 -1.5142
  763TIP3    H223781   4.621   2.712   0.636  0.2930  0.0845  0.9841
  764TIP3   OH223782   5.505   2.881   3.463 -0.2041  0.6115  0.1436
  764TIP3    H123783   5.513   2.917   3.375 -0.9275  0.8224  0.1545
  764TIP3    H223784   5.433   2.817   3.455 -0.6017  0.9869  0.6860
  765TIP3   OH223785   1.336   0.646   4.038 -0.3223  0.9602 -0.0713
  765TIP3    H123786   1.302   0.728   4.073  0.5455  0.8491  1.0640
  765TIP3    H223787   1.431   0.657   4.039 -0.2423  0.4393 -1.1569
  766TIP3   OH223788   2.206   6.351  13.618  0.0702  0.1690  0.0423
  766TIP3    H123789   2.213   6.426  13.678  0.3785  1.4238 -1.5136
  766TIP3    H223790   2.259   6.377  13.542 -1.7775 -0.5930 -1.5503
  767TIP3   OH223791   5.479   1.778   0.659  0.8536 -0.0564  0.3948
  767TIP3    H123792   5.426   1.707   0.695  3.2645 -1.5085  1.2242
  767TIP3    H223793   5.531   1.736   0.590  0.9296  1.3072 -0.3825
  768TIP3   OH223794   4.076   5.527   0.234 -0.0237  0.9056 -0.0392
  768TIP3    H123795   4.006   5.462   0.233  0.5597  0.2860 -1.4600
  768TIP3    H223796   4.126   5.506   0.313 -0.4221  0.2523  0.0435
  769TIP3   OH223797   2.697   0.012  13.574  0.3777 -0.4967  0.2940
  769TIP3    H123798   2.746  -0.030  13.645  0.4009 -2.5734 -0.8945
  769TIP3    H223799   2.616  -0.038  13.568 -0.0113  0.2301 -0.5529
  770TIP3   OH223800   2.603   1.146   3.384  0.2396  0.1928  0.0880
  770TIP3    H123801   2.613   1.228   3.431 -0.9603 -0.1832  1.0126
  770TIP3    H223802   2.527   1.160   3.327  1.3886  0.4827 -1.4252
  771TIP3   OH223803   4.488   0.962   1.583  0.0337  0.7689 -0.5992
  771TIP3    H123804   4.505   0.911   1.504  0.0119 -1.4217  0.7843
  771TIP3    H223805   4.417   1.021   1.558  0.0764  0.1592 -2.2312
  772TIP3   OH223806   0.772   4.202  13.104  0.3320 -0.0621  0.3920
  772TIP3    H123807   0.731   4.117  13.089 -0.5019  0.5082 -0.6346
  772TIP3    H223808   0.866   4.182  13.115  0.1848 -1.0650 -0.1368
  773TIP3   OH223809   5.775   2.365  12.177  0.2772  0.1596  0.6337
  773TIP3    H123810   5.800   2.411  12.257  0.0181 -0.4102  1.0401
  773TIP3    H223811   5.693   2.321  12.198  0.7358 -0.8294  0.3749
  774TIP3   OH223812   1.536   2.473  14.986 -0.2608 -0.6980 -0.0713
  774TIP3    H123813   1.547   2.407  14.918  0.8457 -0.5493 -0.0345
  774TIP3    H223814   1.443   2.467  15.009 -0.9832  0.2468 -2.5816
  775TIP3   OH223815   2.977   2.553  11.796 -0.3589  0.4571 -0.1144
  775TIP3    H123816   2.932   2.531  11.878 -1.2804  0.3621 -0.6369
  775TIP3    H223817   2.933   2.632  11.765 -1.4658 -0.7300 -1.6216
  776TIP3   OH223818   6.102   5.812   3.963 -0.5930  0.5752  0.1365
  776TIP3    H123819   6.034   5.878   3.955  0.0258  1.1222 -0.5830
  776TIP3    H223820   6.150   5.815   3.881 -0.4313 -0.6280  0.1674
  777TIP3   OH223821   3.039   4.420   0.123 -0.3140 -0.3608 -0.0036
  777TIP3    H123822   2.978   4.354   0.091 -1.9780  1.2790 -0.3294
  777TIP3    H223823   3.033   4.491   0.059 -0.8962  1.4054  1.9521
  778TIP3   OH223824   4.527   5.647  13.935  0.1485 -0.2410 -0.7988
  778TIP3    H123825   4.520   5.619  14.027 -0.4797  0.2051 -0.7020
  778TIP3    H223826   4.486   5.576  13.886 -1.7279  0.6160 -0.5288
  779TIP3   OH223827   5.023   4.584  11.079 -1.3030 -0.7659  0.2268
  779TIP3    H123828   5.020   4.495  11.044 -1.1658 -0.6727 -0.0194
  779TIP3    H223829   4.952   4.630  11.033 -1.8646 -0.9486  0.9012
  780TIP3   OH223830   2.076   0.002  16.743 -0.3787  0.5301  0.0959
  780TIP3    H123831   2.021   0.066  16.787 -1.0564 -0.3449  0.5235
  780TIP3    H223832   2.037  -0.008  16.656  0.0191  1.0600 -0.1480
  781TIP3   OH223833   4.798   0.804   3.657 -0.1870  0.0301  0.7804
  781TIP3    H123834   4.805   0.713   3.686  1.1635 -0.0246  0.3282
  781TIP3    H223835   4.767   0.852   3.734 -2.1157 -0.9938  0.6706
  782TIP3   OH223836   5.677   4.599  13.791 -0.0823 -0.5144  0.4064
  782TIP3    H123837   5.716   4.533  13.734  0.2631  0.0615 -0.0241
  782TIP3    H223838   5.667   4.554  13.876 -0.1895 -1.2260  0.0235
  783TIP3   OH223839   3.139   2.227  13.638 -0.0379  0.8829  0.4550
  783TIP3    H123840   3.159   2.280  13.715  0.8513  0.3609  0.5898
  783TIP3    H223841   3.043   2.223  13.636 -0.1172  2.3881  0.5006
  784TIP3   OH223842   5.254   6.694  13.384  0.1496 -0.1382 -0.4195
  784TIP3    H123843   5.180   6.640  13.413 -0.1369 -0.7883 -2.3303
  784TIP3    H223844   5.331   6.645  13.412 -0.1185  0.1860  0.9325
  785TIP3   OH223845   3.171   6.393   5.648 -0.4438 -0.1977  0.5349
  785TIP3    H123846   3.252   6.353   5.618 -1.1935 -1.1805 -0.2081
  785TIP3    H223847   3.110   6.385   5.574 -1.3655  0.0998  1.2431
  786TIP3   OH223848   5.923   0.770  13.252  0.3703 -0.3671 -0.5623
  786TIP3    H123849   5.849   0.829  13.261 -0.7071 -1.6311 -0.9676
  786TIP3    H223850   5.925   0.721  13.334  1.2472  0.1835 -0.2372
  787TIP3   OH223851   1.618   1.671  13.408 -0.0205 -0.3231  0.0173
  787TIP3    H123852   1.669   1.607  13.358  0.0632  0.1748 -0.5369
  787TIP3    H223853   1.636   1.650  13.499 -0.3808 -1.4078 -0.1599
  788TIP3   OH223854   1.132   0.819   5.084  0.0529  0.2312 -0.0812
  788TIP3    H123855   1.067   0.775   5.139 -0.4955  2.2266  0.9208
  788TIP3    H223856   1.117   0.783   4.996 -0.3200 -1.6071  0.7219
  789TIP3   OH223857   5.951   1.817   2.399 -0.0924 -0.0897  0.2290
  789TIP3    H123858   6.029   1.857   2.361 -1.4541  1.6923 -0.8097
  789TIP3    H223859   5.908   1.889   2.447 -1.1138 -1.0117  0.7130
  790TIP3   OH223860   4.339   5.804  15.965  0.0562 -0.2319 -0.0164
  790TIP3    H123861   4.255   5.762  15.947  0.2470 -1.1427  1.1865
  790TIP3    H223862   4.385   5.744  16.023  1.1291  0.7406  0.1715
  791TIP3   OH223863   4.665   1.171   2.415  0.3266  0.4110 -0.1314
  791TIP3    H123864   4.714   1.253   2.426  0.6601  0.5355 -2.3295
  791TIP3    H223865   4.573   1.196   2.425  0.3927  1.1588 -1.3939
  792TIP3   OH223866   3.589   2.636   3.500 -0.3832  0.1766 -0.0098
  792TIP3    H123867   3.571   2.585   3.579  1.1323 -0.6638 -0.1954
  792TIP3    H223868   3.543   2.589   3.430  0.4621 -0.5823 -0.0663
  793TIP3   OH223869   4.548   0.354  13.525  0.0020 -0.1241 -0.0666
  793TIP3    H123870   4.456   0.336  13.506 -0.4215  1.0831  0.7284
  793TIP3    H223871   4.557   0.334  13.618  0.4199  0.2442 -0.0265
  794TIP3   OH223872   4.534   3.725   0.293  0.1581 -0.0565 -0.5891
  794TIP3    H123873   4.510   3.756   0.380  1.4360 -0.7966  0.0345
  794TIP3    H223874   4.590   3.649   0.309  0.4572 -0.1559 -2.0598
  795TIP3   OH223875   2.290   4.743  12.052 -0.3719  0.3501 -0.6616
  795TIP3    H123876   2.254   4.784  11.973 -2.8665 -0.6817 -0.0873
  795TIP3    H223877   2.273   4.806  12.122  1.5888  1.1389 -0.8576
  796TIP3   OH223878   0.001   4.693   1.515  0.3019 -0.0955 -0.3872
  796TIP3    H123879  -0.071   4.632   1.533 -0.4855  1.2606  1.2506
  796TIP3    H223880  -0.012   4.718   1.423 -1.4046  0.2171 -0.0816
  797TIP3   OH223881   0.468   4.233   1.527 -0.5647  0.0744  0.2406
  797TIP3    H123882   0.454   4.327   1.519  0.0413  0.1889  0.5180
  797TIP3    H223883   0.498   4.205   1.440 -0.0394  0.2637  0.3567
  798TIP3   OH223884   1.327   6.502   1.613  0.4984  0.3707  0.2626
  798TIP3    H123885   1.283   6.583   1.586 -0.3230 -0.8886 -2.2987
  798TIP3    H223886   1.415   6.530   1.638 -0.5485  2.3906  1.8304
  799TIP3   OH223887   2.411   2.795  15.226  0.5045 -0.2556 -0.4570
  799TIP3    H123888   2.422   2.883  15.191 -0.1363 -0.3023 -0.7782
  799TIP3    H223889   2.491   2.749  15.200 -0.3468 -0.5455 -2.6565
  800TIP3   OH223890   4.042   4.945  14.052  0.2185 -0.5272  0.0545
  800TIP3    H123891   4.042   4.903  13.966  1.9494  0.0362 -0.2347
  800TIP3    H223892   4.047   5.039  14.033 -0.4713 -0.3405  0.7623
  801TIP3   OH223893   1.263   2.656   5.496  0.1756  0.8899 -0.5908
  801TIP3    H123894   1.304   2.738   5.524  0.3775  1.0074 -1.2281
  801TIP3    H223895   1.335   2.593   5.493 -0.4206 -0.0772  2.7175
  802TIP3   OH223896   1.193   3.822   1.036 -0.1958  0.1683 -0.0653
  802TIP3    H123897   1.242   3.790   1.112 -0.0539  1.7727  0.5449
  802TIP3    H223898   1.125   3.877   1.073 -0.7534  0.1616 -1.0614
  803TIP3   OH223899   4.771   0.252   5.495  0.1490  0.4000 -0.1018
  803TIP3    H123900   4.801   0.210   5.414  1.0117 -0.2939  0.5666
  803TIP3    H223901   4.680   0.277   5.477  0.3368  0.2681 -1.2869
  804TIP3   OH223902   5.134   4.063   0.548 -0.0150 -0.3010 -0.2660
  804TIP3    H123903   5.055   4.055   0.600  0.7067 -0.5537  0.8105
  804TIP3    H223904   5.161   4.154   0.558 -0.5921 -0.0151 -1.2651
  805TIP3   OH223905   0.231   0.474  13.712 -0.3450  0.5666 -0.4411
  805TIP3    H123906   0.290   0.467  13.787 -0.4149  0.2692 -0.4102
  805TIP3    H223907   0.289   0.484  13.637 -0.2683  0.6913 -0.3651
  806TIP3   OH223908   4.106   4.802   0.597 -0.3560  0.0222  0.3953
  806TIP3    H123909   4.125   4.880   0.650 -0.7368  0.3728  0.0287
  806TIP3    H223910   4.160   4.733   0.634 -0.6109  0.2678  1.2321
  807TIP3   OH223911   1.854   5.473   1.175  0.1241 -0.1599 -0.4688
  807TIP3    H123912   1.819   5.470   1.264  1.7291  0.0646  0.1746
  807TIP3    H223913   1.860   5.566   1.153 -1.0097 -0.2275 -1.1216
  808TIP3   OH223914   3.306   1.578  15.668  0.0250  0.4678 -0.2850
  808TIP3    H123915   3.241   1.527  15.717 -0.1386 -1.2104 -2.1785
  808TIP3    H223916   3.389   1.531  15.683 -0.0860 -0.2722 -1.8441
  809TIP3   OH223917   0.675   1.231   2.948  0.3318  0.1729 -0.6041
  809TIP3    H123918   0.637   1.256   2.864  0.6653 -0.5907 -0.9948
  809TIP3    H223919   0.709   1.312   2.985 -0.0387  0.5514 -1.0981
  810TIP3   OH223920   1.163   1.804  12.080 -0.5445 -0.8168 -0.2773
  810TIP3    H123921   1.088   1.777  12.028  1.0093 -1.6718 -2.1394
  810TIP3    H223922   1.227   1.835  12.016  0.8224 -0.4457  1.2375
  811TIP3   OH223923   1.923   3.684   2.230 -0.3291 -0.3482 -0.3377
  811TIP3    H123924   1.873   3.654   2.306 -1.0455 -0.8530 -1.0037
  811TIP3    H223925   1.863   3.674   2.156  0.7465 -0.9624 -1.1501
  812TIP3   OH223926   6.098   2.333  13.468 -0.2874  0.4713 -0.1801
  812TIP3    H123927   6.143   2.314  13.550 -0.9450 -0.2163  0.0304
  812TIP3    H223928   6.139   2.413  13.435  1.2038 -0.2412 -0.0876
  813TIP3   OH223929   2.994   4.721   1.437 -0.2054 -0.5598 -0.3831
  813TIP3    H123930   3.064   4.776   1.403 -0.9899 -0.0083 -1.1227
  813TIP3    H223931   2.962   4.672   1.362 -1.6530  0.3465 -0.3846
  814TIP3   OH223932   0.701   0.251  13.457  0.5169  0.0175 -0.4143
  814TIP3    H123933   0.614   0.211  13.452  0.3427  0.3247  0.0687
  814TIP3    H223934   0.761   0.181  13.434  0.2405 -0.6267  0.7758
  815TIP3   OH223935   1.468   4.374   1.179  0.0832  0.0207  0.4758
  815TIP3    H123936   1.514   4.332   1.107 -0.6385  1.5961 -0.9433
  815TIP3    H223937   1.456   4.465   1.150 -0.8539  0.4949  2.2720
  816TIP3   OH223938   4.503   6.399  11.744  0.2611 -0.3916 -0.3391
  816TIP3    H123939   4.516   6.366  11.655  0.0254 -0.8073 -0.2237
  816TIP3    H223940   4.567   6.351  11.797  1.5143  1.0374 -0.5459
  817TIP3   OH223941   3.469   2.322   5.182 -0.3007  0.4766 -0.1037
  817TIP3    H123942   3.552   2.287   5.214 -1.6981 -0.4978  2.6497
  817TIP3    H223943   3.469   2.414   5.209 -0.7256  0.0968  1.2369
  818TIP3   OH223944   6.108   2.929  16.192  0.3001  0.0257 -0.0031
  818TIP3    H123945   6.083   2.841  16.222  0.5651  0.0904  0.4111
  818TIP3    H223946   6.024   2.973  16.177  0.1684 -0.4128 -0.5531
  819TIP3   OH223947   1.757   3.159   1.262  0.1711 -0.1418  0.1505
  819TIP3    H123948   1.718   3.204   1.337 -0.3172 -0.2347 -0.0411
  819TIP3    H223949   1.715   3.199   1.186 -0.1377 -0.7971 -0.0270
  820TIP3   OH223950   0.021   1.414   0.588 -0.6257 -0.0659 -0.0931
  820TIP3    H123951  -0.065   1.452   0.568 -0.7728  0.2717  1.1590
  820TIP3    H223952   0.071   1.487   0.623 -1.2906 -1.2404  3.4919
  821TIP3   OH223953   0.865   2.457   4.123  0.0353 -0.4515 -0.2336
  821TIP3    H123954   0.932   2.523   4.106 -0.7397  0.3558 -0.1973
  821TIP3    H223955   0.866   2.446   4.218 -1.3079  1.1099 -0.0072
  822TIP3   OH223956   5.194   3.610   0.235 -0.8354 -0.7441  0.4103
  822TIP3    H123957   5.278   3.576   0.203 -0.5728  1.0297 -0.9128
  822TIP3    H223958   5.216   3.660   0.313 -0.9038 -1.6675  1.0267
  823TIP3   OH223959   5.606   2.492  13.605  0.7706 -0.3051  0.2056
  823TIP3    H123960   5.633   2.582  13.624 -1.7526  0.3670  0.7989
  823TIP3    H223961   5.682   2.453  13.561  1.2849  2.5799 -1.5621
  824TIP3   OH223962   1.086   3.917   4.484 -0.1928  0.1726 -0.3699
  824TIP3    H123963   1.020   3.884   4.423 -0.8655 -0.9899  0.9595
  824TIP3    H223964   1.051   4.002   4.512 -0.1399  0.4701 -1.1832
  825TIP3   OH223965   1.042   2.883  15.185  0.0532 -0.7304  0.3993
  825TIP3    H123966   0.994   2.919  15.259  2.1471  1.3567  0.8037
  825TIP3    H223967   1.077   2.800  15.218 -0.0572 -0.4075  1.3593
  826TIP3   OH223968   1.351   5.067  15.177  0.1129 -0.5451 -0.5303
  826TIP3    H123969   1.421   5.014  15.218  0.9261  0.3115 -0.8035
  826TIP3    H223970   1.368   5.060  15.083  0.6174  0.7490 -0.5343
  827TIP3   OH223971   0.834   1.636   1.457  0.5437 -0.2706  0.4463
  827TIP3    H123972   0.905   1.616   1.396 -0.5788 -0.7661 -0.7113
  827TIP3    H223973   0.867   1.607   1.542  2.9006  2.2236  0.4457
  828TIP3   OH223974   5.259   3.543  17.077 -0.2215 -0.2309 -0.2688
  828TIP3    H123975   5.261   3.480  17.150 -1.1307  1.3347  1.1434
  828TIP3    H223976   5.350   3.550  17.050  0.2027 -0.4934  1.0341
  829TIP3   OH223977   0.596   2.676   2.377 -0.1999  0.0272  0.3332
  829TIP3    H123978   0.556   2.630   2.451 -0.5601  1.8020  1.2847
  829TIP3    H223979   0.680   2.633   2.364 -1.3076 -2.0922 -0.0243
  830TIP3   OH223980   5.064   2.879   3.505  0.0417 -0.1951  0.4480
  830TIP3    H123981   5.110   2.944   3.452 -1.1255  1.0203  0.8906
  830TIP3    H223982   5.134   2.830   3.549  0.9557  2.2204  1.8273
  831TIP3   OH223983   4.704   4.667  14.620  0.0489 -0.3915  0.1496
  831TIP3    H123984   4.730   4.733  14.556 -0.5198 -0.3908 -0.0770
  831TIP3    H223985   4.612   4.685  14.637  0.6028  0.6780  2.2362
  832TIP3   OH223986   1.511   3.321  14.353  0.3491  0.0078 -0.7348
  832TIP3    H123987   1.483   3.413  14.357  0.6259  0.0815 -0.4445
  832TIP3    H223988   1.569   3.311  14.428  0.0181 -0.5102 -0.5477
  833TIP3   OH223989   4.700   5.826  14.331  0.4950 -0.2215 -0.7278
  833TIP3    H123990   4.695   5.742  14.376 -1.5240  0.5467  0.5737
  833TIP3    H223991   4.712   5.890  14.401  3.3387  0.4916 -1.8130
  834TIP3   OH223992   3.372   0.452   4.495  0.2018 -0.3242 -0.0774
  834TIP3    H123993   3.357   0.539   4.458  2.5731  0.6036  1.0196
  834TIP3    H223994   3.438   0.413   4.439  1.3723 -0.2089  1.1927
  835TIP3   OH223995   2.047   3.046  13.190  0.2731  0.6994  0.3509
  835TIP3    H123996   1.960   3.068  13.157  0.6297 -0.1123 -1.1849
  835TIP3    H223997   2.030   3.001  13.273 -0.7594  0.7988  0.1981
  836TIP3   OH223998   2.596   4.613  16.634 -0.2396  0.5094  0.3285
  836TIP3    H123999   2.586   4.608  16.729 -3.0822  1.4497  0.1260
  836TIP3    H224000   2.514   4.651  16.603  0.9447  0.9465 -2.4485
  837TIP3   OH224001   4.567   4.375  14.822  0.2708  0.3137  0.3872
  837TIP3    H124002   4.522   4.300  14.785  1.1149 -0.4018  0.7839
  837TIP3    H224003   4.524   4.390  14.906 -0.8567  1.1965 -0.3271
  838TIP3   OH224004   4.327   1.826   1.027 -0.1589  0.0771 -0.0025
  838TIP3    H124005   4.282   1.745   1.004  0.3406 -0.1057 -0.3515
  838TIP3    H224006   4.274   1.864   1.097  0.0216 -0.9403  0.6983
  839TIP3   OH224007   2.035   2.107   6.167  0.2841 -0.6742 -0.0796
  839TIP3    H124008   2.064   2.059   6.245  1.1438 -0.0511 -0.0123
  839TIP3    H224009   2.057   2.198   6.185 -0.1098 -0.4363 -0.7826
  840TIP3   OH224010   3.860   3.100   2.746  0.4077 -0.6739  0.0564
  840TIP3    H124011   3.934   3.057   2.702  1.4677  1.1942 -0.0592
  840TIP3    H224012   3.812   3.143   2.674  0.5144 -0.0066  0.3762
  841TIP3   OH224013   1.328   1.390  14.047 -0.2334  0.1064 -0.2403
  841TIP3    H124014   1.250   1.439  14.073 -0.9472 -0.7420 -0.7199
  841TIP3    H224015   1.383   1.455  14.003 -0.9374  0.5950 -0.4223
  842TIP3   OH224016   4.236   2.026  16.520  0.4059  0.4518 -0.1322
  842TIP3    H124017   4.327   2.053  16.525  1.1464 -1.7766 -1.0455
  842TIP3    H224018   4.195   2.089  16.461  1.2510  1.6333  0.5157
  843TIP3   OH224019   6.415   6.426  11.704 -0.2678 -0.4664 -0.0805
  843TIP3    H124020   6.393   6.351  11.648  0.9629  0.7424 -2.2612
  843TIP3    H224021   6.337   6.438  11.759 -1.5908 -1.6005 -1.6357
  844TIP3   OH224022   5.165   0.277   5.399  0.0246 -0.5428 -0.3739
  844TIP3    H124023   5.223   0.232   5.338  0.9581 -0.3889  0.3695
  844TIP3    H224024   5.196   0.368   5.398  0.3198 -0.6222  0.6135
  845TIP3   OH224025   2.003   5.231  16.661 -0.0925  0.2198 -0.1586
  845TIP3    H124026   1.961   5.147  16.644  0.4706 -0.3300  1.0924
  845TIP3    H224027   1.942   5.278  16.718  0.3680 -0.0621  0.5885
  846TIP3   OH224028   3.031   4.229  11.262 -0.6965 -0.1381  0.6022
  846TIP3    H124029   2.959   4.285  11.233  0.0249 -0.4237 -1.8846
  846TIP3    H224030   3.007   4.142  11.228  1.0258 -0.1338 -0.6948
  847TIP3   OH224031   3.324   2.217   4.394 -0.2729 -0.3312 -0.0250
  847TIP3    H124032   3.314   2.252   4.482 -0.2999 -0.0277 -0.1497
  847TIP3    H224033   3.413   2.239   4.369 -0.5705  0.4121 -0.4397
  848TIP3   OH224034   0.679   5.427  11.284  0.0786 -0.5249 -0.5112
  848TIP3    H124035   0.649   5.450  11.372 -0.6330 -1.1056 -0.6002
  848TIP3    H224036   0.653   5.335  11.273 -1.1475 -0.0337 -1.8844
  849TIP3   OH224037   5.792   0.368  13.160 -0.3283  0.0971 -0.3052
  849TIP3    H124038   5.796   0.336  13.070  1.4505 -0.0187 -0.2072
  849TIP3    H224039   5.719   0.430  13.161 -1.7376 -1.5018 -1.2875
  850TIP3   OH224040   2.690   6.549  13.446  0.4544  0.3521 -0.4286
  850TIP3    H124041   2.637   6.501  13.510 -1.1376 -0.8909 -2.5985
  850TIP3    H224042   2.626   6.597  13.393  1.8513  2.4838 -0.2350
  851TIP3   OH224043   3.091   2.270   0.074  0.2560  0.4292 -0.7674
  851TIP3    H124044   3.170   2.297   0.120  1.2126  0.2329 -2.2612
  851TIP3    H224045   3.032   2.241   0.143  0.4875  3.0356  0.5945
  852TIP3   OH224046   4.991   3.774   4.494 -0.3108  0.1248  0.0864
  852TIP3    H124047   5.066   3.794   4.550 -0.3799  1.1302 -0.1613
  852TIP3    H224048   5.007   3.687   4.460 -0.1394 -0.4005  1.4870
  853TIP3   OH224049   5.274   0.989   4.568  0.6293 -0.3045  0.1516
  853TIP3    H124050   5.255   0.944   4.650  3.2890 -2.5313 -0.4025
  853TIP3    H224051   5.369   0.981   4.558  0.3664  0.1820 -3.0040
  854TIP3   OH224052   2.324   5.235   0.293  0.2959  0.0519 -0.3208
  854TIP3    H124053   2.408   5.193   0.273  0.5127 -0.0617  0.8033
  854TIP3    H224054   2.348   5.317   0.336 -0.1747  0.0366 -0.0335
  855TIP3   OH224055   5.320   2.865   2.235  0.3749 -0.5160 -0.1156
  855TIP3    H124056   5.287   2.809   2.305  0.6027 -0.7309 -0.1808
  855TIP3    H224057   5.406   2.829   2.214 -0.2971 -1.3805 -1.5166
  856TIP3   OH224058   6.608   3.119  11.221  0.1514 -0.3331 -0.1182
  856TIP3    H124059   6.667   3.183  11.182  2.2674 -0.9741  1.9594
  856TIP3    H224060   6.665   3.057  11.265 -2.0781 -0.8012  2.2318
  857TIP3   OH224061   4.890   1.049  15.808 -0.0301 -0.3532 -0.1737
  857TIP3    H124062   4.878   1.048  15.903 -0.3637 -3.4608 -0.2112
  857TIP3    H224063   4.931   1.134  15.790 -0.1523  0.3652  2.7024
  858TIP3   OH224064   5.021   0.176  12.361 -0.2876  0.8496  0.2189
  858TIP3    H124065   5.076   0.248  12.330 -0.0119  1.2085  1.5007
  858TIP3    H224066   5.048   0.163  12.452 -1.0010 -0.2420  0.2797
  859TIP3   OH224067   0.555   3.189   4.840 -0.4127  0.4034  0.1154
  859TIP3    H124068   0.502   3.142   4.775 -0.7327  0.7079  0.1489
  859TIP3    H224069   0.549   3.136   4.919  1.2243 -0.7675 -0.5158
  860TIP3   OH224070   5.736   1.472  11.050  0.1052 -0.1644  0.1947
  860TIP3    H124071   5.722   1.559  11.087 -0.6996 -0.9585  1.8003
  860TIP3    H224072   5.673   1.467  10.977  0.9051  0.9774 -0.5954
  861TIP3   OH224073   5.476   6.255   2.609 -0.5161  0.2082  0.2996
  861TIP3    H124074   5.548   6.295   2.561  0.1687  0.3573  1.4245
  861TIP3    H224075   5.428   6.206   2.543  1.9822 -1.8605 -0.0771
  862TIP3   OH224076   5.715   6.031   3.335  0.6962  0.1937 -0.1359
  862TIP3    H124077   5.628   6.058   3.365  0.8296 -0.9632  1.3586
  862TIP3    H224078   5.721   5.939   3.361  2.2528  0.1909 -0.4930
  863TIP3   OH224079   0.034   5.332  13.190 -0.5419  0.0590 -0.0407
  863TIP3    H124080   0.111   5.369  13.233  0.6775 -0.2385 -1.9095
  863TIP3    H224081  -0.002   5.404  13.139 -2.5361  0.6726  2.1448
  864TIP3   OH224082   2.349   3.317   1.108 -0.2700 -0.2647  0.6255
  864TIP3    H124083   2.416   3.253   1.086 -0.4171 -0.7280  1.4965
  864TIP3    H224084   2.362   3.389   1.046 -1.8021 -2.2909 -2.1672
  865TIP3   OH224085   1.124   0.703  12.503 -0.5135  0.1857 -0.0938
  865TIP3    H124086   1.168   0.638  12.447 -1.1143 -0.5049  0.2382
  865TIP3    H224087   1.166   0.694  12.588 -1.5426 -0.7254  0.3221
  866TIP3   OH224088   1.964   5.956   1.840  0.4334  0.1988  0.3339
  866TIP3    H124089   1.983   6.045   1.810 -1.9091  0.1684 -1.3599
  866TIP3    H224090   1.948   5.966   1.934  1.6714  1.2982  0.4513
  867TIP3   OH224091   3.894   5.654  15.692  0.0442  0.1595 -0.3567
  867TIP3    H124092   3.919   5.640  15.600  1.4998 -1.0292  0.1915
  867TIP3    H224093   3.847   5.575  15.717 -0.4313  0.5210 -0.0975
  868TIP3   OH224094   4.789   3.597  12.209  0.0681  0.4123  0.3768
  868TIP3    H124095   4.873   3.619  12.169  0.1050 -2.8355 -1.5673
  868TIP3    H224096   4.748   3.681  12.228  3.4014  2.0372  0.6156
  869TIP3   OH224097   1.328   6.104   0.951  0.5458 -0.7339  0.0920
  869TIP3    H124098   1.289   6.184   0.915 -0.3041  0.2792  3.1510
  869TIP3    H224099   1.291   6.033   0.898 -1.7970  0.5860 -0.0971
  870TIP3   OH224100   2.924   0.080  17.197  0.5047  0.1951 -0.8851
  870TIP3    H124101   2.837   0.116  17.181  0.4352  0.7512  0.7017
  870TIP3    H224102   2.912  -0.015  17.192 -0.1545  0.2744 -0.8401
  871TIP3   OH224103   3.565   0.712  13.409  0.6301 -0.1902 -0.2993
  871TIP3    H124104   3.518   0.666  13.479  2.5232 -1.4057  0.2323
  871TIP3    H224105   3.505   0.780  13.379 -0.6228 -0.3645  1.7659
  872TIP3   OH224106   2.229   5.274  12.607 -0.4798 -0.1855 -0.3041
  872TIP3    H124107   2.215   5.256  12.700 -0.2957 -0.1836 -0.2737
  872TIP3    H224108   2.152   5.238  12.563  0.0557 -1.3979 -0.2870
  873TIP3   OH224109   1.591   0.453  16.412 -0.2090 -0.4539  0.6842
  873TIP3    H124110   1.563   0.455  16.503  1.9778 -2.5262  1.4409
  873TIP3    H224111   1.510   0.465  16.362 -1.6415 -0.8179  2.8620
  874TIP3   OH224112   3.678   4.025  14.098  0.0506  0.3160 -0.0792
  874TIP3    H124113   3.636   4.107  14.126  0.4325  0.2090  0.8054
  874TIP3    H224114   3.711   3.986  14.179  0.4080 -0.4164 -0.5780
  875TIP3   OH224115   0.894   6.486   0.266  0.4013 -0.0980  0.2592
  875TIP3    H124116   0.858   6.476   0.178  0.9622  1.7769 -0.2058
  875TIP3    H224117   0.883   6.579   0.286  1.0427 -0.3402  1.8440
  876TIP3   OH224118   5.364   4.774   0.654 -0.1623 -0.0347 -0.0985
  876TIP3    H124119   5.303   4.732   0.714 -1.3975  1.4746 -0.2856
  876TIP3    H224120   5.309   4.819   0.590  1.1423 -0.0607 -1.2664
  877TIP3   OH224121   4.797   5.383  11.363  0.2755  0.3716  0.1908
  877TIP3    H124122   4.760   5.460  11.320  1.0861 -0.2435 -1.6750
  877TIP3    H224123   4.890   5.385  11.341  0.4265 -0.7742  0.6603
  878TIP3   OH224124   0.770   1.896   5.918 -0.0239  0.2608  0.2599
  878TIP3    H124125   0.855   1.939   5.930 -0.1158  0.3786  0.4852
  878TIP3    H224126   0.706   1.962   5.943 -0.1950  0.2881 -0.2395
  879TIP3   OH224127   0.810   6.746   1.677 -0.3089  0.1270  0.1973
  879TIP3    H124128   0.813   6.839   1.655 -2.2335  0.2302  0.3194
  879TIP3    H224129   0.726   6.715   1.642  0.5041 -1.6677 -0.2400
  880TIP3   OH224130   4.846   0.689   6.141 -0.6568  0.0269  0.5223
  880TIP3    H124131   4.879   0.695   6.051 -1.0698  0.7733  0.4133
  880TIP3    H224132   4.887   0.762   6.186 -0.1670 -0.5644  1.0421
  881TIP3   OH224133   0.531   2.160  14.246  0.1980  0.0275 -0.2978
  881TIP3    H124134   0.626   2.174  14.251  0.1055  1.1365 -1.2825
  881TIP3    H224135   0.495   2.249  14.241 -0.8480 -0.4160 -0.6374
  882TIP3   OH224136   1.605   5.796  16.670  0.8613 -0.4271 -0.4819
  882TIP3    H124137   1.578   5.741  16.597 -1.9555 -2.4803  1.9930
  882TIP3    H224138   1.663   5.741  16.722  0.7332  0.1023  0.2317
  883TIP3   OH224139   2.634   6.710  14.090 -0.2298 -0.0731  0.2064
  883TIP3    H124140   2.626   6.804  14.078 -0.7257  0.0335  1.3494
  883TIP3    H224141   2.728   6.694  14.095 -0.1200  0.2626 -0.6856
  884TIP3   OH224142   4.136   6.254   6.514 -0.0948 -0.3607  0.2887
  884TIP3    H124143   4.168   6.211   6.594  0.4860  0.1833  0.3553
  884TIP3    H224144   4.069   6.195   6.481  1.0366 -1.5871  0.1045
  885TIP3   OH224145   5.046   0.223  16.432 -0.6783 -0.2357  0.8192
  885TIP3    H124146   5.078   0.226  16.522  1.1044 -0.1322  0.2068
  885TIP3    H224147   5.098   0.154  16.391 -1.8282 -0.6166 -0.0001
  886TIP3   OH224148   5.515   4.419   6.182 -0.3298  0.2487  0.3659
  886TIP3    H124149   5.481   4.340   6.225  0.1598 -0.2137 -0.0789
  886TIP3    H224150   5.610   4.408   6.184 -0.2499  0.9653  0.5504
  887TIP3   OH224151   2.037   1.314  11.164 -0.3488  0.2187 -0.0266
  887TIP3    H124152   2.059   1.221  11.166  1.0077  0.4602 -1.7989
  887TIP3    H224153   2.105   1.356  11.216  1.0932  0.5373 -2.0833
  888TIP3   OH224154   1.189   4.842   1.337 -0.2234 -0.0445  0.2374
  888TIP3    H124155   1.164   4.760   1.295 -0.0127  0.5043 -0.9979
  888TIP3    H224156   1.145   4.910   1.286  1.9816  0.7966 -0.6447
  889TIP3   OH224157   5.290   3.024   5.119 -0.5530 -0.5855  0.0684
  889TIP3    H124158   5.366   2.984   5.160  2.6462  0.9496 -4.1101
  889TIP3    H224159   5.271   2.970   5.043 -1.2361  1.1668 -1.0536
  890TIP3   OH224160   5.509   4.414   1.531  0.8907 -0.0388  1.0477
  890TIP3    H124161   5.535   4.489   1.584  4.8615  0.6921 -1.7292
  890TIP3    H224162   5.548   4.338   1.576  2.3759  0.3176  0.3641
  891TIP3   OH224163   0.312   6.215   1.586  0.5129 -0.1027  0.1971
  891TIP3    H124164   0.294   6.213   1.492  0.6371 -0.7387  0.1857
  891TIP3    H224165   0.286   6.303   1.613  3.6473  1.3241 -1.0814
  892TIP3   OH224166   3.722   4.791  12.732  0.6677 -0.3926 -0.6097
  892TIP3    H124167   3.705   4.697  12.726 -0.6858 -0.0643 -2.0813
  892TIP3    H224168   3.670   4.830  12.662  1.8399  1.3858 -0.5222
  893TIP3   OH224169   4.090   1.635  15.174 -0.1524  0.4421  0.0728
  893TIP3    H124170   4.062   1.663  15.261  1.6494  0.1255  0.7629
  893TIP3    H224171   4.169   1.686  15.156 -0.3961  0.3615 -1.2928
  894TIP3   OH224172   4.594   2.604   3.384 -0.1771 -0.7936  0.3799
  894TIP3    H124173   4.552   2.519   3.399  0.1812 -1.2461 -1.1363
  894TIP3    H224174   4.582   2.620   3.291  1.9907 -0.3623  0.1596
  895TIP3   OH224175   1.122   4.731   6.637 -0.1408 -0.1166  0.2561
  895TIP3    H124176   1.031   4.703   6.626 -0.1351  0.0499 -0.2485
  895TIP3    H224177   1.140   4.717   6.730  0.1530 -2.6527 -0.1576
  896TIP3   OH224178   3.630   6.147   5.365 -0.1156 -0.1942 -0.4571
  896TIP3    H124179   3.676   6.219   5.321  0.4147 -0.2290  0.0303
  896TIP3    H224180   3.700   6.097   5.408 -0.6780  0.1992  0.9405
  897TIP3   OH224181   1.108   6.727   3.918 -0.4674 -0.3557  0.4717
  897TIP3    H124182   1.050   6.733   3.842  0.8034  0.4627 -0.4532
  897TIP3    H224183   1.105   6.814   3.957 -1.4106 -0.8821  1.6017
  898TIP3   OH224184   1.280   4.147   6.473  0.5827  0.2159  0.0784
  898TIP3    H124185   1.288   4.102   6.558  0.9970 -0.5339 -0.3573
  898TIP3    H224186   1.336   4.223   6.482 -0.6446  1.0410  1.0684
  899TIP3   OH224187   3.087   1.507   5.942  0.1428  0.0441 -0.2691
  899TIP3    H124188   3.002   1.477   5.974  0.0992  0.0062 -0.4175
  899TIP3    H224189   3.149   1.481   6.010  0.0777 -0.2053 -0.3048
  900TIP3   OH224190   3.035   5.605   1.631  0.2928 -0.5180 -0.4956
  900TIP3    H124191   2.948   5.583   1.600  1.1173 -0.9412 -2.6156
  900TIP3    H224192   3.058   5.536   1.693 -0.8949 -0.3590  0.1198
  901TIP3   OH224193   6.412   0.816   1.158  0.3736 -0.1324  0.3176
  901TIP3    H124194   6.491   0.863   1.185 -0.9570  1.7323  1.0818
  901TIP3    H224195   6.358   0.882   1.115 -0.3618 -1.6095 -1.0833
  902TIP3   OH224196   0.174   1.607   2.230 -0.9903  0.2058 -0.5924
  902TIP3    H124197   0.103   1.656   2.188  0.0181  0.7353 -1.6789
  902TIP3    H224198   0.252   1.660   2.217 -0.0769 -1.1796 -0.8508
  903TIP3   OH224199   1.318   5.620   6.156 -0.0673  0.8785 -0.1561
  903TIP3    H124200   1.403   5.601   6.197  0.4041  0.5405 -1.2812
  903TIP3    H224201   1.260   5.551   6.188  0.4001  0.3814 -0.3751
  904TIP3   OH224202   2.770   0.400  14.289  0.3605 -0.3577 -0.5046
  904TIP3    H124203   2.727   0.455  14.354 -2.0387 -0.1575 -2.2052
  904TIP3    H224204   2.743   0.311  14.311  0.6126 -0.4191 -0.4409
  905TIP3   OH224205   4.431   5.616   5.994  0.4974  0.3163 -0.3158
  905TIP3    H124206   4.443   5.546   6.058 -0.8289  2.2779  2.1617
  905TIP3    H224207   4.377   5.577   5.925 -0.0880 -1.1292  0.9419
  906TIP3   OH224208   4.619   5.392   3.092 -0.4967 -0.1039 -0.6734
  906TIP3    H124209   4.643   5.300   3.104  0.3692  0.1259 -0.5619
  906TIP3    H224210   4.559   5.411   3.164  0.7607 -0.0919  0.3934
  907TIP3   OH224211   3.509   2.114   1.495  0.2273  0.4981 -0.1556
  907TIP3    H124212   3.441   2.179   1.507 -1.3995 -1.2215  0.1666
  907TIP3    H224213   3.516   2.102   1.400 -0.2611  0.3302 -0.1694
  908TIP3   OH224214   4.475   3.625  10.429 -0.0565  0.2597 -0.0910
  908TIP3    H124215   4.444   3.694  10.371 -1.1144 -0.9647 -1.0134
  908TIP3    H224216   4.428   3.640  10.512  0.7192  1.4226  0.1457
  909TIP3   OH224217   3.674   0.651   3.217  0.3938  0.5260  0.8498
  909TIP3    H124218   3.729   0.716   3.173  0.8358  0.3947  1.2072
  909TIP3    H224219   3.697   0.658   3.309  1.1028 -0.7697  0.7854
  910TIP3   OH224220   2.043   1.601  16.629  0.3859 -0.0869 -0.5808
  910TIP3    H124221   1.970   1.620  16.571  0.2154 -0.3078 -0.4352
  910TIP3    H224222   2.024   1.652  16.708  1.6003  1.7604 -1.4489
  911TIP3   OH224223   1.857   3.999   3.278 -0.1618 -0.1375  0.0484
  911TIP3    H124224   1.803   4.063   3.323  2.1026  0.7949  1.5688
  911TIP3    H224225   1.831   3.915   3.317 -2.2885 -0.0346 -1.0949
  912TIP3   OH224226   1.879   1.577   5.890  0.8603 -0.2653 -0.8339
  912TIP3    H124227   1.845   1.598   5.977  0.3897  2.1142 -1.5720
  912TIP3    H224228   1.957   1.523   5.907  0.3910 -0.3762  1.0253
  913TIP3   OH224229   0.647   3.321  12.959  0.0160  0.1419 -0.2200
  913TIP3    H124230   0.675   3.281  12.876 -3.3579  2.5734 -2.6790
  913TIP3    H224231   0.712   3.390  12.976 -2.0351  3.1266 -3.7534
  914TIP3   OH224232   0.141   0.661   5.618  0.0957 -0.1967 -0.5250
  914TIP3    H124233   0.169   0.654   5.527  0.1610  0.2363 -0.5367
  914TIP3    H224234   0.050   0.631   5.617 -0.3936  1.2896 -0.9958
  915TIP3   OH224235   4.310   1.531  12.918 -0.3472 -0.0679 -0.3099
  915TIP3    H124236   4.247   1.469  12.954 -0.4708  0.1118 -0.2177
  915TIP3    H224237   4.259   1.608  12.897 -0.8146 -1.2108 -3.5966
  916TIP3   OH224238   0.150   3.715  15.230 -0.4169 -0.0556 -0.3728
  916TIP3    H124239   0.242   3.742  15.227 -0.3026 -0.4537 -0.4482
  916TIP3    H224240   0.133   3.676  15.145 -1.6008  3.0413 -1.6502
  917TIP3   OH224241   4.286   0.869   4.417  0.0697  0.1906 -0.2020
  917TIP3    H124242   4.290   0.914   4.333 -0.8585 -0.8726 -0.8315
  917TIP3    H224243   4.248   0.783   4.397  0.5857 -0.3836  1.1702
  918TIP3   OH224244   4.028   3.485  12.056 -0.3414  0.0866 -0.6015
  918TIP3    H124245   3.996   3.460  12.142 -1.0537  0.0980 -0.8655
  918TIP3    H224246   4.027   3.581  12.056  1.5389  0.1378  0.0846
  919TIP3   OH224247   4.348   5.558  14.855 -0.1446  0.2262 -0.2380
  919TIP3    H124248   4.290   5.615  14.805  1.6267  0.6878 -1.8249
  919TIP3    H224249   4.332   5.471  14.819  0.5104  0.4336 -1.0634
  920TIP3   OH224250   3.542   5.530   3.049  0.0587 -0.0725  0.4544
  920TIP3    H124251   3.630   5.528   3.087 -1.0622  0.6540  3.2544
  920TIP3    H224252   3.519   5.439   3.036  1.2809 -0.2625 -0.4081
  921TIP3   OH224253   2.216   3.958   3.742 -0.4035  0.0807 -0.2480
  921TIP3    H124254   2.193   3.904   3.666 -2.2455 -0.2013  0.4925
  921TIP3    H224255   2.267   4.030   3.705 -2.0008  0.4080 -1.8802
  922TIP3   OH224256   2.263   6.445  12.672  0.6320 -0.0888  0.1719
  922TIP3    H124257   2.320   6.468  12.745  0.5086  1.2798 -0.1502
  922TIP3    H224258   2.236   6.529  12.635  0.8502 -0.7568 -1.5650
  923TIP3   OH224259   2.263   3.758   1.670  0.0845 -0.0569 -0.3000
  923TIP3    H124260   2.232   3.727   1.755 -1.1947  0.0440 -0.7183
  923TIP3    H224261   2.293   3.679   1.625 -0.2203 -0.2565 -0.1538
  924TIP3   OH224262   3.872   0.211  11.081 -0.1428  0.6315  0.7750
  924TIP3    H124263   3.956   0.238  11.117  0.8396  0.1387 -1.0588
  924TIP3    H224264   3.893   0.180  10.993 -2.3515  1.1893  0.0195
  925TIP3   OH224265   6.393   2.012  11.454  0.0514 -0.6213  0.3916
  925TIP3    H124266   6.383   2.107  11.456  0.2615 -0.5651 -1.0200
  925TIP3    H224267   6.472   1.996  11.507 -0.1089 -0.0375  0.8203
  926TIP3   OH224268   6.170   0.278  13.006  0.1433 -0.3771 -0.8208
  926TIP3    H124269   6.203   0.357  12.962  0.5028 -0.0616  0.0001
  926TIP3    H224270   6.244   0.217  13.004  0.8628  0.3695  1.1155
  927TIP3   OH224271   2.866   6.372  16.896 -0.2422  0.4261 -0.4445
  927TIP3    H124272   2.870   6.406  16.807 -0.4654 -0.7201 -0.8980
  927TIP3    H224273   2.892   6.280  16.888 -2.2160 -0.2386  0.3522
  928TIP3   OH224274   1.831   0.970  15.144 -0.0053 -0.1089  0.2194
  928TIP3    H124275   1.810   0.878  15.129  0.9376 -0.3968  0.6276
  928TIP3    H224276   1.746   1.014  15.145 -0.4786 -1.0052  0.2620
  929TIP3   OH224277   1.498   1.009  16.664  0.3297 -0.1419  0.0430
  929TIP3    H124278   1.501   1.072  16.592 -1.4273  0.8951  0.8502
  929TIP3    H224279   1.549   0.934  16.633  0.2993  0.6355 -1.9288
  930TIP3   OH224280   4.874   6.111   2.686 -0.1894  0.5742  0.2146
  930TIP3    H124281   4.964   6.107   2.719 -0.6281  0.1011  1.3811
  930TIP3    H224282   4.857   6.023   2.651 -0.1171  0.7348 -0.2279
  931TIP3   OH224283   5.336   3.654   5.399  0.3016  1.0179 -0.5713
  931TIP3    H124284   5.245   3.665   5.371 -0.1283  0.7138  0.7108
  931TIP3    H224285   5.363   3.741   5.426 -0.1013  0.8123  0.5145
  932TIP3   OH224286   4.540   3.551   2.452  0.1606 -0.6413 -0.2387
  932TIP3    H124287   4.612   3.547   2.515 -0.1438 -0.1244  0.1477
  932TIP3    H224288   4.560   3.627   2.397 -0.1101 -0.4722 -0.1046
  933TIP3   OH224289   3.753   3.275   0.249  0.0023 -0.2165  0.1259
  933TIP3    H124290   3.805   3.264   0.170 -0.7241 -0.5402 -0.3204
  933TIP3    H224291   3.672   3.226   0.231 -1.7099  2.6653 -0.3528
  934TIP3   OH224292   2.385   1.734  11.285 -0.5927 -0.1406 -0.8625
  934TIP3    H124293   2.410   1.670  11.352 -0.3930 -0.7700 -1.5404
  934TIP3    H224294   2.465   1.747  11.234 -1.4355 -1.6749 -2.6415
  935TIP3   OH224295   2.612   2.617   4.032 -0.3289 -0.2121  0.2862
  935TIP3    H124296   2.707   2.610   4.020 -0.3481  2.2330 -1.7893
  935TIP3    H224297   2.574   2.568   3.959 -0.6506 -0.2709  0.4891
  936TIP3   OH224298   4.520   6.785   5.572 -0.2410 -0.4467  0.0272
  936TIP3    H124299   4.478   6.813   5.491 -0.3533 -1.3274 -0.2293
  936TIP3    H224300   4.447   6.756   5.627 -0.1428 -0.0985  0.3380
  937TIP3   OH224301   3.591   2.243  14.447 -0.6726 -0.7944 -0.5881
  937TIP3    H124302   3.640   2.246  14.365 -1.0259  1.2931 -0.7461
  937TIP3    H224303   3.650   2.282  14.511 -1.3893 -0.0327 -0.3847
  938TIP3   OH224304   2.008   2.699   5.562 -0.0562 -0.1731  0.0057
  938TIP3    H124305   2.018   2.670   5.472  0.0025 -0.1862  0.0169
  938TIP3    H224306   1.929   2.753   5.561 -0.2642 -0.4763  0.0204
  939TIP3   OH224307   3.638   5.697   3.506  0.5759 -0.6660  0.2337
  939TIP3    H124308   3.660   5.610   3.539  0.2483 -1.3502 -1.3211
  939TIP3    H224309   3.595   5.740   3.580 -0.7383 -2.4014  0.5327
  940TIP3   OH224310   1.047   3.275   6.360 -0.2239  0.3697 -0.4301
  940TIP3    H124311   0.954   3.266   6.384 -0.2154  0.5570 -0.3322
  940TIP3    H224312   1.086   3.192   6.388 -0.2492  0.5161  0.0390
  941TIP3   OH224313   3.228   3.949   0.350  0.6763 -0.1721  0.5393
  941TIP3    H124314   3.265   4.024   0.304  1.0745  0.4016  1.7509
  941TIP3    H224315   3.134   3.964   0.349  0.5574 -0.9188 -1.3475
  942TIP3   OH224316   1.738   0.508   3.041 -0.3445  0.3185  0.2223
  942TIP3    H124317   1.665   0.569   3.040 -0.6330 -0.0369 -0.3197
  942TIP3    H224318   1.758   0.493   2.949  0.7001  0.7575  0.3686
  943TIP3   OH224319   3.322   4.894  16.110  0.7809  0.5187  0.5997
  943TIP3    H124320   3.386   4.824  16.122  1.4546  1.2315  1.2346
  943TIP3    H224321   3.333   4.922  16.019 -0.7076 -1.3722 -0.1832
  944TIP3   OH224322   0.952   2.412  11.416  0.0499  0.1119  0.2821
  944TIP3    H124323   0.970   2.349  11.486  0.1303  1.4140  1.4704
  944TIP3    H224324   1.025   2.401  11.355 -0.3132 -1.4259  0.1179
  945TIP3   OH224325   0.960   2.313   1.175 -0.2249 -0.1652  0.1090
  945TIP3    H124326   0.977   2.228   1.134  1.2652 -0.1764  0.7284
  945TIP3    H224327   1.040   2.362   1.161 -1.4841  1.5610 -1.2521
  946TIP3   OH224328   5.411   3.583   4.788  0.2296  0.1012  0.0645
  946TIP3    H124329   5.431   3.676   4.799 -3.0468  1.0117 -1.1847
  946TIP3    H224330   5.398   3.572   4.694 -0.5408 -1.3510  0.3251
  947TIP3   OH224331   3.481   2.664   4.034  0.6823 -0.1307  0.3806
  947TIP3    H124332   3.486   2.711   3.951  0.3290  0.1582  0.5188
  947TIP3    H224333   3.387   2.651   4.048  0.7130  0.3849  1.0532
  948TIP3   OH224334   4.819   4.833   5.613 -0.5958  0.2646 -0.2626
  948TIP3    H124335   4.868   4.901   5.661 -1.2380  0.5286  0.0212
  948TIP3    H224336   4.843   4.847   5.522  1.1798 -0.6780  0.0204
  949TIP3   OH224337   0.308   1.354  13.410  0.5583 -0.5562 -0.4099
  949TIP3    H124338   0.223   1.342  13.453 -0.5640  0.3885 -2.3101
  949TIP3    H224339   0.333   1.266  13.382 -0.1264 -0.7404 -0.4511
  950TIP3   OH224340   2.002   3.118  16.356  0.0346 -0.6200 -0.1658
  950TIP3    H124341   1.913   3.116  16.391 -0.7457 -2.3884 -2.1067
  950TIP3    H224342   2.037   3.202  16.385 -2.0992 -0.0972  1.0342
  951TIP3   OH224343   1.951   0.096   2.890  0.5197  0.0176  0.6152
  951TIP3    H124344   1.888   0.025   2.903  2.9549 -1.9902  1.9561
  951TIP3    H224345   2.012   0.063   2.824  1.4763  0.9915  0.9831
  952TIP3   OH224346   0.884   1.714   2.540  0.4146 -0.0425 -0.1755
  952TIP3    H124347   0.979   1.705   2.532  0.3841 -0.0198 -0.5805
  952TIP3    H224348   0.870   1.745   2.629  0.6847 -1.6688  0.4438
  953TIP3   OH224349   5.630   5.538  11.293  0.4780  0.4376  0.2991
  953TIP3    H124350   5.548   5.490  11.302  0.2043  1.2934  2.6100
  953TIP3    H224351   5.612   5.605  11.228 -0.6513  0.6109  0.7886
  954TIP3   OH224352   3.785   4.680   2.249  0.0368 -0.2467 -0.2886
  954TIP3    H124353   3.768   4.706   2.159  2.8171  2.1223 -0.1640
  954TIP3    H224354   3.718   4.726   2.301 -0.2404  0.0468 -0.9071
  955TIP3   OH224355   2.956   1.294   4.175 -0.0651  0.0035  0.3407
  955TIP3    H124356   2.906   1.253   4.246  1.4369 -0.4428  1.1700
  955TIP3    H224357   2.946   1.388   4.191 -3.6751  0.0752 -1.6801
  956TIP3   OH224358   2.638   2.439   2.329  0.0218 -0.9618 -0.1593
  956TIP3    H124359   2.718   2.478   2.364 -2.3421  2.2922  1.9040
  956TIP3    H224360   2.617   2.492   2.252 -0.3993 -1.5245 -0.4336
  957TIP3   OH224361   0.922   5.731  16.678 -0.5087  0.2039 -0.1384
  957TIP3    H124362   0.874   5.649  16.693 -0.1556  0.3606  2.0066
  957TIP3    H224363   0.906   5.782  16.758  4.3315 -0.2647  1.2418
  958TIP3   OH224364   2.822   4.915   5.819 -0.7904  0.1744 -0.2546
  958TIP3    H124365   2.785   4.890   5.904 -0.3130  0.0296 -0.0921
  958TIP3    H224366   2.899   4.967   5.841 -0.6346  0.0883 -0.6041
  959TIP3   OH224367   3.891   0.144  16.949 -0.6615 -0.2605  0.0086
  959TIP3    H124368   3.918   0.167  17.038  2.0747  2.6237 -1.4362
  959TIP3    H224369   3.905   0.050  16.942  2.5558  0.0269  1.5965
  960TIP3   OH224370   4.680   6.666   3.613 -0.2116  0.1103  0.3601
  960TIP3    H124371   4.682   6.632   3.703 -0.4466  1.4656  0.8947
  960TIP3    H224372   4.617   6.611   3.567  0.4545 -1.0624  0.8303
  961TIP3   OH224373   3.449   5.720  11.990 -0.2973  0.1800 -0.0727
  961TIP3    H124374   3.378   5.733  12.052  0.6820 -0.9875  1.3352
  961TIP3    H224375   3.479   5.631  12.007  1.7320  0.7829 -0.3875
  962TIP3   OH224376   4.825   2.976  12.049  0.1408  0.4158  0.0105
  962TIP3    H124377   4.793   2.887  12.038 -0.0169  0.5000 -0.2292
  962TIP3    H224378   4.745   3.030  12.050  0.2524  0.5886 -0.2098
  963TIP3   OH224379   0.104   6.409  13.256  0.8186  0.3293 -1.1223
  963TIP3    H124380   0.150   6.438  13.334  0.2761  0.2671 -0.7751
  963TIP3    H224381   0.041   6.479  13.238  1.3496  0.6213 -1.8481
  964TIP3   OH224382   3.688   5.974  14.380  0.2882  0.1536 -0.3840
  964TIP3    H124383   3.630   6.031  14.329  1.0318  0.1763 -1.2412
  964TIP3    H224384   3.732   6.033  14.441  0.9729  0.4922 -1.1934
  965TIP3   OH224385   3.151   2.361  16.620 -0.5603 -0.3044 -0.3342
  965TIP3    H124386   3.093   2.388  16.549  2.5170  2.4748 -1.9387
  965TIP3    H224387   3.179   2.273  16.597 -1.9935 -0.6103 -0.9503
  966TIP3   OH224388   0.392   2.217  13.193  0.6056  0.2680 -0.1492
  966TIP3    H124389   0.487   2.214  13.186  0.8151  0.2137  2.2968
  966TIP3    H224390   0.375   2.260  13.277 -1.5307 -0.0364 -0.3794
  967TIP3   OH224391   6.564   0.713  17.174 -0.0093 -0.0918  0.7999
  967TIP3    H124392   6.529   0.781  17.116 -0.9784 -0.5270  0.8601
  967TIP3    H224393   6.589   0.760  17.253  0.0852  0.3152  0.5293
  968TIP3   OH224394   3.441   6.044   2.033  0.1254 -0.5923 -0.6210
  968TIP3    H124395   3.425   5.989   2.110 -0.3597 -0.9675 -0.9886
  968TIP3    H224396   3.398   5.998   1.961  0.1930 -0.0132 -1.0364
  969TIP3   OH224397   5.401   6.333  15.300 -0.9919  0.2649  0.6261
  969TIP3    H124398   5.376   6.242  15.287 -3.4981  0.9347  0.4174
  969TIP3    H224399   5.480   6.344  15.249 -0.4219 -1.9016  1.0056
  970TIP3   OH224400   4.801   5.167   3.701  0.3985 -0.5445 -0.1409
  970TIP3    H124401   4.752   5.167   3.782 -1.5133 -2.5089 -1.2504
  970TIP3    H224402   4.787   5.255   3.664  0.7947  0.1481  1.3221
  971TIP3   OH224403   6.576   3.529  11.218 -0.7603 -0.3538 -0.1690
  971TIP3    H124404   6.656   3.489  11.251 -0.2132  1.6264  0.9569
  971TIP3    H224405   6.505   3.475  11.254  0.0516 -2.6251 -1.8784
  972TIP3   OH224406   5.523   0.491  15.648 -0.1951  0.6816 -0.5043
  972TIP3    H124407   5.560   0.564  15.697  1.9741 -0.2211 -0.7494
  972TIP3    H224408   5.543   0.511  15.556  0.4813 -0.2431 -0.5694
  973TIP3   OH224409   5.887   0.102   4.296  0.4447  0.5621  0.4289
  973TIP3    H124410   5.936   0.024   4.320 -0.2074  0.1907  0.5692
  973TIP3    H224411   5.799   0.070   4.276  0.3774  1.1641 -0.2589
  974TIP3   OH224412   3.568   6.568   5.807 -0.2814  0.1529 -0.0538
  974TIP3    H124413   3.529   6.484   5.833 -1.3701  0.4306 -0.7576
  974TIP3    H224414   3.591   6.556   5.715 -0.4664  0.6337 -0.1653
  975TIP3   OH224415   4.394   1.707   0.687  0.5353 -0.2879  0.0604
  975TIP3    H124416   4.365   1.773   0.623  0.5876 -0.3748 -0.0517
  975TIP3    H224417   4.366   1.624   0.650 -0.1813 -0.2697  0.5537
  976TIP3   OH224418   1.175   3.029  15.630  0.1745 -0.2266 -0.5839
  976TIP3    H124419   1.151   2.937  15.619  2.5971 -0.8787 -0.7960
  976TIP3    H224420   1.268   3.032  15.607  0.2486  2.1908 -0.0971
  977TIP3   OH224421   5.656   6.807  13.984 -0.0326  0.5997  0.1005
  977TIP3    H124422   5.661   6.804  14.080 -1.2734 -1.6727  0.1233
  977TIP3    H224423   5.573   6.765  13.963 -0.4352  2.3462 -1.9276
  978TIP3   OH224424   1.607   2.756  15.771 -0.4443 -0.5518  0.2305
  978TIP3    H124425   1.596   2.673  15.725 -0.7299 -0.0640 -0.5918
  978TIP3    H224426   1.694   2.751  15.810 -0.4102 -1.1809  0.0757
  979TIP3   OH224427   1.502   2.320   5.904 -0.0812  0.0901  0.3850
  979TIP3    H124428   1.597   2.313   5.896  0.0313  2.7901 -1.4251
  979TIP3    H224429   1.488   2.377   5.979 -0.3271 -1.4707  1.5346
  980TIP3   OH224430   0.782   1.526   2.814  0.2807  0.0621  0.0750
  980TIP3    H124431   0.753   1.601   2.865 -1.5733 -0.3645 -0.3090
  980TIP3    H224432   0.746   1.541   2.726  0.1705 -1.1074 -0.0880
  981TIP3   OH224433   2.198   4.108  10.534  0.0177 -0.7580 -0.0026
  981TIP3    H124434   2.219   4.069  10.619  0.0418  1.7452  1.1534
  981TIP3    H224435   2.105   4.129  10.540  0.0936 -0.2864 -0.5004
  982TIP3   OH224436   0.043   2.040  15.945 -0.0294  0.0403  0.2530
  982TIP3    H124437   0.105   1.974  15.973 -1.5797 -1.8385 -0.6520
  982TIP3    H224438   0.095   2.119  15.932  2.3588 -1.7861 -1.6442
  983TIP3   OH224439   1.829   2.824  10.525 -0.4281 -0.1498  0.0260
  983TIP3    H124440   1.820   2.731  10.543  0.3470 -0.0371  1.0332
  983TIP3    H224441   1.749   2.847  10.478 -1.6240 -0.8716  1.6587
  984TIP3   OH224442   6.533   1.276   3.064 -0.0319  0.3385  0.0592
  984TIP3    H124443   6.485   1.271   2.982  0.1573  3.8358 -0.3204
  984TIP3    H224444   6.466   1.290   3.131  0.0102 -0.1193  0.1967
  985TIP3   OH224445   0.766   3.416  14.415  0.2562 -0.0649  0.0341
  985TIP3    H124446   0.743   3.505  14.389  0.4952  0.0811  0.3238
  985TIP3    H224447   0.683   3.367  14.411  0.0822  0.2244  0.1050
  986TIP3   OH224448   3.253   4.567   1.828 -0.1335  0.8948 -0.0844
  986TIP3    H124449   3.200   4.488   1.826  0.0120  0.7974 -0.0633
  986TIP3    H224450   3.291   4.568   1.916 -0.4251  1.1779  0.0411
  987TIP3   OH224451   1.342   1.856  11.603  0.4092  0.2932 -0.3350
  987TIP3    H124452   1.404   1.842  11.675 -0.4585  0.4245  0.4539
  987TIP3    H224453   1.367   1.941  11.566  1.2183 -0.0393 -0.5521
  988TIP3   OH224454   6.783   5.615   3.926 -0.6293 -0.2124 -0.0886
  988TIP3    H124455   6.863   5.590   3.974  0.2211 -1.9400 -2.3072
  988TIP3    H224456   6.716   5.621   3.994  0.5775 -2.4570  1.3856
  989TIP3   OH224457   2.201   6.401   5.168 -0.3779 -0.6413 -0.2622
  989TIP3    H124458   2.124   6.420   5.221 -0.5054 -1.5414 -0.1228
  989TIP3    H224459   2.167   6.376   5.082 -0.2246 -0.5721 -0.3440
  990TIP3   OH224460   3.023   2.913  15.076 -0.0229  0.5196 -0.1067
  990TIP3    H124461   2.983   2.858  15.008 -0.5216  1.1752 -0.3578
  990TIP3    H224462   2.969   2.897  15.154  0.1575  0.2456 -0.0407
  991TIP3   OH224463   1.952   3.201  15.017  0.6367 -0.5233 -0.5188
  991TIP3    H124464   2.014   3.273  15.032  1.8381 -1.6487  0.0322
  991TIP3    H224465   1.958   3.148  15.096 -1.1832 -0.5552 -0.3867
  992TIP3   OH224466   0.095   2.593  14.498 -0.0758 -0.0698 -0.3083
  992TIP3    H124467   0.074   2.684  14.517 -1.3822 -0.9826  3.1234
  992TIP3    H224468   0.190   2.588  14.503  0.0307  1.2109 -1.0009
  993TIP3   OH224469   3.999   6.702   0.431  0.2413  0.3692  0.0370
  993TIP3    H124470   3.959   6.615   0.435 -0.1445  0.5723  0.8175
  993TIP3    H224471   3.954   6.746   0.358 -0.4845  0.3593  0.4746
  994TIP3   OH224472   3.452   3.314  17.201  0.1371  0.0051  0.6778
  994TIP3    H124473   3.392   3.277  17.266 -0.3546 -0.4388 -0.0208
  994TIP3    H224474   3.505   3.240  17.172 -1.5133 -0.3837 -1.4467
  995TIP3   OH224475   3.921   1.586  11.515  0.6410  0.7167  0.6974
  995TIP3    H124476   3.836   1.557  11.482  1.8555 -0.0537 -1.9094
  995TIP3    H224477   3.924   1.680  11.495  0.5805  0.6528  0.3859
  996TIP3   OH224478   0.226   6.185   2.865 -0.5140 -0.0197  0.3416
  996TIP3    H124479   0.229   6.279   2.879  1.7786  0.3224 -2.1862
  996TIP3    H224480   0.209   6.175   2.771  4.2255 -2.0336 -0.4354
  997TIP3   OH224481   5.090   5.079  11.411  0.1525  0.0732 -0.1893
  997TIP3    H124482   5.103   5.043  11.499 -1.5567 -0.6344 -0.2171
  997TIP3    H224483   5.038   5.158  11.425  1.6342  1.1110 -0.3879
  998TIP3   OH224484   0.213   5.193  12.313  0.4061 -0.1579  0.1466
  998TIP3    H124485   0.227   5.098  12.317 -0.3780 -0.4031 -2.2353
  998TIP3    H224486   0.118   5.203  12.306  0.5297  0.7540 -0.3242
  999TIP3   OH224487   0.783   0.558  12.951 -0.5520  0.9284 -0.1273
  999TIP3    H124488   0.755   0.602  13.031 -0.7024 -0.0067  0.3395
  999TIP3    H224489   0.702   0.544  12.902 -0.5813  0.5865  0.0210
 1000TIP3   OH224490   5.364   0.767   1.205  0.0736 -0.0621 -0.0290
 1000TIP3    H124491   5.276   0.806   1.207 -0.4849 -1.3117  2.7455
 1000TIP3    H224492   5.419   0.836   1.168 -1.4898  2.0739  1.4154
 1001TIP3   OH224493   1.814   5.278   2.866  0.2584 -0.2486  0.1062
 1001TIP3    H124494   1.778   5.236   2.943 -1.8521  1.3316  0.0350
 1001TIP3    H224495   1.772   5.233   2.792  0.9590 -0.6027 -0.0816
 1002TIP3   OH224496   0.206   0.785   4.936  0.1210 -0.0282  0.1469
 1002TIP3    H124497   0.299   0.808   4.943  0.2426 -0.3066 -0.5231
 1002TIP3    H224498   0.200   0.733   4.856 -0.8760  1.3524 -0.6870
 1003TIP3   OH224499   5.232   6.117  11.088  0.6439 -0.1942  0.4340
 1003TIP3    H124500   5.180   6.162  11.155  0.8408  0.5700  0.0791
 1003TIP3    H224501   5.192   6.142  11.005  0.4287 -1.1077  0.2579
 1004TIP3   OH224502   0.504   4.308   6.022 -0.3394 -1.1753  0.3381
 1004TIP3    H124503   0.484   4.257   5.944  1.5574 -1.6872  0.1574
 1004TIP3    H224504   0.539   4.390   5.989 -0.0717 -1.1629  0.6559
 1005TIP3   OH224505   6.442   0.407   4.914 -0.0392 -0.1725  0.0990
 1005TIP3    H124506   6.511   0.378   4.973  0.5313  0.3807 -0.2940
 1005TIP3    H224507   6.410   0.327   4.873 -1.3653 -0.7497  2.1349
 1006TIP3   OH224508   6.777   3.670  13.873  0.4159 -0.1820  0.4573
 1006TIP3    H124509   6.764   3.609  13.800  1.8334 -2.0781  1.7447
 1006TIP3    H224510   6.730   3.749  13.846 -2.3022 -2.1337 -0.8585
 1007TIP3   OH224511   1.182   4.481  15.386 -0.7270 -0.4908 -0.0901
 1007TIP3    H124512   1.214   4.398  15.422 -0.9094 -0.9343 -0.9275
 1007TIP3    H224513   1.258   4.539  15.385 -0.7521 -0.4418  1.1056
 1008TIP3   OH224514   5.930   1.084  14.768 -0.0127 -0.1853 -0.4681
 1008TIP3    H124515   5.859   1.024  14.747 -0.0516 -0.1902 -0.3268
 1008TIP3    H224516   5.960   1.056  14.855 -0.8616  0.7863  0.1539
 1009TIP3   OH224517   1.180   6.167  15.745  0.2041  0.6157 -0.1113
 1009TIP3    H124518   1.173   6.167  15.841  1.3326  2.7650  0.0003
 1009TIP3    H224519   1.094   6.198  15.715 -0.0110  0.3423  0.2172
 1010TIP3   OH224520   1.070   6.663   6.277  0.2207 -0.0552 -0.5054
 1010TIP3    H124521   1.023   6.742   6.301  1.5203 -0.4032  3.6418
 1010TIP3    H224522   1.041   6.598   6.341  1.2582 -2.1817 -2.1223
 1011TIP3   OH224523   2.835   4.496   3.345 -0.5988  0.3723 -0.1651
 1011TIP3    H124524   2.780   4.528   3.417 -0.5069  0.1821 -0.0086
 1011TIP3    H224525   2.919   4.475   3.387 -1.3360 -2.1088  0.1296
 1012TIP3   OH224526   0.866   2.348  12.210  0.2047  0.6743  0.5302
 1012TIP3    H124527   0.931   2.387  12.269 -0.1549  2.0635  0.0424
 1012TIP3    H224528   0.902   2.263  12.187  1.2835  0.9387  1.2055
 1013TIP3   OH224529   6.307   1.152  11.861 -0.0041 -0.1341 -0.0295
 1013TIP3    H124530   6.242   1.118  11.800  1.1597 -3.6804  0.5881
 1013TIP3    H224531   6.388   1.156  11.810 -0.1407  1.9857 -0.1326
 1014TIP3   OH224532   5.259   5.130  10.681  0.4538 -0.1326 -0.0596
 1014TIP3    H124533   5.204   5.130  10.603 -1.0199 -1.9079  0.9235
 1014TIP3    H224534   5.341   5.171  10.653 -1.4443  2.9068 -1.4765
 1015TIP3   OH224535   3.820   1.765  13.447  0.2293  0.6041  0.1214
 1015TIP3    H124536   3.790   1.745  13.536 -2.5417 -0.7349 -1.0811
 1015TIP3    H224537   3.758   1.829  13.414  1.5620  1.5038 -0.7041
 1016TIP3   OH224538   3.496   3.919  14.962  0.3802  0.0858 -0.0796
 1016TIP3    H124539   3.540   3.863  14.899  0.4147 -0.0640  0.0791
 1016TIP3    H224540   3.565   3.950  15.020  0.3218  0.0843 -0.0092
 1017TIP3   OH224541   6.491   2.246  16.603 -0.2187  0.1826 -0.2556
 1017TIP3    H124542   6.549   2.219  16.532 -0.5678 -1.9848  0.2506
 1017TIP3    H224543   6.474   2.166  16.652 -2.0936  1.1555  0.7447
 1018TIP3   OH224544   1.224   5.455  15.636  0.4992  0.0720 -0.3262
 1018TIP3    H124545   1.294   5.421  15.692  1.5675  0.3935 -1.4240
 1018TIP3    H224546   1.169   5.379  15.617 -0.7681  0.2674  2.3861
 1019TIP3   OH224547   1.656   6.561  16.713 -0.9613 -0.4173 -0.7765
 1019TIP3    H124548   1.562   6.571  16.698 -1.8634 -0.9438  3.8775
 1019TIP3    H224549   1.664   6.478  16.761  1.8436 -0.1290 -0.6690
 1020TIP3   OH224550   3.650   1.680  14.849  0.6271  0.2373  0.2553
 1020TIP3    H124551   3.691   1.593  14.842  0.9213  0.3045  1.1208
 1020TIP3    H224552   3.597   1.687  14.769 -1.2260 -1.6936  1.2465
 1021TIP3   OH224553   6.554   3.805   0.825 -0.4472  0.6968 -0.3055
 1021TIP3    H124554   6.615   3.818   0.752  2.0027 -3.0190  0.9772
 1021TIP3    H224555   6.520   3.717   0.813 -2.1006  1.0407  1.5777
 1022TIP3   OH224556   0.595   2.497   3.569  0.3254  0.1311 -0.4313
 1022TIP3    H124557   0.510   2.455   3.584  0.6285  0.3380  2.0743
 1022TIP3    H224558   0.573   2.589   3.551 -0.1036 -0.3021 -2.2074
 1023TIP3   OH224559   2.084   0.323  14.054  0.0100 -0.6240  0.6125
 1023TIP3    H124560   2.124   0.236  14.063  1.2883 -0.0740  0.3655
 1023TIP3    H224561   2.157   0.384  14.066 -1.1662  0.4707  2.4349
 1024TIP3   OH224562   3.319   1.022   2.922  0.3019 -0.6312  0.5216
 1024TIP3    H124563   3.291   1.112   2.942 -0.9161 -0.9006  0.0569
 1024TIP3    H224564   3.289   1.007   2.832  0.3303 -1.5695  0.6634
 1025TIP3   OH224565   6.459   3.614   4.513 -0.3869 -0.0824  0.3180
 1025TIP3    H124566   6.446   3.655   4.427 -0.3311 -1.4643 -0.3643
 1025TIP3    H224567   6.553   3.624   4.530 -0.6259  1.3560  0.8269
 1026TIP3   OH224568   3.331   2.326  16.834 -0.0606  0.2608 -0.3386
 1026TIP3    H124569   3.276   2.351  16.760 -1.0374 -1.3835 -0.1939
 1026TIP3    H224570   3.317   2.396  16.898  1.7409  2.3351 -2.1326
 1027TIP3   OH224571   4.131   6.137  10.853  0.1470  0.1343 -0.0838
 1027TIP3    H124572   4.099   6.227  10.854 -0.5246 -0.0258 -2.8306
 1027TIP3    H224573   4.080   6.092  10.921 -0.8005  1.4037  0.0499
 1028TIP3   OH224574   5.625   4.184  14.590  0.0241  0.2557  0.3906
 1028TIP3    H124575   5.550   4.223  14.635  0.0657 -2.0055  2.5368
 1028TIP3    H224576   5.594   4.097  14.563  1.4316 -0.1268 -0.0192
 1029TIP3   OH224577   2.345   1.004  13.750  0.1646  0.2000  0.4479
 1029TIP3    H124578   2.292   1.083  13.743  0.5985  0.5047  0.6051
 1029TIP3    H224579   2.429   1.034  13.786  0.6087 -0.2132 -0.2343
 1030TIP3   OH224580   3.605   1.279  14.512 -0.1676  0.3476 -0.8317
 1030TIP3    H124581   3.681   1.221  14.520  0.0911  0.7501 -0.2784
 1030TIP3    H224582   3.565   1.256  14.429 -0.3979 -1.0128 -0.3537
 1031TIP3   OH224583   0.279   3.960  12.248  0.0655 -0.3573 -0.0008
 1031TIP3    H124584   0.214   4.023  12.278  0.4701 -0.0853  0.2952
 1031TIP3    H224585   0.360   3.984  12.293  1.0243  0.8926 -2.2865
 1032TIP3   OH224586   6.611   3.971  11.247 -0.0226 -0.6786  0.5196
 1032TIP3    H124587   6.629   4.064  11.264 -0.4738 -0.2934 -0.9956
 1032TIP3    H224588   6.641   3.926  11.326  1.9024  0.5574  0.5206
 1033TIP3   OH224589   3.404   2.188  12.112  0.2729  0.0186 -0.5075
 1033TIP3    H124590   3.392   2.093  12.111 -3.2536  0.4255  0.1130
 1033TIP3    H224591   3.400   2.213  12.020  0.1155 -0.2920 -0.5875
 1034TIP3   OH224592   5.879   3.556   5.825 -0.0885 -0.0346 -0.0507
 1034TIP3    H124593   5.828   3.632   5.797  1.2354  1.4517  1.4417
 1034TIP3    H224594   5.964   3.568   5.782  0.8245  0.4726  1.8595
 1035TIP3   OH224595   4.084   3.014   2.600 -0.5926  0.7702 -0.3813
 1035TIP3    H124596   4.089   3.031   2.506  1.1367  1.1239 -0.2359
 1035TIP3    H224597   4.149   2.946   2.616 -0.9047  0.6863  0.5593
 1036TIP3   OH224598   5.740   1.429  16.773 -0.0535 -0.3026  0.3561
 1036TIP3    H124599   5.737   1.483  16.694  1.5486  1.1097  1.2078
 1036TIP3    H224600   5.818   1.376  16.763  0.4044  0.2058  1.1763
 1037TIP3   OH224601   6.647   4.029   1.418  0.3391 -0.0887  0.3863
 1037TIP3    H124602   6.565   4.070   1.391 -0.2474 -0.9196  0.8916
 1037TIP3    H224603   6.632   3.935   1.408  1.6328 -0.2034 -0.6615
 1038TIP3   OH224604   4.970   0.307  13.932  0.5476 -0.0026  0.4969
 1038TIP3    H124605   4.940   0.391  13.899 -1.3628 -1.7576 -2.4499
 1038TIP3    H224606   4.931   0.242  13.873  2.4573 -2.9322  2.3028
 1039TIP3   OH224607   5.563   6.247  14.367 -0.1154 -0.0878  0.7176
 1039TIP3    H124608   5.658   6.252  14.357 -0.0718  0.2736  1.3357
 1039TIP3    H224609   5.536   6.181  14.303  0.4808  0.2643  0.0979
 1040TIP3   OH224610   2.956   6.469   3.238  0.2102  0.0837 -0.4003
 1040TIP3    H124611   2.907   6.531   3.293 -2.7427 -1.6202 -0.9808
 1040TIP3    H224612   2.979   6.520   3.160  1.1147  1.4651  0.7490
 1041TIP3   OH224613   2.208   2.783   1.491 -0.1749  0.2544 -0.2172
 1041TIP3    H124614   2.239   2.725   1.561  1.2139 -0.0244 -1.0607
 1041TIP3    H224615   2.189   2.865   1.536  0.1005 -0.1170  0.5966
 1042TIP3   OH224616   6.132   1.690   2.047 -0.2225  0.1519  0.2024
 1042TIP3    H124617   6.215   1.696   2.000  0.6709 -0.2504  1.6584
 1042TIP3    H224618   6.145   1.745   2.125 -0.8257 -0.9751  1.1190
 1043TIP3   OH224619   1.765   4.369  13.962  0.2336  0.1011 -0.4654
 1043TIP3    H124620   1.820   4.361  13.884 -1.2705 -0.6817 -1.4788
 1043TIP3    H224621   1.824   4.351  14.035  1.1126 -1.7698 -1.6044
 1044TIP3   OH224622   4.905   1.354  11.473  0.0110 -0.0949 -0.0183
 1044TIP3    H124623   4.994   1.366  11.508  0.8174  1.1268 -2.3698
 1044TIP3    H224624   4.878   1.442  11.448 -1.3766 -0.6612 -0.5008
 1045TIP3   OH224625   6.560   6.311  12.065  0.0616  0.1751 -0.5033
 1045TIP3    H124626   6.533   6.399  12.091 -0.7540 -0.0085 -0.7397
 1045TIP3    H224627   6.480   6.267  12.039  0.4319 -0.7414 -0.1152
 1046TIP3   OH224628   4.190   5.355   2.994  0.6065  0.5734  0.0315
 1046TIP3    H124629   4.142   5.389   2.919 -1.4634 -0.2216  0.9681
 1046TIP3    H224630   4.272   5.404   2.994  0.9930  0.0064 -3.2232
 1047TIP3   OH224631   0.020   3.373  14.929 -0.3254 -0.4469 -0.5225
 1047TIP3    H124632   0.038   3.466  14.941 -0.5760 -0.2421 -1.6861
 1047TIP3    H224633   0.095   3.340  14.880 -1.4286 -0.3131 -2.3518
 1048TIP3   OH224634   5.587   3.536   5.351 -0.0786  0.3991 -1.0062
 1048TIP3    H124635   5.587   3.537   5.255  0.0942  1.5887 -1.0076
 1048TIP3    H224636   5.497   3.556   5.375 -0.2400 -0.4401 -0.9232
 1049TIP3   OH224637   5.601   2.590   0.441  0.5507 -0.0346  0.3973
 1049TIP3    H124638   5.638   2.590   0.353 -1.8826 -1.8351 -0.6723
 1049TIP3    H224639   5.531   2.656   0.437 -0.0723 -0.6727  0.7640
 1050TIP3   OH224640   0.218   3.849   0.148  0.1480 -0.2673 -0.2528
 1050TIP3    H124641   0.274   3.804   0.211  0.7344 -0.4823 -0.9257
 1050TIP3    H224642   0.231   3.801   0.066 -2.2803 -1.4092 -0.0524
 1051TIP3   OH224643   2.924   5.220  12.624 -0.0520 -0.2013  0.1360
 1051TIP3    H124644   2.847   5.270  12.649 -0.4288 -0.3714 -0.6474
 1051TIP3    H224645   2.937   5.157  12.694 -0.5597 -0.0988  0.3203
 1052TIP3   OH224646   4.550   0.161  14.077  0.2243 -0.2005 -0.3428
 1052TIP3    H124647   4.572   0.070  14.054  1.3226  0.2018 -0.9429
 1052TIP3    H224648   4.455   0.165  14.070  0.0177 -1.7178  1.2525
 1053TIP3   OH224649   6.315   3.938   0.691 -0.5169 -0.2149 -0.6670
 1053TIP3    H124650   6.410   3.948   0.695 -0.7692  1.8327  0.8512
 1053TIP3    H224651   6.291   3.897   0.774 -1.1486  1.1074 -0.1798
 1054TIP3   OH224652   3.228   0.322  15.558  0.0544 -0.3040 -0.1185
 1054TIP3    H124653   3.306   0.272  15.537  0.8281  1.2807 -1.1489
 1054TIP3    H224654   3.227   0.328  15.653  2.1110  1.0724 -0.1546
 1055TIP3   OH224655   1.182   4.075   5.400  0.0479  0.1614 -0.2841
 1055TIP3    H124656   1.101   4.067   5.349  1.3482  1.0043 -2.5536
 1055TIP3    H224657   1.202   4.168   5.401  0.8131  0.0030  0.5741
 1056TIP3   OH224658   5.074   2.789  12.938  0.0278 -0.2917  0.1931
 1056TIP3    H124659   5.133   2.718  12.913  1.8291  0.9102  0.8620
 1056TIP3    H224660   5.121   2.835  13.008 -0.9754  1.6799 -0.3867
 1057TIP3   OH224661   2.774   2.835  11.282 -0.4464 -0.5221  0.2893
 1057TIP3    H124662   2.722   2.758  11.305 -0.1422 -0.4740  1.1304
 1057TIP3    H224663   2.819   2.809  11.201  0.6026 -1.6855  1.2132
 1058TIP3   OH224664   2.569   6.494  11.187 -0.5826  0.1398  0.2588
 1058TIP3    H124665   2.605   6.472  11.102 -0.4582 -0.6482  0.5145
 1058TIP3    H224666   2.645   6.521  11.239 -0.4304 -0.9404  0.6117
 1059TIP3   OH224667   0.061   2.939   3.189  0.3334  0.1057 -0.1025
 1059TIP3    H124668  -0.026   2.902   3.205  0.3821  1.0461  2.5056
 1059TIP3    H224669   0.118   2.895   3.252  1.1163  1.8715  0.4527
 1060TIP3   OH224670   2.494   2.384   0.825  0.2082  0.4166  0.3348
 1060TIP3    H124671   2.454   2.444   0.888  1.0999  0.7690  0.5811
 1060TIP3    H224672   2.441   2.391   0.746 -1.3793 -0.5849  1.2805
 1061TIP3   OH224673   5.313   6.318  16.184  0.2471  0.2321 -0.3188
 1061TIP3    H124674   5.409   6.315  16.184  0.2376 -1.0442  1.6881
 1061TIP3    H224675   5.288   6.282  16.099  1.5590  1.1404 -1.1052
 1062TIP3   OH224676   4.899   4.616   1.401 -0.0557 -0.4653  0.1344
 1062TIP3    H124677   4.961   4.689   1.397  0.4955 -0.9019  0.6156
 1062TIP3    H224678   4.920   4.562   1.326  0.1208 -0.5897  0.2726
 1063TIP3   OH224679   0.162   5.092  13.927  0.1067  0.1721  0.0724
 1063TIP3    H124680   0.230   5.158  13.917 -0.9199  1.2925  0.4426
 1063TIP3    H224681   0.151   5.055  13.839 -0.0616  1.2390 -0.3651
 1064TIP3   OH224682   1.438   2.986   3.660 -0.3202 -0.2735 -0.3440
 1064TIP3    H124683   1.405   2.927   3.729  0.8429 -1.6693 -0.9490
 1064TIP3    H224684   1.409   2.944   3.578  2.2120 -1.1008 -0.8580
 1065TIP3   OH224685   0.219   6.562  11.033 -0.0372 -0.3438  0.0307
 1065TIP3    H124686   0.161   6.632  11.003 -0.9651 -0.5800  1.2382
 1065TIP3    H224687   0.307   6.596  11.019 -0.4697  1.5827  1.7595
 1066TIP3   OH224688   1.989   4.940  14.157 -0.1551 -0.7366 -0.1415
 1066TIP3    H124689   1.960   4.963  14.245  1.1262 -0.6518  0.2668
 1066TIP3    H224690   2.036   5.018  14.126  1.1038 -1.4728 -0.1229
 1067TIP3   OH224691   0.395   0.219  14.577 -0.1822 -0.0668 -0.4636
 1067TIP3    H124692   0.323   0.207  14.515  0.4992 -1.0699 -1.0887
 1067TIP3    H224693   0.372   0.162  14.650 -0.0138 -0.4261 -0.6856
 1068TIP3   OH224694   2.812   6.460  15.827  0.0865  0.1802  0.1348
 1068TIP3    H124695   2.799   6.504  15.743 -2.1437  0.9050  0.8331
 1068TIP3    H224696   2.802   6.367  15.807  1.2726  0.2266 -0.7021
 1069TIP3   OH224697   3.397   3.428   2.504 -0.3130 -0.2360  0.6221
 1069TIP3    H124698   3.465   3.370   2.470 -0.6152  0.8195 -1.8861
 1069TIP3    H224699   3.445   3.502   2.541 -0.0789  0.7333 -1.5707
 1070TIP3   OH224700   4.090   0.731   0.497  0.2282  0.2170 -0.2394
 1070TIP3    H124701   4.124   0.641   0.499 -2.5053 -0.8485  0.1831
 1070TIP3    H224702   4.084   0.756   0.589 -1.6426 -0.2466 -0.2040
 1071TIP3   OH224703   1.002   0.966   4.846  0.4692  1.1126 -0.2401
 1071TIP3    H124704   0.928   1.021   4.818  0.6898  2.0728  0.9769
 1071TIP3    H224705   0.968   0.919   4.922  0.0677 -0.9802 -1.6785
 1072TIP3   OH224706   1.745   4.310   3.144 -0.2691  0.1311 -0.1782
 1072TIP3    H124707   1.806   4.365   3.194  1.3849 -0.9283 -0.9487
 1072TIP3    H224708   1.703   4.369   3.082  0.4439  0.7745 -0.0551
 1073TIP3   OH224709   4.931   1.369  15.167  0.8350  0.6922 -0.3175
 1073TIP3    H124710   4.948   1.459  15.139  0.5716  0.8505  0.0265
 1073TIP3    H224711   4.890   1.378  15.253 -1.9892  0.3948 -1.5557
 1074TIP3   OH224712   2.844   2.884  16.141 -0.0216  0.2840  0.3362
 1074TIP3    H124713   2.799   2.913  16.062  0.4050 -1.0290 -0.4056
 1074TIP3    H224714   2.890   2.804  16.115  1.8967  1.0268  1.3480
 1075TIP3   OH224715   0.186   0.227  11.520 -0.0373 -0.1884  0.5881
 1075TIP3    H124716   0.222   0.277  11.447 -0.0429  0.4198  0.9992
 1075TIP3    H224717   0.261   0.181  11.557  0.0310 -0.2037  0.4295
 1076TIP3   OH224718   5.168   0.902   2.432 -0.0006 -0.0565 -1.0433
 1076TIP3    H124719   5.147   0.952   2.353 -0.3836 -0.0010 -0.9093
 1076TIP3    H224720   5.104   0.932   2.497  0.8015  0.4548 -0.4877
 1077TIP3   OH224721   5.740   0.265   3.310  0.1837 -0.3161  0.4791
 1077TIP3    H124722   5.676   0.214   3.260  1.2258  0.8898 -2.1770
 1077TIP3    H224723   5.689   0.336   3.349 -0.0713  0.9030 -1.9968
 1078TIP3   OH224724   5.087   1.590   0.526  0.2838  0.7445  0.7027
 1078TIP3    H124725   5.123   1.617   0.611 -1.0948  0.6938  1.3145
 1078TIP3    H224726   4.995   1.571   0.544  0.3208 -0.6247 -0.5260
 1079TIP3   OH224727   5.852   0.853   0.466 -0.3424 -0.0064 -0.8335
 1079TIP3    H124728   5.921   0.788   0.464 -1.1788 -0.9123 -0.6531
 1079TIP3    H224729   5.779   0.810   0.511 -0.1470  1.7998  1.2949
 1080TIP3   OH224730   2.927   6.249  14.349 -0.2200  0.0063 -0.0277
 1080TIP3    H124731   2.926   6.259  14.254  0.3768 -0.0311 -0.0384
 1080TIP3    H224732   2.940   6.155  14.363  2.2486  0.3522  0.0959
 1081TIP3   OH224733   1.006   5.787  14.966  0.1841 -0.0933  0.3911
 1081TIP3    H124734   1.052   5.763  14.885 -1.4313 -0.2278 -0.5069
 1081TIP3    H224735   0.922   5.741  14.960 -1.1420  2.2337  0.7749
 1082TIP3   OH224736   6.031   2.944   0.436 -0.8010 -0.0599  0.6337
 1082TIP3    H124737   6.008   2.878   0.370 -2.1807  0.2764  0.7542
 1082TIP3    H224738   6.114   2.980   0.406 -0.9095 -0.6221 -0.3730
 1083TIP3   OH224739   3.243   1.175  12.748 -0.2488 -0.1764 -0.2173
 1083TIP3    H124740   3.180   1.124  12.696 -0.1484  0.3214 -0.8332
 1083TIP3    H224741   3.294   1.223  12.683 -0.8945  1.3481  0.3861
 1084TIP3   OH224742   5.511   4.572   0.487  0.4284  0.1926 -0.2719
 1084TIP3    H124743   5.505   4.480   0.515 -2.3796  0.4920  0.2052
 1084TIP3    H224744   5.507   4.622   0.568 -0.0058  0.7927 -0.6570
 1085TIP3   OH224745   4.203   4.426   0.188  0.0457  0.2429  0.2274
 1085TIP3    H124746   4.298   4.418   0.191  0.0090 -0.2639  0.0966
 1085TIP3    H224747   4.186   4.520   0.190  0.5573  0.3389 -0.0999
 1086TIP3   OH224748   5.858   0.024  16.200  0.1225  0.3336  0.3359
 1086TIP3    H124749   5.818   0.041  16.286 -0.9157  0.4813 -0.1688
 1086TIP3    H224750   5.795  -0.032  16.155  0.4053  0.7061 -0.5318
 1087TIP3   OH224751   0.472   2.870  14.844 -0.1237 -0.0880  0.3206
 1087TIP3    H124752   0.460   2.896  14.753  0.2672 -1.5492 -0.1571
 1087TIP3    H224753   0.422   2.789  14.853  0.9070 -0.6473  1.0705
 1088TIP3   OH224754   0.062   5.045   2.878  0.3254 -0.2821  0.1948
 1088TIP3    H124755   0.117   4.970   2.854 -0.3527 -0.6988 -0.0760
 1088TIP3    H224756   0.080   5.110   2.810 -1.1918 -1.2616 -1.1930
 1089TIP3   OH224757   0.008   0.908   0.673  0.5115  0.4890 -0.0582
 1089TIP3    H124758  -0.031   0.826   0.642  1.7214 -0.5266  1.0431
 1089TIP3    H224759   0.088   0.881   0.717  0.9053  2.2790  0.3617
 1090TIP3   OH224760   2.130   3.961  14.308 -0.0942  0.0146 -0.6775
 1090TIP3    H124761   2.173   3.924  14.231  1.0949  0.8994 -0.4517
 1090TIP3    H224762   2.079   3.888  14.344 -0.3053 -0.5211 -2.0401
 1091TIP3   OH224763   3.147   3.005   5.976  0.6257 -0.1339  0.0145
 1091TIP3    H124764   3.214   2.936   5.975  0.0866 -0.6709  0.6455
 1091TIP3    H224765   3.180   3.069   6.040 -0.0034 -0.9379  1.1397
 1092TIP3   OH224766   2.058   1.461   6.136 -0.2689 -0.5902  0.0493
 1092TIP3    H124767   2.115   1.425   6.203 -0.7365  0.1736  0.8671
 1092TIP3    H224768   1.972   1.424   6.155 -0.3319 -0.6485 -0.3440
 1093TIP3   OH224769   4.826   1.164   2.921  0.3217 -0.5608  0.0950
 1093TIP3    H124770   4.781   1.146   3.003  1.1393  1.1947  0.9537
 1093TIP3    H224771   4.782   1.107   2.857 -1.8930 -0.2275  1.2543
 1094TIP3   OH224772   6.808   1.942  15.174  0.0600  1.0530 -0.4896
 1094TIP3    H124773   6.795   1.851  15.200  0.4711  0.5541 -2.0501
 1094TIP3    H224774   6.719   1.976  15.162 -0.0524  0.4837 -1.2429
 1095TIP3   OH224775   2.515   4.005  12.447 -0.1849  0.1788  0.0072
 1095TIP3    H124776   2.470   4.060  12.512  0.9300  0.3853  0.6128
 1095TIP3    H224777   2.556   4.068  12.387  0.4954  0.0019  0.2861
 1096TIP3   OH224778   0.740   5.364  11.846 -0.1597  0.1573  0.2874
 1096TIP3    H124779   0.802   5.308  11.799  0.1145 -0.2078  1.0846
 1096TIP3    H224780   0.793   5.435  11.881 -0.5783  1.2024 -1.1338
 1097TIP3   OH224781   6.732   5.981  11.446 -0.0138  0.0711  0.0627
 1097TIP3    H124782   6.767   5.976  11.535 -0.2417  0.3002  0.1665
 1097TIP3    H224783   6.786   6.046  11.402 -1.6047  1.9534  0.8289
 1098TIP3   OH224784   3.157   1.662   4.529  0.3514  0.3641 -0.1614
 1098TIP3    H124785   3.075   1.706   4.509 -0.9717 -1.9490 -0.0250
 1098TIP3    H224786   3.194   1.640   4.443  0.1826  0.2501 -0.2041
 1099TIP3   OH224787   6.698   5.115   2.370 -0.6307  0.2513 -0.3993
 1099TIP3    H124788   6.649   5.058   2.429  2.3941 -1.2325  0.7634
 1099TIP3    H224789   6.704   5.198   2.416 -3.3985  0.9975 -1.2748
 1100TIP3   OH224790   0.620   3.541  11.311 -0.2873  0.0653 -0.0310
 1100TIP3    H124791   0.631   3.577  11.399 -0.8065  1.0113 -0.3476
 1100TIP3    H224792   0.549   3.593  11.273  0.1437 -0.1389 -1.1179
 1101TIP3   OH224793   3.007   5.486   3.416  0.2601  0.2363 -0.1411
 1101TIP3    H124794   3.004   5.440   3.332  0.5122  0.0134 -0.0269
 1101TIP3    H224795   3.055   5.428   3.474 -0.3024  0.1918  0.2845
 1102TIP3   OH224796   0.135   1.053  13.765 -0.2080  0.0577 -0.8394
 1102TIP3    H124797   0.123   0.972  13.814 -0.7703  0.3989 -0.4140
 1102TIP3    H224798   0.230   1.068  13.766 -0.3588  1.0430  1.7097
 1103TIP3   OH224799   5.352   6.536  15.808 -0.0080  0.2663 -0.3543
 1103TIP3    H124800   5.313   6.570  15.888  1.2638 -0.5738  0.6391
 1103TIP3    H224801   5.298   6.572  15.738 -0.2008  2.2809  0.7870
 1104TIP3   OH224802   5.601   5.036   3.141 -0.5895 -0.7331 -0.3258
 1104TIP3    H124803   5.662   4.972   3.104 -0.3564 -0.1951 -0.8693
 1104TIP3    H224804   5.570   4.994   3.222  2.6595  0.1663  1.4858
 1105TIP3   OH224805   4.304   4.444  14.576 -0.0667  0.3423 -0.0272
 1105TIP3    H124806   4.276   4.354  14.592  0.1653  0.2787  0.0146
 1105TIP3    H224807   4.270   4.464  14.489 -0.9244  0.5300  0.3472
 1106TIP3   OH224808   6.344   6.297  14.256  0.0642  0.0395 -0.0248
 1106TIP3    H124809   6.358   6.318  14.348  0.3938 -0.0468 -0.0547
 1106TIP3    H224810   6.421   6.332  14.211 -0.3321  0.5167 -0.3325
 1107TIP3   OH224811   2.117   1.082  10.506  0.1278 -0.6711  0.0536
 1107TIP3    H124812   2.189   1.020  10.523 -0.6100 -1.5029  0.1626
 1107TIP3    H224813   2.039   1.027  10.500 -0.2237  0.0382 -2.0024
 1108TIP3   OH224814   6.632   6.207   1.279 -0.1012  0.1045 -0.1986
 1108TIP3    H124815   6.547   6.248   1.291 -0.1811 -0.0497 -0.2331
 1108TIP3    H224816   6.636   6.140   1.347  0.1638  0.3903  0.0648
 1109TIP3   OH224817   1.768   6.565   6.204  0.1974 -0.5253  0.1470
 1109TIP3    H124818   1.810   6.482   6.182 -1.4466 -1.5040  0.5818
 1109TIP3    H224819   1.767   6.567   6.300  0.3416  0.0620  0.1395
 1110TIP3   OH224820   5.787   6.303  11.002 -0.1483  0.3036 -0.5504
 1110TIP3    H124821   5.880   6.309  10.978 -0.3405  1.1980 -1.0952
 1110TIP3    H224822   5.784   6.236  11.070  0.5453 -1.6963 -2.4116
 1111TIP3   OH224823   3.738   4.146   4.039 -0.2529  0.0460  0.1065
 1111TIP3    H124824   3.706   4.162   3.950 -1.0972 -0.1485  0.3711
 1111TIP3    H224825   3.693   4.067   4.067  0.2854 -0.0982  0.5759
 1112TIP3   OH224826   0.493   3.800  13.098 -0.0357 -0.0609  0.3014
 1112TIP3    H124827   0.462   3.733  13.160 -1.8062  0.3361 -0.1294
 1112TIP3    H224828   0.427   3.800  13.029  2.0664 -0.6974 -1.7557
 1113TIP3   OH224829   6.474   3.317   1.308 -0.4937 -0.1205 -0.1044
 1113TIP3    H124830   6.383   3.340   1.322 -1.0141 -2.0792 -0.0979
 1113TIP3    H224831   6.471   3.230   1.266  1.3840 -0.8186  1.1260
 1114TIP3   OH224832   1.554   0.374  15.356 -0.8824 -0.4555  0.0528
 1114TIP3    H124833   1.482   0.396  15.297 -1.5229 -1.1302  0.5603
 1114TIP3    H224834   1.510   0.352  15.439 -0.0475 -0.1910  0.5707
 1115TIP3   OH224835   2.262   5.110  14.464 -0.0670 -0.3312 -0.3495
 1115TIP3    H124836   2.354   5.095  14.444 -0.1075  0.0906 -0.8503
 1115TIP3    H224837   2.237   5.186  14.411 -0.4069  0.2509  0.6458
 1116TIP3   OH224838   2.431   4.697   4.898 -0.5430 -0.3049 -0.4343
 1116TIP3    H124839   2.381   4.632   4.848 -0.7151  0.8469 -1.7887
 1116TIP3    H224840   2.370   4.726   4.966 -0.2598 -1.9776  0.5871
 1117TIP3   OH224841   6.261   5.163  15.297 -0.1547  0.2556  0.1220
 1117TIP3    H124842   6.186   5.106  15.283 -0.6826  0.7829  0.7495
 1117TIP3    H224843   6.284   5.151  15.389 -0.8781  1.7496  0.5270
 1118TIP3   OH224844   2.634   2.405   1.359  0.6298 -0.1125 -1.0559
 1118TIP3    H124845   2.632   2.391   1.454  1.3154 -0.0174 -1.0218
 1118TIP3    H224846   2.663   2.322   1.323 -2.1615 -0.9786 -1.3914
 1119TIP3   OH224847   6.078   6.088   6.275 -0.7358  0.1587  0.7873
 1119TIP3    H124848   6.082   6.004   6.321 -0.6734  0.2114  0.8779
 1119TIP3    H224849   6.162   6.093   6.228 -2.1371 -1.4649 -2.0466
 1120TIP3   OH224850   2.016   2.292   2.454  0.8153 -0.0525 -0.0731
 1120TIP3    H124851   1.979   2.303   2.367 -1.5807  0.0264  0.9010
 1120TIP3    H224852   2.031   2.381   2.486  0.9984 -0.0669 -0.1160
 1121TIP3   OH224853   0.073   3.529   3.538 -0.1227 -0.4352  0.1719
 1121TIP3    H124854   0.124   3.450   3.554  1.7881  1.1168  2.0732
 1121TIP3    H224855   0.094   3.552   3.447  0.3466 -1.3702  0.0363
 1122TIP3   OH224856   1.295   1.683  13.082  0.2228  0.1659 -0.0037
 1122TIP3    H124857   1.274   1.686  12.989 -3.2829  0.7165  0.7487
 1122TIP3    H224858   1.293   1.590  13.104  2.0118 -0.0427 -0.6452
 1123TIP3   OH224859   2.615   1.596   2.838  0.0703 -0.2390  0.3920
 1123TIP3    H124860   2.572   1.548   2.767  2.5070 -1.3845 -0.3769
 1123TIP3    H224861   2.616   1.687   2.809 -0.4058 -0.4587 -0.3222
 1124TIP3   OH224862   2.778   0.448  12.605  0.4305 -0.1259 -0.0857
 1124TIP3    H124863   2.760   0.492  12.688 -0.5061  1.2667 -1.0001
 1124TIP3    H224864   2.870   0.467  12.586  0.2421  0.8040 -0.0854
 1125TIP3   OH224865   0.468   4.117   1.271  0.6955 -0.2047 -0.2790
 1125TIP3    H124866   0.497   4.052   1.206  1.4597 -1.1935  1.0434
 1125TIP3    H224867   0.442   4.192   1.218  0.5162 -1.2978 -1.8033
 1126TIP3   OH224868   5.920   3.138  13.027 -0.0746 -0.3373  0.3747
 1126TIP3    H124869   6.005   3.127  13.070  0.2902 -2.8462 -0.9054
 1126TIP3    H224870   5.930   3.094  12.942 -1.9354  1.3463 -0.7639
 1127TIP3   OH224871   3.100   2.996  13.586  0.3667  0.5684  0.3397
 1127TIP3    H124872   3.045   3.070  13.613 -0.5490  0.3271 -0.7907
 1127TIP3    H224873   3.044   2.919  13.600  0.6800  0.2543 -0.1350
 1128TIP3   OH224874   2.071   1.769  14.826 -0.0628 -0.7981 -0.3595
 1128TIP3    H124875   2.157   1.785  14.865 -0.8803  2.5787  0.2147
 1128TIP3    H224876   2.077   1.805  14.738 -0.2548 -2.4826 -1.0806
 1129TIP3   OH224877   2.025   3.772   5.039  0.0971  0.3609 -0.3735
 1129TIP3    H124878   1.933   3.773   5.014  0.2947 -3.0127 -1.6039
 1129TIP3    H224879   2.026   3.743   5.130 -0.1045  1.6724  0.0508
 1130TIP3   OH224880   3.115   4.430   2.824  0.0247  0.3709  0.1044
 1130TIP3    H124881   3.180   4.482   2.777  0.4643  0.7738  1.1337
 1130TIP3    H224882   3.051   4.495   2.855 -0.5786  0.0426 -0.4281
 1131TIP3   OH224883   1.399   3.194  12.188  0.0597  0.5468 -0.0395
 1131TIP3    H124884   1.464   3.176  12.120  1.9962 -2.2697  2.4402
 1131TIP3    H224885   1.348   3.114  12.196 -0.8049  1.1868  1.1224
 1132TIP3   OH224886   4.193   5.596   2.444  0.0452  0.0703 -0.3507
 1132TIP3    H124887   4.241   5.518   2.472  2.4798  1.3878 -0.7391
 1132TIP3    H224888   4.185   5.585   2.349  0.7276  0.4616 -0.4572
 1133TIP3   OH224889   4.182   4.151   1.290 -0.7885 -0.3211 -0.3772
 1133TIP3    H124890   4.198   4.114   1.376 -0.7170 -0.9797 -0.6742
 1133TIP3    H224891   4.231   4.234   1.290  3.2062 -2.5577 -1.4965
 1134TIP3   OH224892   0.632   3.737  15.387  0.2255 -0.8317  0.0801
 1134TIP3    H124893   0.727   3.743  15.381  0.0572  0.0881 -1.8637
 1134TIP3    H224894   0.609   3.664  15.330 -0.3367 -0.3216 -0.3428
 1135TIP3   OH224895   5.960   3.282   2.055 -0.1022 -0.4196 -0.7834
 1135TIP3    H124896   5.954   3.275   2.150  0.5494 -0.4602 -0.7396
 1135TIP3    H224897   6.047   3.247   2.035 -0.3030 -0.5553 -1.4071
 1136TIP3   OH224898   0.236   4.687  15.094 -0.6836  0.0593  0.3971
 1136TIP3    H124899   0.227   4.774  15.054 -0.1427  0.2269  0.6384
 1136TIP3    H224900   0.293   4.700  15.169 -0.8672 -0.4482  0.6307
 1137TIP3   OH224901   0.129   1.383  13.101  0.2800 -0.3514  0.3262
 1137TIP3    H124902   0.100   1.294  13.118 -1.7908  0.3574  0.6728
 1137TIP3    H224903   0.225   1.379  13.105  0.2656 -2.7631 -0.7652
 1138TIP3   OH224904   5.365   6.061   2.426  0.4213  0.6140 -0.3765
 1138TIP3    H124905   5.358   6.088   2.334  1.6184  1.8079 -0.1323
 1138TIP3    H224906   5.364   5.965   2.423 -0.0555  0.6539 -1.5997
 1139TIP3   OH224907   2.840   3.977  14.698 -0.8737 -0.0219  0.5628
 1139TIP3    H124908   2.755   3.936  14.681 -0.4393 -0.8422  0.3008
 1139TIP3    H224909   2.863   4.019  14.615  0.7900 -3.1853 -0.6904
 1140TIP3   OH224910   2.999   5.988   2.009  0.4770  0.3122 -0.0520
 1140TIP3    H124911   3.074   6.035   1.972 -0.3103  1.6930  0.0836
 1140TIP3    H224912   2.979   6.036   2.090 -0.0194 -0.5689  0.3533
 1141TIP3   OH224913   5.777   3.980   1.476  0.3544  0.0270  0.3182
 1141TIP3    H124914   5.697   3.928   1.478  1.1704 -1.2265  0.8373
 1141TIP3    H224915   5.767   4.042   1.547 -0.1984 -0.0588  0.3164
 1142TIP3   OH224916   4.366   1.383  13.772  0.2215  0.7639  0.4737
 1142TIP3    H124917   4.366   1.450  13.840 -0.5659 -0.8441  2.1184
 1142TIP3    H224918   4.279   1.342  13.778  0.0589  0.7089 -1.6403
 1143TIP3   OH224919   5.198   0.316   4.352  0.1306 -0.0371 -0.1610
 1143TIP3    H124920   5.176   0.229   4.318  0.6047 -0.2130 -0.0261
 1143TIP3    H224921   5.143   0.376   4.302  0.0859 -0.3845 -0.5292
 1144TIP3   OH224922   0.212   3.054  12.065 -0.3496  0.6540 -0.2347
 1144TIP3    H124923   0.176   3.142  12.057 -0.4431  0.6792  0.4125
 1144TIP3    H224924   0.288   3.053  12.007 -1.2857  0.6545 -1.4868
 1145TIP3   OH224925   5.058   1.485   0.035 -0.2328 -0.5703  0.0427
 1145TIP3    H124926   5.141   1.440   0.049 -0.3828 -0.8496  0.0487
 1145TIP3    H224927   5.042   1.475  -0.059  0.5133  0.8406 -0.2445
 1146TIP3   OH224928   0.157   2.606  13.676  0.0504 -0.3071  0.2856
 1146TIP3    H124929   0.172   2.554  13.597  0.2701 -0.3679  0.3684
 1146TIP3    H224930   0.090   2.670  13.650 -0.8341 -1.1633  0.4289
 1147TIP3   OH224931   5.153   0.954   1.176  0.1751 -0.6554  0.8345
 1147TIP3    H124932   5.082   0.964   1.239 -1.1426 -4.6655  0.1134
 1147TIP3    H224933   5.111   0.918   1.098  2.3464  0.9472 -1.1324
 1148TIP3   OH224934   5.619   0.228   5.241  0.4162 -0.4146  0.0546
 1148TIP3    H124935   5.575   0.309   5.267 -0.9979 -1.5580  1.3998
 1148TIP3    H224936   5.682   0.211   5.311  1.8513  0.3462 -1.0351
 1149TIP3   OH224937   0.495   0.937   4.799  0.3024 -0.7057  0.2863
 1149TIP3    H124938   0.502   0.962   4.892  4.8121  0.0729 -0.1300
 1149TIP3    H224939   0.469   1.018   4.755  2.8001  0.2075  0.3924
 1150TIP3   OH224940   0.921   5.641  13.903  0.4674 -0.0212 -0.5985
 1150TIP3    H124941   0.899   5.623  13.811 -0.4716  0.9046 -0.5542
 1150TIP3    H224942   0.937   5.735  13.906 -1.1570  0.2247  0.5413
 1151TIP3   OH224943   3.962   6.785  14.401 -0.3637  0.4161  0.0027
 1151TIP3    H124944   4.035   6.742  14.445 -0.5812 -1.0257 -0.9955
 1151TIP3    H224945   3.995   6.804  14.313 -1.4867 -1.1645 -0.7835
 1152TIP3   OH224946   3.680   3.480   4.803  0.0040 -0.6534 -0.3639
 1152TIP3    H124947   3.721   3.464   4.718 -4.3721 -4.6556 -1.9645
 1152TIP3    H224948   3.713   3.410   4.859 -0.6614 -0.8270 -0.1795
 1153TIP3   OH224949   1.817   0.424  12.277  0.1708  0.0694  0.1066
 1153TIP3    H124950   1.790   0.452  12.189  0.7868  0.6316  0.0983
 1153TIP3    H224951   1.896   0.373  12.262  1.6347  2.1513  0.5484
 1154TIP3   OH224952   3.334   1.157  15.234  0.6135  0.4354  0.4034
 1154TIP3    H124953   3.363   1.246  15.257  2.9239  0.1418 -1.1996
 1154TIP3    H224954   3.370   1.101  15.302  2.4712  0.2786 -0.6834
 1155TIP3   OH224955   6.341   0.907   4.394 -0.0187  0.7052  0.1602
 1155TIP3    H124956   6.293   0.903   4.477 -1.8618 -1.3945 -0.9385
 1155TIP3    H224957   6.401   0.832   4.398 -0.8991 -0.0681 -0.8229
 1156TIP3   OH224958   5.550   3.888  10.867  0.1277 -0.5962 -0.2753
 1156TIP3    H124959   5.497   3.956  10.826 -1.3911 -1.5439  0.0781
 1156TIP3    H224960   5.641   3.917  10.854 -0.4643  1.0010 -0.9542
 1157TIP3   OH224961   3.163   2.767  16.881  0.4578 -0.2129  0.4555
 1157TIP3    H124962   3.081   2.768  16.929 -0.0352  1.0064 -0.3777
 1157TIP3    H224963   3.184   2.860  16.868  2.5366 -0.4920  1.6318
 1158TIP3   OH224964   2.830   2.161  15.056  0.2059  0.2186  0.9047
 1158TIP3    H124965   2.849   2.209  15.136 -1.1893 -0.4397  1.6328
 1158TIP3    H224966   2.755   2.106  15.077  0.4149 -0.6680 -0.5723
 1159TIP3   OH224967   5.290   3.443  13.923 -0.5272 -0.7773 -0.0198
 1159TIP3    H124968   5.340   3.524  13.931  0.4221 -1.2491 -0.9990
 1159TIP3    H224969   5.331   3.384  13.986  0.9950 -1.5623 -1.6970
 1160TIP3   OH224970   3.569   6.437  11.426  0.3538  0.0628 -0.0205
 1160TIP3    H124971   3.644   6.440  11.367  1.0673 -1.1194  0.7943
 1160TIP3    H224972   3.533   6.349  11.414 -0.6501  0.4799 -0.0981
 1161TIP3   OH224973   3.053   6.126  14.820 -0.0168 -0.3988  0.3433
 1161TIP3    H124974   3.094   6.041  14.838  0.2624 -0.3252  0.0531
 1161TIP3    H224975   3.126   6.186  14.807 -0.2125 -0.2547 -0.1153
 1162TIP3   OH224976   5.151   3.590   3.851 -0.1489  0.3084  0.1326
 1162TIP3    H124977   5.145   3.504   3.810  1.6072  0.8052 -1.2406
 1162TIP3    H224978   5.064   3.606   3.886 -1.2159 -0.9208 -1.8697
 1163TIP3   OH224979   2.369   5.270   6.431  0.2885  0.2065 -0.2598
 1163TIP3    H124980   2.392   5.201   6.494  0.0112  0.2065 -0.1584
 1163TIP3    H224981   2.326   5.224   6.359 -1.9266  0.5277  0.8312
 1164TIP3   OH224982   4.532   0.315  11.685  0.9545 -0.1007  0.1665
 1164TIP3    H124983   4.499   0.335  11.773 -0.9513  0.7361 -0.7081
 1164TIP3    H224984   4.579   0.394  11.659 -0.2382  0.4552 -0.3541
 1165TIP3   OH224985   2.898   4.115   2.753 -0.3217 -0.3106 -0.3549
 1165TIP3    H124986   2.923   4.051   2.686  0.7903  0.6203 -0.8525
 1165TIP3    H224987   2.972   4.114   2.815 -0.1952  0.6604 -0.4907
 1166TIP3   OH224988   1.072   4.594  16.080  0.6441  0.4084 -0.0694
 1166TIP3    H124989   0.987   4.585  16.038 -0.0962  3.1182  0.7626
 1166TIP3    H224990   1.082   4.514  16.132 -1.5102  0.1893  0.0442
 1167TIP3   OH224991   6.287   0.454  12.767 -0.8223  0.4919  0.7244
 1167TIP3    H124992   6.294   0.523  12.700  0.4612  0.8084  1.1733
 1167TIP3    H224993   6.293   0.372  12.718 -2.3058  0.6737  0.1907
 1168TIP3   OH224994   5.245   2.070  11.081  0.0581  0.1870 -0.4868
 1168TIP3    H124995   5.157   2.035  11.093 -0.3453  1.0321 -0.9303
 1168TIP3    H224996   5.233   2.165  11.076  1.1712  0.4312  1.0563
 1169TIP3   OH224997   0.878   3.883  16.913  0.1615 -0.1161 -0.2116
 1169TIP3    H124998   0.837   3.912  16.994  0.6311  0.7721 -0.2840
 1169TIP3    H224999   0.849   3.946  16.847  2.7629  1.4199  0.0180
 1170TIP3   OH225000   6.156   6.646  16.605 -0.2663  0.2552  0.3148
 1170TIP3    H125001   6.211   6.577  16.567  0.0439  1.1312 -0.8717
 1170TIP3    H225002   6.146   6.709  16.534  0.1348  1.8335  1.6292
 1171TIP3   OH225003   1.317   4.360   4.177 -0.1662 -0.4080  0.2764
 1171TIP3    H125004   1.329   4.328   4.266 -0.6047 -0.9650  0.1342
 1171TIP3    H225005   1.310   4.281   4.123  2.2864 -0.0927 -0.5527
 1172TIP3   OH225006   5.981   0.979  14.406  0.1551 -0.0111  0.1425
 1172TIP3    H125007   5.962   1.061  14.362  0.1783 -0.9769 -1.7354
 1172TIP3    H225008   6.015   1.004  14.491  0.7411  1.9270 -0.6429
 1173TIP3   OH225009   4.866   5.772   0.948 -0.4092  0.1341 -0.1664
 1173TIP3    H125010   4.772   5.770   0.932 -0.1464 -0.0669 -1.7456
 1173TIP3    H225011   4.888   5.865   0.953 -0.0608  0.3428 -3.8719
 1174TIP3   OH225012   1.388   5.486   2.267  0.1475 -0.5037 -0.1795
 1174TIP3    H125013   1.479   5.459   2.281  0.1581  0.3591  1.4615
 1174TIP3    H225014   1.344   5.406   2.238  1.0243 -1.3786  0.8659
 1175TIP3   OH225015   2.265   2.219   3.900  0.1934 -0.3380  0.3418
 1175TIP3    H125016   2.311   2.299   3.927 -0.2643 -0.3342  1.1130
 1175TIP3    H225017   2.284   2.156   3.969 -0.3007 -0.5908  0.2463
 1176TIP3   OH225018   4.781   5.865  15.741  0.1863 -0.1936 -0.0472
 1176TIP3    H125019   4.863   5.830  15.706  0.8700 -1.6273  2.8355
 1176TIP3    H225020   4.763   5.942  15.688  3.0600 -0.2259 -1.1513
 1177TIP3   OH225021   3.888   3.579   3.311  0.3032 -0.0145  0.3089
 1177TIP3    H125022   3.915   3.599   3.222 -2.4524 -0.2876 -0.6286
 1177TIP3    H225023   3.939   3.640   3.365  0.9659  1.1314 -1.5474
 1178TIP3   OH225024   3.917   3.038   5.946 -0.1354 -0.0363 -0.4755
 1178TIP3    H125025   3.871   2.960   5.915  0.4381  0.4159 -2.5716
 1178TIP3    H225026   3.891   3.047   6.038 -2.4165 -1.0786 -0.9831
 1179TIP3   OH225027   5.260   6.660  14.284 -0.0050 -0.1009  0.4186
 1179TIP3    H125028   5.267   6.694  14.195  1.2973  0.6811  0.8058
 1179TIP3    H225029   5.173   6.621  14.288  0.1679 -0.6986 -1.3828
 1180TIP3   OH225030   5.297   2.828   0.706 -0.1590  0.7180 -0.2339
 1180TIP3    H125031   5.285   2.735   0.724 -0.0444  1.1237  1.9934
 1180TIP3    H225032   5.380   2.832   0.657 -0.2690 -0.3535 -0.5240
 1181TIP3   OH225033   4.202   2.598   4.994  0.0293  0.4397  0.6475
 1181TIP3    H125034   4.166   2.679   5.031  0.1509 -0.0518  1.8767
 1181TIP3    H225035   4.163   2.592   4.907  0.0063  1.8134  0.5452
 1182TIP3   OH225036   1.094   3.277  11.996  0.2543 -0.3871 -0.4732
 1182TIP3    H125037   1.187   3.282  11.974  0.2570 -0.4357 -0.4721
 1182TIP3    H225038   1.089   3.211  12.065  0.2756 -0.0920 -0.1818
 1183TIP3   OH225039   1.617   1.216   6.142  0.2872 -0.4207 -0.1390
 1183TIP3    H125040   1.643   1.271   6.068 -0.2227  2.8611  2.0341
 1183TIP3    H225041   1.521   1.224   6.145  0.1310 -2.0823 -0.2638
 1184TIP3   OH225042   0.578   5.879   2.508  0.1387 -0.3913  0.4473
 1184TIP3    H125043   0.651   5.933   2.537 -0.8153  1.3951 -0.4128
 1184TIP3    H225044   0.586   5.875   2.413 -1.0327  0.0572  0.3191
 1185TIP3   OH225045   5.530   1.528  10.240 -0.2807  0.3995 -0.3372
 1185TIP3    H125046   5.562   1.441  10.263  0.0275  0.9674  1.4892
 1185TIP3    H225047   5.468   1.513  10.168 -0.2439 -1.3251 -0.0323
 1186TIP3   OH225048   4.784   4.871   4.936 -0.2759  0.0449 -0.0957
 1186TIP3    H125049   4.804   4.884   4.844 -0.9250  0.3556 -0.1910
 1186TIP3    H225050   4.868   4.847   4.975  0.2666  1.1961 -0.5304
 1187TIP3   OH225051   2.742   1.274  16.464  0.2039 -0.1003  0.1103
 1187TIP3    H125052   2.717   1.213  16.394  2.5083 -0.8787 -0.0936
 1187TIP3    H225053   2.798   1.338  16.420 -0.4214  0.9034  0.7586
 1188TIP3   OH225054   2.394   5.420  11.397 -0.2751 -0.6663  0.4427
 1188TIP3    H125055   2.348   5.368  11.463 -1.6165 -1.7966 -1.3236
 1188TIP3    H225056   2.329   5.431  11.327  0.7062  1.5703 -0.1482
 1189TIP3   OH225057   1.688   6.685  14.967 -0.2942  0.0406  0.1032
 1189TIP3    H125058   1.607   6.734  14.973  0.0347  0.6384 -0.2483
 1189TIP3    H225059   1.756   6.747  14.993  0.3383  0.3894 -2.2490
 1190TIP3   OH225060   0.913   4.218   3.414 -0.7233 -0.0078 -0.3747
 1190TIP3    H125061   0.988   4.263   3.375 -1.3873  0.1393 -1.5015
 1190TIP3    H225062   0.949   4.172   3.490  0.1666  1.5013  0.1267
 1191TIP3   OH225063   6.079   0.496   5.302  0.2739  0.2734 -0.1334
 1191TIP3    H125064   6.025   0.444   5.361  0.0773  0.2761 -0.3125
 1191TIP3    H225065   6.036   0.581   5.299  0.7418  0.5329  0.3702
 1192TIP3   OH225066   4.607   5.326   5.499 -0.0549 -0.1404 -0.1015
 1192TIP3    H125067   4.561   5.334   5.415 -0.2578  1.1854  0.1254
 1192TIP3    H225068   4.652   5.409   5.510  2.1973 -1.3048 -0.1662
 1193TIP3   OH225069   0.439   5.283  13.591  0.1739 -0.1706 -0.0103
 1193TIP3    H125070   0.392   5.238  13.661 -1.1623 -1.8297 -1.9511
 1193TIP3    H225071   0.517   5.229  13.577  0.3148  0.0230  0.0337
 1194TIP3   OH225072   1.633   3.041   2.526  0.0072  0.7485  0.0113
 1194TIP3    H125073   1.653   2.999   2.609 -1.2107  0.7437  0.3180
 1194TIP3    H225074   1.620   3.133   2.548 -0.0699  0.7921 -0.2163
 1195TIP3   OH225075   3.995   3.125  17.071  0.0129 -0.2100 -0.3190
 1195TIP3    H125076   3.902   3.120  17.047  0.1179 -0.7263 -0.6270
 1195TIP3    H225077   3.995   3.171  17.155 -0.4882  0.1655 -0.5154
 1196TIP3   OH225078   6.491   1.087   0.604  0.2912  1.0141  0.3837
 1196TIP3    H125079   6.554   1.157   0.619  1.4658 -0.0328  0.4339
 1196TIP3    H225080   6.513   1.020   0.669 -1.1232  0.7961  0.6579
 1197TIP3   OH225081   3.038   0.770  11.323  0.0420  0.2213  0.1564
 1197TIP3    H125082   3.013   0.820  11.246 -0.8361  2.7954  2.0158
 1197TIP3    H225083   3.101   0.705  11.292 -1.7433 -0.0545 -3.0054
 1198TIP3   OH225084   5.251   3.132  13.368 -0.0017  0.1392 -0.4026
 1198TIP3    H125085   5.266   3.207  13.426 -3.7133  1.9566 -1.6451
 1198TIP3    H225086   5.285   3.161  13.283  0.6198 -0.4782 -0.3665
 1199TIP3   OH225087   3.441   2.743  15.546  0.1351  0.0827  0.5794
 1199TIP3    H125088   3.390   2.701  15.478 -0.6545 -2.9134  2.8878
 1199TIP3    H225089   3.378   2.796  15.595  0.5267  1.5223 -0.4607
 1200TIP3   OH225090   3.600   0.283  14.550  0.4118 -0.0236  0.3573
 1200TIP3    H125091   3.541   0.281  14.625  0.3262 -0.4221  0.2816
 1200TIP3    H225092   3.687   0.294  14.588  0.4548 -1.0248  0.5693
 1201TIP3   OH225093   0.977   6.113  11.374 -0.1921  0.4422  0.0945
 1201TIP3    H125094   0.924   6.037  11.400  0.6632  0.3346  1.6078
 1201TIP3    H225095   0.927   6.189  11.404  0.8592  0.3146  2.3034
 1202TIP3   OH225096   0.561   5.861   4.120  0.0262 -0.2911 -0.0662
 1202TIP3    H125097   0.552   5.769   4.147 -0.7371 -0.3097 -0.3526
 1202TIP3    H225098   0.608   5.857   4.037  1.1567 -0.3317  0.5784
 1203TIP3   OH225099   1.618   1.755   3.856  0.7116 -0.1153 -0.5743
 1203TIP3    H125100   1.530   1.768   3.893  0.4237 -1.6688 -0.6845
 1203TIP3    H225101   1.605   1.762   3.761  0.5650 -1.1332 -0.6306
 1204TIP3   OH225102   6.346   2.203  13.982 -0.7220 -0.1473  0.3043
 1204TIP3    H125103   6.350   2.276  14.044 -0.6648 -1.9475  2.5229
 1204TIP3    H225104   6.257   2.168  13.992 -0.2873 -1.2689  0.3837
 1205TIP3   OH225105   5.632   4.485   5.352  0.7426 -0.7010 -0.3756
 1205TIP3    H125106   5.601   4.447   5.434  0.4676  0.3207 -0.0084
 1205TIP3    H225107   5.658   4.574   5.374  1.6700 -0.7593 -1.1787
 1206TIP3   OH225108   3.495   6.094   0.800  0.4459 -0.4370 -0.4195
 1206TIP3    H125109   3.438   6.122   0.871 -0.8977 -0.2038 -1.5540
 1206TIP3    H225110   3.486   6.163   0.734  0.8271 -1.1745 -1.2529
 1207TIP3   OH225111   1.030   3.554   3.073 -0.1856 -0.0394  0.4408
 1207TIP3    H125112   1.073   3.490   3.017 -1.8511 -0.9456  0.1576
 1207TIP3    H225113   1.020   3.632   3.018  0.6601  0.0231  0.3696
 1208TIP3   OH225114   5.059   1.028   4.294  0.4352 -0.8497 -0.4565
 1208TIP3    H125115   4.978   1.028   4.243  0.4629 -0.8963 -0.4999
 1208TIP3    H225116   5.040   0.973   4.370 -0.5078  1.4213  1.0080
 1209TIP3   OH225117   6.712   0.130   4.020 -0.2219  0.0444 -0.0500
 1209TIP3    H125118   6.706   0.038   3.995  2.3873 -0.5871  1.4514
 1209TIP3    H225119   6.755   0.173   3.947 -0.3942 -0.1527 -0.2666
 1210TIP3   OH225120   6.139   2.863   3.508  0.4412  0.3580 -0.2991
 1210TIP3    H125121   6.158   2.899   3.422  0.5437  0.5327 -0.2034
 1210TIP3    H225122   6.225   2.846   3.546  0.3908 -0.2986 -0.4762
 1211TIP3   OH225123   6.176   3.154  14.106 -0.4125 -0.3575 -0.3426
 1211TIP3    H125124   6.160   3.104  14.186  1.1861 -0.9654 -0.3868
 1211TIP3    H225125   6.251   3.210  14.127 -2.6726  2.6981 -0.0140
 1212TIP3   OH225126   3.642   5.409  13.977 -0.6002  0.5852 -0.5635
 1212TIP3    H125127   3.582   5.392  13.905  0.2162 -0.7627 -0.9549
 1212TIP3    H225128   3.651   5.325  14.022  1.2361  0.6539 -0.7270
 1213TIP3   OH225129   5.996   1.160   3.311 -0.1591  0.0022  0.7536
 1213TIP3    H125130   6.009   1.127   3.400  0.7097  0.4517  0.7939
 1213TIP3    H225131   5.964   1.084   3.261 -0.7539 -0.2214  1.4668
 1214TIP3   OH225132   1.986   5.146   0.530  0.1119 -0.2846  0.2159
 1214TIP3    H125133   2.049   5.093   0.481  0.8407 -0.2612  1.1092
 1214TIP3    H225134   2.030   5.163   0.614 -0.9685 -0.0320  0.7343
 1215TIP3   OH225135   5.396   5.677  14.732  0.3257 -0.2712 -0.3550
 1215TIP3    H125136   5.450   5.711  14.803  0.7689 -0.0204 -0.8093
 1215TIP3    H225137   5.372   5.754  14.680 -3.7541  0.2204  2.0115
 1216TIP3   OH225138   2.784   0.506  15.231 -0.2045  0.2232 -0.4826
 1216TIP3    H125139   2.799   0.505  15.136  2.8698 -2.8761 -0.0773
 1216TIP3    H225140   2.839   0.577  15.263  0.3327 -0.0406 -0.8156
 1217TIP3   OH225141   2.459   5.161   5.058  0.0889 -0.3327 -0.2438
 1217TIP3    H125142   2.386   5.104   5.034  0.5323 -1.2488  0.5029
 1217TIP3    H225143   2.518   5.104   5.108 -0.0249  1.0666  1.5581
 1218TIP3   OH225144   2.621   3.945   0.544  0.3620  0.0301  0.1679
 1218TIP3    H125145   2.698   3.890   0.534 -0.1994 -0.8066  0.4464
 1218TIP3    H225146   2.615   3.961   0.638 -1.3474 -2.1369  0.4521
 1219TIP3   OH225147   1.574   4.041  11.345  0.0546 -0.0065 -0.7867
 1219TIP3    H125148   1.604   3.982  11.276  0.5729  0.0958 -0.6479
 1219TIP3    H225149   1.534   3.984  11.411  1.4451 -0.2905 -0.1867
 1220TIP3   OH225150   1.694   0.186   0.126 -0.6191  0.1815 -0.0412
 1220TIP3    H125151   1.699   0.108   0.181 -1.4218 -0.1594 -0.4514
 1220TIP3    H225152   1.607   0.183   0.087  0.0505  0.2649 -1.5579
 1221TIP3   OH225153   2.400   3.455  11.697  0.3297  0.0839  0.3806
 1221TIP3    H125154   2.341   3.504  11.639  1.5765  0.8695 -0.2438
 1221TIP3    H225155   2.448   3.397  11.638  0.7361 -0.0008  0.7986
 1222TIP3   OH225156   3.787   0.575   2.769  0.0357  0.0020  0.0340
 1222TIP3    H125157   3.743   0.591   2.853  0.0779 -0.1623  0.0869
 1222TIP3    H225158   3.821   0.661   2.743  1.5327 -0.2829  1.0280
 1223TIP3   OH225159   4.095   6.746  12.443  0.2647  0.1717  1.0233
 1223TIP3    H125160   4.112   6.786  12.358 -0.3072 -1.1920  0.2397
 1223TIP3    H225161   4.177   6.757  12.492  0.1954  2.0168  0.7396
 1224TIP3   OH225162   3.761   4.613  11.910  0.1639  0.3476 -0.1631
 1224TIP3    H125163   3.776   4.600  12.004 -0.2170 -0.8780 -0.2698
 1224TIP3    H225164   3.683   4.562  11.890 -0.8795  2.1491 -0.7700
 1225TIP3   OH225165   1.539   1.160   3.788 -0.3846 -0.2475  0.6819
 1225TIP3    H125166   1.451   1.195   3.800 -0.8867 -1.1644 -0.2653
 1225TIP3    H225167   1.528   1.065   3.793 -0.0020 -0.5286 -2.7437
 1226TIP3   OH225168   2.557   2.959  13.132 -0.6730  0.0892 -0.4467
 1226TIP3    H125169   2.630   3.020  13.123  0.5614 -1.4729 -1.2130
 1226TIP3    H225170   2.580   2.904  13.206 -0.3308 -1.4018 -1.6408
 1227TIP3   OH225171   3.132   5.359   0.949 -0.1919  0.0087 -0.2894
 1227TIP3    H125172   3.172   5.317   1.026 -0.7327  0.5995  0.3155
 1227TIP3    H225173   3.204   5.371   0.888  0.4674  0.6223  0.6030
 1228TIP3   OH225174   1.729   1.737   5.254  0.0923  0.5112  0.4475
 1228TIP3    H125175   1.666   1.672   5.286  1.0491 -0.8578 -0.3897
 1228TIP3    H225176   1.758   1.703   5.170  1.5213  1.4209  0.5475
 1229TIP3   OH225177   1.605   6.737   1.480  0.0905  0.3942 -0.3705
 1229TIP3    H125178   1.513   6.758   1.498  0.6662  0.4130  2.8481
 1229TIP3    H225179   1.642   6.817   1.445 -0.9027  0.6697 -0.8038
 1230TIP3   OH225180   0.487   2.879   0.711  0.1614 -0.0565 -0.1979
 1230TIP3    H125181   0.531   2.812   0.763  0.0219 -1.4138 -1.8054
 1230TIP3    H225182   0.398   2.846   0.700 -1.1718  2.3562  2.4657
 1231TIP3   OH225183   0.207   4.265  14.561 -0.7056  0.6812  0.3230
 1231TIP3    H125184   0.158   4.216  14.626 -1.0620  0.8435  0.1749
 1231TIP3    H225185   0.220   4.203  14.489 -0.6768  0.6326  0.3689
 1232TIP3   OH225186   6.769   2.811   4.312 -0.0445  0.1217 -0.2884
 1232TIP3    H125187   6.722   2.812   4.229 -0.6651  0.2083  0.0640
 1232TIP3    H225188   6.701   2.802   4.379  0.7635 -6.4183 -0.0247
 1233TIP3   OH225189   0.642   4.388  12.368  0.5392 -0.9160  0.2754
 1233TIP3    H125190   0.699   4.335  12.424  0.1239 -0.8170  0.7995
 1233TIP3    H225191   0.695   4.463  12.342 -0.2603  0.7191  3.1827
 1234TIP3   OH225192   1.343   1.310   4.085 -0.2816 -0.0136 -0.2037
 1234TIP3    H125193   1.380   1.221   4.083  3.0288  1.3085 -1.5450
 1234TIP3    H225194   1.312   1.321   4.175  1.3942 -1.7027  0.6288
 1235TIP3   OH225195   0.427   2.356   3.877 -0.7155  0.2910  0.1920
 1235TIP3    H125196   0.501   2.388   3.929  0.5710 -0.3354 -1.2024
 1235TIP3    H225197   0.398   2.432   3.827 -0.4290  0.3280  0.0781
 1236TIP3   OH225198   3.789   1.728   0.808 -0.1663 -0.5930 -0.0925
 1236TIP3    H125199   3.742   1.687   0.881 -0.9489 -0.3798 -0.4676
 1236TIP3    H225200   3.732   1.714   0.732  0.0606  0.2614 -0.4253
 1237TIP3   OH225201   2.465   5.773  15.105 -0.1267  0.5236 -0.0146
 1237TIP3    H125202   2.533   5.759  15.039 -0.5940 -1.9629 -0.0093
 1237TIP3    H225203   2.513   5.792  15.186  0.5347  0.1678 -0.3212
 1238TIP3   OH225204   0.728   5.858   2.103  0.0174 -0.4923  0.8388
 1238TIP3    H125205   0.647   5.895   2.069  0.0134 -1.1839  0.0727
 1238TIP3    H225206   0.705   5.767   2.124  0.4065 -0.4850  1.2915
 1239TIP3   OH225207   3.126   4.350   0.747  0.0754 -0.1412  0.0484
 1239TIP3    H125208   3.191   4.416   0.772 -0.1612 -0.5896  1.8827
 1239TIP3    H225209   3.056   4.360   0.811 -0.6391 -1.1944 -0.5610
 1240TIP3   OH225210   5.063   0.006  11.728  0.4895 -0.6395 -0.4327
 1240TIP3    H125211   5.032   0.084  11.683  2.5572 -0.2032 -1.1560
 1240TIP3    H225212   5.130  -0.031  11.670  0.2076 -2.4180  0.3418
 1241TIP3   OH225213   5.976   0.769   5.280 -0.5130  0.0845  0.3554
 1241TIP3    H125214   6.009   0.784   5.191 -0.4941 -2.3375 -0.1068
 1241TIP3    H225215   5.963   0.856   5.316  2.9377  1.1481 -0.7265
 1242TIP3   OH225216   2.089   1.806  12.376  0.0033  0.6788 -0.0983
 1242TIP3    H125217   2.057   1.873  12.435 -2.1423 -1.2575  1.0179
 1242TIP3    H225218   2.184   1.805  12.388 -0.0469  2.8702  0.5049
 1243TIP3   OH225219   0.325   0.615  15.449 -0.4151 -0.0621  0.6060
 1243TIP3    H125220   0.267   0.541  15.429  2.3865 -1.9085 -1.0340
 1243TIP3    H225221   0.396   0.577  15.500  1.0890  1.4571 -0.2903
 1244TIP3   OH225222   4.094   1.310  13.747  0.3913 -0.1838 -0.4848
 1244TIP3    H125223   4.037   1.251  13.796  0.7913  1.0049  1.4759
 1244TIP3    H225224   4.034   1.374  13.707  0.1499 -0.4451 -0.5419
 1245TIP3   OH225225   1.766   5.034  12.649  0.5864 -0.5590  0.0365
 1245TIP3    H125226   1.809   4.990  12.722 -0.8786 -2.4762 -0.2508
 1245TIP3    H225227   1.795   4.987  12.571  0.7773  0.4012 -0.4911
 1246TIP3   OH225228   4.606   1.487   5.967  0.2038 -0.5409  0.3327
 1246TIP3    H125229   4.546   1.472   6.040  0.8738 -1.9108  0.6050
 1246TIP3    H225230   4.656   1.564   5.993 -0.2887 -0.3916  0.8439
 1247TIP3   OH225231   4.356   6.188   0.909  0.1318  0.1477 -0.2668
 1247TIP3    H125232   4.423   6.251   0.934 -0.8272  1.3831 -0.7561
 1247TIP3    H225233   4.330   6.147   0.991 -0.8656  2.0497  0.4126
 1248TIP3   OH225234   1.843   4.917  11.338  0.1607  0.7588  0.0239
 1248TIP3    H125235   1.756   4.880  11.320  0.6827  0.7331 -2.7233
 1248TIP3    H225236   1.904   4.846  11.318  0.9848  1.9113 -1.6608
 1249TIP3   OH225237   5.563   3.430  12.581  0.5565  0.3623 -0.0112
 1249TIP3    H125238   5.650   3.410  12.547  0.1198  1.4812 -1.8299
 1249TIP3    H225239   5.578   3.492  12.652  1.2254  0.6859 -0.4364
 1250TIP3   OH225240   5.117   0.704  15.150  0.2518 -0.8131 -0.0966
 1250TIP3    H125241   5.074   0.627  15.188 -0.9157  0.0244  0.3146
 1250TIP3    H225242   5.079   0.712  15.063 -0.7946  0.2020  0.4393
 1251TIP3   OH225243   0.713   4.745   3.146  0.1700  0.5039 -0.5759
 1251TIP3    H125244   0.661   4.674   3.108  0.3967 -1.5276  2.6834
 1251TIP3    H225245   0.650   4.814   3.165 -0.7246 -0.4129 -0.1733
 1252TIP3   OH225246   1.542   1.822  12.940  0.2167 -0.9643 -0.3657
 1252TIP3    H125247   1.592   1.838  13.020  1.2757  1.6258 -1.4906
 1252TIP3    H225248   1.559   1.730  12.918  2.5913 -0.7722  0.5735
 1253TIP3   OH225249   5.489   3.014   3.209 -0.1438 -0.3403  0.0020
 1253TIP3    H125250   5.531   2.970   3.136  2.5168  0.0233  1.2309
 1253TIP3    H225251   5.499   3.107   3.190  0.1449 -0.2459  0.6026
 1254TIP3   OH225252   0.283   2.433   2.065  0.1891 -0.9042  0.6566
 1254TIP3    H125253   0.367   2.407   2.105 -0.9224 -5.7537  0.2211
 1254TIP3    H225254   0.287   2.396   1.977 -2.3807 -1.1714  0.6306
 1255TIP3   OH225255   6.182   3.117  13.237  0.2767  0.2283 -0.1427
 1255TIP3    H125256   6.270   3.081  13.231  0.9021  1.7449 -0.2766
 1255TIP3    H225257   6.136   3.060  13.299  1.3962 -0.4763  0.0438
 1256TIP3   OH225258   0.039   4.954   2.228  0.1891 -0.4439  0.3980
 1256TIP3    H125259   0.002   4.888   2.286 -2.0588  0.3011 -0.1675
 1256TIP3    H225260   0.006   5.037   2.261  0.2458  0.1235 -0.9393
 1257TIP3   OH225261   5.963   5.386   0.927 -0.2785  0.7340  0.2074
 1257TIP3    H125262   6.031   5.453   0.923 -0.1667  0.5898 -0.5396
 1257TIP3    H225263   5.890   5.427   0.973  1.2672  0.0378  3.4032
 1258TIP3   OH225264   2.744   0.480   4.141  0.1291 -0.1676 -0.1139
 1258TIP3    H125265   2.744   0.394   4.098  1.1879 -0.5895  0.7225
 1258TIP3    H225266   2.756   0.460   4.234  1.6647  0.9608 -0.0581
 1259TIP3   OH225267   1.759   3.643   4.959 -0.2726  0.1436 -0.3855
 1259TIP3    H125268   1.679   3.695   4.957 -0.0042  0.6944  1.9397
 1259TIP3    H225269   1.756   3.596   5.043  2.1755  0.7449  0.1006
 1260TIP3   OH225270   3.731   3.350   1.994 -0.1022 -0.3836 -0.0806
 1260TIP3    H125271   3.685   3.267   1.985  0.0326 -0.3791 -0.8679
 1260TIP3    H225272   3.667   3.409   2.035 -0.4997 -0.6204 -0.3588
 1261TIP3   OH225273   5.799   3.444  12.791  0.2671  0.0916 -0.4461
 1261TIP3    H125274   5.834   3.492  12.716  1.3693  0.9809  0.6005
 1261TIP3    H225275   5.844   3.482  12.867 -0.8531 -0.7486  0.6720
 1262TIP3   OH225276   0.034   0.957   0.370 -0.2106  0.0439 -0.4129
 1262TIP3    H125277   0.038   1.048   0.341  0.0101  0.0398 -0.3959
 1262TIP3    H225278   0.086   0.955   0.450 -1.9177  0.3394  0.7367
 1263TIP3   OH225279   4.535   1.071  15.112 -0.4851  0.4108 -0.0141
 1263TIP3    H125280   4.586   1.122  15.176  0.0100  0.3069 -0.3226
 1263TIP3    H225281   4.560   0.980  15.129 -0.6557  0.3483 -0.0939
 1264TIP3   OH225282   3.238   6.055  11.746  0.1444  0.7413  0.5541
 1264TIP3    H125283   3.269   6.125  11.688 -1.2563  2.2926  1.6507
 1264TIP3    H225284   3.270   6.080  11.833 -0.2914 -0.0408  0.9426
 1265TIP3   OH225285   4.719   1.195  14.226 -0.2285  0.3831  0.1990
 1265TIP3    H125286   4.777   1.268  14.245 -1.4195  1.4193 -0.0626
 1265TIP3    H225287   4.681   1.216  14.141 -2.4893  0.7340  1.2550
 1266TIP3   OH225288   1.815   4.946  13.929 -0.6738  0.1369 -0.4292
 1266TIP3    H125289   1.892   4.949  13.986 -1.1326  0.2301  0.1925
 1266TIP3    H225290   1.743   4.977  13.984 -1.1959 -0.1443 -0.9468
 1267TIP3   OH225291   1.496   3.869   3.889  0.1589  0.2799  0.1602
 1267TIP3    H125292   1.478   3.815   3.813  1.8180  0.5293 -0.4521
 1267TIP3    H225293   1.474   3.958   3.861 -0.6824  0.1783  0.4935
 1268TIP3   OH225294   4.318   5.293   2.665  0.1816 -0.7360  0.1615
 1268TIP3    H125295   4.288   5.203   2.651 -4.4479  0.7522  0.0129
 1268TIP3    H225296   4.326   5.330   2.577 -0.8026 -0.1205  0.3266
 1269TIP3   OH225297   6.655   2.770   6.204 -0.3639  0.3638 -0.0351
 1269TIP3    H125298   6.562   2.794   6.199 -0.0711  1.5180 -0.0308
 1269TIP3    H225299   6.697   2.846   6.242  0.6730  0.0540 -0.5586
 1270TIP3   OH225300   6.111   3.092   4.799  0.1814 -0.2082  0.7404
 1270TIP3    H125301   6.037   3.143   4.833 -0.0229  0.1173 -0.1501
 1270TIP3    H225302   6.182   3.155   4.790  0.4962 -0.4705  1.3619
 1271TIP3   OH225303   0.960   1.807   0.694 -0.1933  0.5119 -0.4433
 1271TIP3    H125304   0.885   1.752   0.674  0.5460 -0.6598 -0.0208
 1271TIP3    H225305   0.960   1.815   0.790  0.8086 -0.3459 -0.3611
 1272TIP3   OH225306   5.535   0.012  15.178  0.5947 -0.5066 -0.1594
 1272TIP3    H125307   5.517  -0.023  15.091  1.7761 -0.4665 -0.4338
 1272TIP3    H225308   5.491  -0.049  15.238  2.1514 -2.1732 -0.6651
 1273TIP3   OH225309   2.789   6.299  13.033 -0.2631 -0.3111  0.2765
 1273TIP3    H125310   2.771   6.354  12.957 -3.5717  0.0267  1.2489
 1273TIP3    H225311   2.799   6.211  12.996  1.5171  0.3363 -0.8744
 1274TIP3   OH225312   4.865   6.505   2.489 -0.2288 -0.7443 -0.2114
 1274TIP3    H125313   4.904   6.420   2.470  0.0373 -0.5154 -0.6842
 1274TIP3    H225314   4.817   6.492   2.571 -0.5043 -1.4474 -0.4867
 1275TIP3   OH225315   3.822   3.177  15.768  0.7377 -0.4837 -0.0825
 1275TIP3    H125316   3.804   3.241  15.699  0.2099 -1.4282 -0.8453
 1275TIP3    H225317   3.765   3.103  15.746 -2.2800  0.6252  3.4453
 1276TIP3   OH225318   1.888   1.391   0.392  0.2440  1.0961  0.6731
 1276TIP3    H125319   1.928   1.475   0.415  1.8239  0.5264  0.0992
 1276TIP3    H225320   1.802   1.414   0.359  1.5081  2.7278 -1.6556
 1277TIP3   OH225321   3.676   1.642   1.471  0.2808  0.1448 -0.3558
 1277TIP3    H125322   3.662   1.590   1.392  2.3965 -0.2777 -0.4866
 1277TIP3    H225323   3.723   1.719   1.440  2.3751 -0.6843  0.6661
 1278TIP3   OH225324   6.350   2.474  11.346 -0.2358 -0.7066  0.0909
 1278TIP3    H125325   6.439   2.501  11.369 -0.7615 -0.0408  1.3887
 1278TIP3    H225326   6.302   2.478  11.429 -1.5634 -0.7171 -0.6771
 1279TIP3   OH225327   3.424   4.780   2.896 -0.4143  0.0014  0.0357
 1279TIP3    H125328   3.488   4.711   2.877 -1.8808 -1.3104 -0.1838
 1279TIP3    H225329   3.436   4.798   2.989  0.0472 -0.4573  0.0704
 1280TIP3   OH225330   4.733   4.584  13.078  0.6315  0.2561  0.3952
 1280TIP3    H125331   4.686   4.595  12.996  0.1894  0.0650  0.6205
 1280TIP3    H225332   4.760   4.492  13.079 -1.2006 -0.2953  1.4224
 1281TIP3   OH225333   3.631   1.421  16.801 -0.3366  0.0123  0.2347
 1281TIP3    H125334   3.687   1.403  16.725 -0.0644  0.3241  0.3658
 1281TIP3    H225335   3.586   1.502  16.779 -0.5852 -0.1311  0.2189
 1282TIP3   OH225336   3.527   1.215   2.810  0.5193 -0.3296 -0.0085
 1282TIP3    H125337   3.492   1.180   2.728 -3.1712 -1.3463  1.8854
 1282TIP3    H225338   3.556   1.137   2.858  0.4080  0.0466  0.6635
 1283TIP3   OH225339   0.792   6.341   3.153 -0.4928  0.4834 -0.3616
 1283TIP3    H125340   0.765   6.306   3.237  0.0490  0.3612 -0.2378
 1283TIP3    H225341   0.828   6.428   3.173  1.2882 -0.2567 -0.2207
 1284TIP3   OH225342   6.462   2.852   3.479  0.5116 -0.0230  0.5463
 1284TIP3    H125343   6.489   2.916   3.413 -0.7333  0.2753  0.3072
 1284TIP3    H225344   6.436   2.905   3.554  0.8674 -0.3097  0.8695
 1285TIP3   OH225345   4.294   6.227  11.549 -0.1743 -0.3957  0.4534
 1285TIP3    H125346   4.312   6.256  11.459  1.4511 -2.2840  0.1454
 1285TIP3    H225347   4.379   6.201  11.583 -0.8509 -0.0728  2.4271
 1286TIP3   OH225348   3.253   0.434   5.668 -0.1471 -0.3037 -0.0029
 1286TIP3    H125349   3.221   0.439   5.578 -0.9822 -2.5971  0.1647
 1286TIP3    H225350   3.201   0.367   5.710  0.3590  0.6046  2.1820
 1287TIP3   OH225351   4.076   4.244  16.147  0.0160  0.3077  0.0918
 1287TIP3    H125352   4.159   4.197  16.157 -1.3302 -2.4324 -1.0530
 1287TIP3    H225353   4.066   4.254  16.052 -1.0045  0.5334  0.2212
 1288TIP3   OH225354   5.951   5.490   5.706  0.1945 -0.1552 -0.2191
 1288TIP3    H125355   5.926   5.457   5.792  0.3839  0.0997 -0.0673
 1288TIP3    H225356   5.914   5.578   5.702  0.4653 -0.0454 -0.2720
 1289TIP3   OH225357   0.404   0.408   1.865  0.0331 -0.0615  0.0492
 1289TIP3    H125358   0.336   0.396   1.932 -1.3381  1.3555 -1.0861
 1289TIP3    H225359   0.435   0.319   1.848 -0.5278 -0.5855  1.5985
 1290TIP3   OH225360   4.793   0.652   3.418 -0.5254 -0.1137  0.3761
 1290TIP3    H125361   4.761   0.703   3.492  1.7381  0.5178  0.9625
 1290TIP3    H225362   4.774   0.561   3.442 -0.7167  0.1579  1.2761
 1291TIP3   OH225363   4.383   3.041  16.035  0.2835 -0.3551 -0.0397
 1291TIP3    H125364   4.407   3.063  15.944  0.8449  1.2529  0.4749
 1291TIP3    H225365   4.336   3.118  16.066  1.6036 -0.1805  1.5789
 1292TIP3   OH225366   6.016   1.220  12.038 -0.4047  0.3747 -0.0685
 1292TIP3    H125367   6.104   1.198  12.070 -0.6244 -0.7339 -0.1851
 1292TIP3    H225368   6.032   1.262  11.953  0.0425  0.7045  0.1780
 1293TIP3   OH225369   4.779   2.445   0.953 -0.0303 -0.9038  0.5068
 1293TIP3    H125370   4.874   2.447   0.938 -0.0006  3.7827  0.5242
 1293TIP3    H225371   4.769   2.481   1.042 -1.8993  0.6008 -0.2831
 1294TIP3   OH225372   4.301   4.332  12.907  0.4088  0.1864  0.3895
 1294TIP3    H125373   4.315   4.407  12.848  1.3668 -0.7049 -0.5522
 1294TIP3    H225374   4.362   4.347  12.979  1.2490 -0.1273 -0.2446
 1295TIP3   OH225375   0.988   2.160  17.151 -0.0038  0.6174 -0.1320
 1295TIP3    H125376   1.052   2.091  17.163 -0.7289 -0.5418 -2.6135
 1295TIP3    H225377   1.031   2.239  17.184  1.7966 -0.5391  0.3466
 1296TIP3   OH225378   6.288   5.106   2.185 -0.0681 -0.6710 -0.6277
 1296TIP3    H125379   6.231   5.112   2.262  0.5556 -0.1259 -0.2045
 1296TIP3    H225380   6.371   5.073   2.218  0.4455  0.2757 -0.9349
 1297TIP3   OH225381   5.661   4.399  12.129 -0.1574  0.0171  0.5375
 1297TIP3    H125382   5.752   4.423  12.149  0.0856  0.4068 -0.9470
 1297TIP3    H225383   5.621   4.481  12.100 -0.6417 -0.4095  0.0050
 1298TIP3   OH225384   5.194   4.581  13.178 -0.2177 -0.1351 -0.0433
 1298TIP3    H125385   5.145   4.500  13.193  1.3484 -0.7287  2.0359
 1298TIP3    H225386   5.127   4.649  13.175 -1.2625 -1.0704  1.6423
 1299TIP3   OH225387   4.545   2.579  13.289 -0.0818  0.3091 -0.4158
 1299TIP3    H125388   4.493   2.603  13.212 -0.3912  2.2376  0.3530
 1299TIP3    H225389   4.634   2.605  13.267  0.3166 -1.7085 -1.1952
 1300TIP3   OH225390   4.756   5.584  15.953 -0.6193  0.0574 -0.5083
 1300TIP3    H125391   4.748   5.613  15.862  2.2720 -1.6097 -1.3444
 1300TIP3    H225392   4.810   5.651  15.995 -3.1558  1.5947  0.4051
 1301TIP3   OH225393   0.274   6.618   4.990 -0.1338 -0.0789  0.1695
 1301TIP3    H125394   0.329   6.613   5.068 -0.0495 -0.7240  0.0687
 1301TIP3    H225395   0.250   6.711   4.984 -0.0723 -0.0089  0.9167
 1302TIP3   OH225396   3.111   5.975   1.191  0.1166 -0.4016 -0.3902
 1302TIP3    H125397   3.065   6.059   1.192 -1.4640 -1.2131 -1.1470
 1302TIP3    H225398   3.087   5.934   1.274 -0.5387 -0.8170 -0.7769
 1303TIP3   OH225399   0.518   0.869  13.852  0.3619 -0.5291  0.3275
 1303TIP3    H125400   0.611   0.848  13.852  0.2554 -1.0318  1.1090
 1303TIP3    H225401   0.497   0.886  13.943 -0.1726  0.2377  0.0683
 1304TIP3   OH225402   3.530   5.526  11.417 -0.0665  0.3288 -0.1613
 1304TIP3    H125403   3.571   5.460  11.361 -1.9580 -0.1694 -1.0146
 1304TIP3    H225404   3.458   5.560  11.364 -0.4564  1.5237  1.1133
 1305TIP3   OH225405   6.672   6.301   5.814 -0.7830  0.3043  0.2986
 1305TIP3    H125406   6.591   6.351   5.817 -2.3578 -2.0041 -1.7694
 1305TIP3    H225407   6.731   6.354   5.761 -1.2168  1.5935  1.0870
 1306TIP3   OH225408   5.717   3.477   3.667 -0.2416 -0.2188 -0.2236
 1306TIP3    H125409   5.755   3.563   3.648 -2.5195  1.1856  1.3214
 1306TIP3    H225410   5.727   3.466   3.761  0.6379 -1.9660 -0.5003
 1307TIP3   OH225411   5.477   0.527  14.367  0.4923  0.2882  0.0912
 1307TIP3    H125412   5.493   0.435  14.345  1.5936  0.2247  1.1364
 1307TIP3    H225413   5.427   0.560  14.292 -2.7060 -1.9710  1.0905
 1308TIP3   OH225414   3.584   0.437  15.607 -0.0986  0.4530  0.3171
 1308TIP3    H125415   3.577   0.343  15.623  0.3566  0.4753  0.6415
 1308TIP3    H225416   3.556   0.478  15.689  0.0366  0.5943  0.2934
 1309TIP3   OH225417   3.804   0.209  13.497  0.0190  0.0790  0.6637
 1309TIP3    H125418   3.818   0.236  13.406 -4.3793  0.9239  0.1189
 1309TIP3    H225419   3.815   0.289  13.548  0.1585  0.0957  0.6078
 1310TIP3   OH225420   2.643   4.288   5.931  0.2128 -0.2322 -0.1688
 1310TIP3    H125421   2.667   4.295   6.023  0.4104 -2.5878 -0.0218
 1310TIP3    H225422   2.720   4.250   5.888 -1.1097 -2.3723 -0.6937
 1311TIP3   OH225423   2.012   0.667  11.732 -0.1871  0.1494 -0.2042
 1311TIP3    H125424   1.937   0.646  11.787  0.3444 -0.0414  0.4538
 1311TIP3    H225425   1.975   0.676  11.644 -0.8402 -0.8661 -0.0515
 1312TIP3   OH225426   5.970   6.248   4.779 -0.8891  0.2481  0.2730
 1312TIP3    H125427   5.944   6.338   4.800 -1.0523  0.3548 -0.3990
 1312TIP3    H225428   6.020   6.220   4.856 -1.7648  0.5291  0.9557
 1313TIP3   OH225429   5.952   5.986  11.633  0.6330  0.0633 -0.1182
 1313TIP3    H125430   6.040   5.950  11.632  0.5677 -0.0969 -0.5503
 1313TIP3    H225431   5.907   5.942  11.560  0.1146 -0.0625  0.2692
 1314TIP3   OH225432   0.896   3.084  16.333 -0.0743  0.2472 -0.7726
 1314TIP3    H125433   0.971   3.113  16.384 -2.0746  3.1055  0.7075
 1314TIP3    H225434   0.880   3.153  16.270 -0.2461 -1.2918 -2.4632
 1315TIP3   OH225435   0.763   2.524   2.653 -0.1125 -0.0245  0.5550
 1315TIP3    H125436   0.692   2.583   2.628 -0.4958 -1.2708 -1.3592
 1315TIP3    H225437   0.842   2.564   2.616  0.0251  0.6437  1.5271
 1316TIP3   OH225438   3.672   1.740  15.403 -0.2798  0.1991  0.2361
 1316TIP3    H125439   3.694   1.814  15.460  0.5441  1.1260 -1.2320
 1316TIP3    H225440   3.578   1.728  15.414 -0.3092  1.0633  0.9752
 1317TIP3   OH225441   2.837   6.144  11.583  0.1421 -0.2262 -0.0571
 1317TIP3    H125442   2.787   6.088  11.524  1.2020 -0.0957 -1.1170
 1317TIP3    H225443   2.771   6.192  11.634 -0.7819 -0.8350 -0.6742
 1318TIP3   OH225444   2.331   6.293   2.670  0.2332 -0.0145  0.7453
 1318TIP3    H125445   2.401   6.253   2.618  0.1363  0.5568  0.1709
 1318TIP3    H225446   2.364   6.292   2.760  1.3228  0.9924  0.3678
 1319TIP3   OH225447   0.653   6.395   0.377 -0.1217 -0.2319 -0.0697
 1319TIP3    H125448   0.737   6.397   0.331  0.8698 -0.0234  1.6750
 1319TIP3    H225449   0.613   6.480   0.360  0.7964  0.3115  0.4643
 1320TIP3   OH225450   1.331   6.694   1.852 -0.2969 -0.5527 -0.1645
 1320TIP3    H125451   1.382   6.761   1.806 -0.0207 -0.7028 -0.0819
 1320TIP3    H225452   1.255   6.679   1.797  1.8872 -3.4741 -2.5302
 1321TIP3   OH225453   6.614   0.737  12.296  0.1531  0.2865 -0.2744
 1321TIP3    H125454   6.610   0.795  12.221  1.2001  1.3858  0.5073
 1321TIP3    H225455   6.677   0.778  12.355 -1.1481 -0.2182  1.4942
 1322TIP3   OH225456   6.081   5.526  17.105  0.1755  0.2907 -0.1011
 1322TIP3    H125457   6.143   5.580  17.154  0.1406  0.4630 -0.2410
 1322TIP3    H225458   6.074   5.445  17.155  0.0877  0.4908  0.2151
 1323TIP3   OH225459   2.907   5.600   6.263 -0.1695 -0.1469  0.0681
 1323TIP3    H125460   2.984   5.553   6.294  1.9360  1.8104 -1.9917
 1323TIP3    H225461   2.869   5.542   6.196  0.5988 -0.3137 -0.2311
 1324TIP3   OH225462   3.242   5.240  12.456 -0.5211 -0.1084 -0.1015
 1324TIP3    H125463   3.231   5.286  12.539 -1.3153 -0.2114 -0.1496
 1324TIP3    H225464   3.326   5.195  12.464  0.6709  1.9884 -0.3561
 1325TIP3   OH225465   1.839   1.476  15.696  0.3541  0.0701  0.1796
 1325TIP3    H125466   1.926   1.436  15.693 -0.0539 -0.9089  0.9936
 1325TIP3    H225467   1.852   1.561  15.738  1.0834  0.3885 -0.6842
 1326TIP3   OH225468   1.154   0.977  14.445  0.8093  0.1373 -0.6537
 1326TIP3    H125469   1.187   0.905  14.390 -0.1855 -0.9772  0.1759
 1326TIP3    H225470   1.065   0.991  14.416  0.7241  0.4577 -0.2440
 1327TIP3   OH225471   0.129   3.143   1.664 -0.1782  0.1098 -0.4621
 1327TIP3    H125472   0.179   3.224   1.670 -1.1013  0.5838  1.1806
 1327TIP3    H225473   0.117   3.129   1.570 -0.0128  1.8653 -0.7631
 1328TIP3   OH225474   5.467   4.651  11.901 -0.3037  0.4006 -0.4587
 1328TIP3    H125475   5.562   4.648  11.906 -0.1930  1.0541 -1.7966
 1328TIP3    H225476   5.437   4.630  11.989  1.0078 -2.7081 -0.6747
 1329TIP3   OH225477   2.684   5.582   4.607  0.0635  0.3032  0.0201
 1329TIP3    H125478   2.759   5.620   4.653 -1.0971  0.8936  1.4612
 1329TIP3    H225479   2.723   5.531   4.535  1.8557  0.1349  1.0891
 1330TIP3   OH225480   2.592   4.447   3.256  0.7898 -0.4673  0.5134
 1330TIP3    H125481   2.677   4.475   3.291  1.5383 -1.2298 -0.6451
 1330TIP3    H225482   2.528   4.503   3.300  1.8759 -0.0290  1.5602
 1331TIP3   OH225483   0.596   2.696   1.379  0.4073 -0.4535  0.2798
 1331TIP3    H125484   0.564   2.763   1.439 -1.0341 -0.8822  0.0166
 1331TIP3    H225485   0.674   2.734   1.338  0.0090  0.7673  0.6653
 1332TIP3   OH225486   3.174   5.957  16.094 -0.4480  0.0468 -0.4095
 1332TIP3    H125487   3.107   5.901  16.055  0.2769 -0.5788 -0.7727
 1332TIP3    H225488   3.141   6.046  16.083 -1.2206 -0.2619 -0.5794
 1333TIP3   OH225489   1.744   3.381  11.848 -0.2471  0.3775  0.5704
 1333TIP3    H125490   1.699   3.319  11.906  1.1386 -0.1194  1.1258
 1333TIP3    H225491   1.790   3.326  11.785  0.3965  0.8585  0.6183
 1334TIP3   OH225492   3.551   5.480   5.955 -0.1605  0.3419  0.0171
 1334TIP3    H125493   3.636   5.437   5.942 -0.2244 -0.3528  1.7220
 1334TIP3    H225494   3.572   5.564   5.994 -0.1178  1.3170 -2.0583
 1335TIP3   OH225495   4.637   1.702   0.517 -0.3098 -0.4395  0.2120
 1335TIP3    H125496   4.634   1.665   0.429  0.0023  1.6435 -0.6993
 1335TIP3    H225497   4.547   1.727   0.536  0.0699  1.7608 -0.7117
 1336TIP3   OH225498   3.487   4.808   6.124 -0.3047  0.0596 -0.1337
 1336TIP3    H125499   3.496   4.714   6.139  1.9845  0.3858  0.8001
 1336TIP3    H225500   3.434   4.840   6.197 -1.4754 -0.5598 -0.7007
 1337TIP3   OH225501   1.429   2.368   6.870  0.2405 -0.4313 -0.0026
 1337TIP3    H125502   1.452   2.280   6.840 -0.1804 -0.7870  0.7264
 1337TIP3    H225503   1.510   2.402   6.908  0.3388 -0.5847 -0.0720
 1338TIP3   OH225504   5.696   5.600  12.652 -0.8676  0.1541  0.1634
 1338TIP3    H125505   5.631   5.531  12.642 -0.7723 -0.0287  0.8200
 1338TIP3    H225506   5.766   5.576  12.591 -1.8907  0.9249 -1.3497
 1339TIP3   OH225507   3.266   5.849  13.796  0.5501  0.3429 -0.4156
 1339TIP3    H125508   3.228   5.777  13.846  1.3088  0.5869  0.5307
 1339TIP3    H225509   3.254   5.824  13.704 -0.4539 -0.3187 -0.1113
 1340TIP3   OH225510   6.266   5.087   4.567  0.5505  0.6053  0.1133
 1340TIP3    H125511   6.206   5.161   4.577 -1.0539 -0.5306 -0.8287
 1340TIP3    H225512   6.220   5.027   4.507  2.4042 -0.5281 -0.2125
 1341TIP3   OH225513   6.629   4.227  11.346  0.2443 -0.0419  0.1752
 1341TIP3    H125514   6.567   4.294  11.318 -0.9189 -0.5796  1.4375
 1341TIP3    H225515   6.714   4.259  11.316 -0.6212  0.7195 -1.5423
 1342TIP3   OH225516   6.621   0.349  15.468  0.2084  0.1966  0.2533
 1342TIP3    H125517   6.653   0.312  15.550 -0.3552  0.7003  0.7004
 1342TIP3    H225518   6.602   0.440  15.488 -0.9363  0.0520 -0.1637
 1343TIP3   OH225519   0.720   0.847  15.800  0.2772  0.2370  0.2625
 1343TIP3    H125520   0.810   0.860  15.769 -0.4045 -0.4374 -2.0949
 1343TIP3    H225521   0.678   0.933  15.788  1.1113  1.0911  3.2054
 1344TIP3   OH225522   2.025   0.813  11.395  0.0620 -0.4392 -0.7988
 1344TIP3    H125523   1.974   0.891  11.416  1.0487  0.3280 -1.1929
 1344TIP3    H225524   1.974   0.740  11.430 -0.1085  0.5077  0.9544
 1345TIP3   OH225525   1.305   2.521  12.073  0.0565  0.1919  0.0469
 1345TIP3    H125526   1.365   2.501  12.145 -0.1474 -1.1694 -0.1596
 1345TIP3    H225527   1.227   2.557  12.117  0.5872  0.9535  0.3823
 1346TIP3   OH225528   1.824   6.791  15.696 -0.0050 -0.4019  0.7413
 1346TIP3    H125529   1.785   6.864  15.744 -0.5101 -0.2426  0.1088
 1346TIP3    H225530   1.871   6.740  15.762 -1.4472 -0.7062  1.5509
 1347TIP3   OH225531   6.082   2.841   0.752 -0.3973  0.2517  0.1120
 1347TIP3    H125532   6.156   2.887   0.791  0.6431 -0.8635 -0.5131
 1347TIP3    H225533   6.098   2.846   0.658 -0.6391 -0.7517  0.0071
 1348TIP3   OH225534   1.015   0.681   4.853 -0.1792 -0.0539 -0.3278
 1348TIP3    H125535   1.020   0.760   4.799 -1.9676  0.2329 -0.1021
 1348TIP3    H225536   0.960   0.621   4.804 -0.0611 -0.5916  0.1914
 1349TIP3   OH225537   6.217   0.061  14.427  0.1664 -0.1209  0.1938
 1349TIP3    H125538   6.249   0.032  14.512  2.1896  0.8049 -0.2291
 1349TIP3    H225539   6.232   0.155  14.426 -0.0629 -0.0874 -1.0820
 1350TIP3   OH225540   5.566   1.122  14.403 -0.0671 -0.2161  0.4820
 1350TIP3    H125541   5.564   1.061  14.329  0.1096 -0.7863  0.9426
 1350TIP3    H225542   5.639   1.181  14.383 -1.6990  1.3392 -1.1304
 1351TIP3   OH225543   2.414   3.043   1.183  0.4042  0.2103 -0.0446
 1351TIP3    H125544   2.496   3.068   1.141  0.9627  0.3388  1.0999
 1351TIP3    H225545   2.437   3.033   1.276 -1.0548  1.1475  0.4391
 1352TIP3   OH225546   1.629   3.675   3.016  0.3347  0.4278  0.1214
 1352TIP3    H125547   1.579   3.719   2.946 -0.3219 -0.8279 -0.2169
 1352TIP3    H225548   1.618   3.582   2.997 -0.3281  0.0599  2.2477
 1353TIP3   OH225549   0.742   4.701  11.575  0.1936 -0.0880 -0.1906
 1353TIP3    H125550   0.769   4.717  11.665 -0.4559  0.4120 -0.0806
 1353TIP3    H225551   0.778   4.774  11.525  0.9975 -0.6392 -0.4276
 1354TIP3   OH225552   6.646   1.862   3.826  0.3423  0.2635  0.7462
 1354TIP3    H125553   6.688   1.850   3.741 -1.2870  1.1086 -0.2148
 1354TIP3    H225554   6.654   1.955   3.844  1.3011 -0.0215  1.8827
 1355TIP3   OH225555   4.876   1.186  13.613  0.2058  0.0400  0.0308
 1355TIP3    H125556   4.938   1.116  13.637  0.9173  1.0574  1.2108
 1355TIP3    H225557   4.796   1.139  13.589  1.4052 -1.2979 -1.4548
 1356TIP3   OH225558   4.887   4.005  16.427 -0.0957 -0.1040  0.1364
 1356TIP3    H125559   4.941   4.066  16.377  0.3268  0.6425  1.4851
 1356TIP3    H225560   4.800   4.045  16.427  0.2150  0.6176  1.1523
 1357TIP3   OH225561   4.394   5.231   3.737 -0.1925  0.0219 -0.5561
 1357TIP3    H125562   4.467   5.267   3.787 -1.0703 -0.8827  1.4446
 1357TIP3    H225563   4.435   5.185   3.664  1.0669  2.5794 -1.5493
 1358TIP3   OH225564   5.802   0.672  11.645 -0.1222  0.2021 -0.3019
 1358TIP3    H125565   5.856   0.735  11.693 -1.4145  1.8650 -1.0037
 1358TIP3    H225566   5.856   0.647  11.570  0.1348  1.0276 -0.4037
 1359TIP3   OH225567   0.304   4.079  14.065  0.2941 -0.4298  0.2227
 1359TIP3    H125568   0.270   3.992  14.086  0.7125 -0.5470  0.4261
 1359TIP3    H225569   0.340   4.111  14.148  0.4846 -0.2202  0.0569
 1360TIP3   OH225570   3.946   5.159  12.973 -0.4231  0.5799 -0.1408
 1360TIP3    H125571   3.972   5.113  13.053  0.0040  0.7500 -0.1858
 1360TIP3    H225572   3.934   5.088  12.909  1.5386  0.6100 -0.5823
 1361TIP3   OH225573   2.874   2.184  13.600 -0.6496  0.0790  0.0277
 1361TIP3    H125574   2.863   2.231  13.518  1.2980  0.2694 -0.1428
 1361TIP3    H225575   2.887   2.092  13.574 -3.8936 -0.5493  0.3355
 1362TIP3   OH225576   1.237   4.816  11.868  0.3623  0.2071  0.0828
 1362TIP3    H125577   1.254   4.723  11.883 -0.3591  0.2398  1.1921
 1362TIP3    H225578   1.324   4.856  11.862  0.7014 -0.1956  1.9406
 1363TIP3   OH225579   6.476   4.019   0.066  0.1222 -0.0608 -0.0890
 1363TIP3    H125580   6.524   4.091   0.108 -0.2790  0.1408  0.0227
 1363TIP3    H225581   6.543   3.973   0.015  0.7238 -0.6212  1.1644
 1364TIP3   OH225582   0.494   1.591   6.207  0.3752  0.0631  0.1851
 1364TIP3    H125583   0.540   1.512   6.235  0.6575  0.4170  0.7381
 1364TIP3    H225584   0.557   1.661   6.221  0.1789  0.3640 -0.4557
 1365TIP3   OH225585   4.574   5.979   4.147  0.1399 -0.1813 -0.0122
 1365TIP3    H125586   4.553   6.037   4.074  0.0776 -0.1411  0.0383
 1365TIP3    H225587   4.666   5.996   4.166  0.2354 -0.4087 -0.2786
 1366TIP3   OH225588   4.515   2.606   0.997 -0.3300  0.1123 -0.0238
 1366TIP3    H125589   4.469   2.668   0.940  2.0381  0.9996 -1.0314
 1366TIP3    H225590   4.559   2.545   0.937  0.2877 -0.3595  0.8884
 1367TIP3   OH225591   4.217   1.391  15.069 -0.0579 -0.1083 -0.1206
 1367TIP3    H125592   4.154   1.324  15.044 -0.9089  0.8361 -0.5535
 1367TIP3    H225593   4.171   1.443  15.136  0.7180 -0.1654  0.4635
 1368TIP3   OH225594   4.067   2.824   2.026  0.1435  0.1969 -0.2061
 1368TIP3    H125595   4.012   2.748   2.044  2.1025 -1.0240  0.8010
 1368TIP3    H225596   4.012   2.899   2.048 -1.9903 -0.8768 -1.7071
 1369TIP3   OH225597   3.624   4.890  13.885 -0.3752 -0.0012 -0.2985
 1369TIP3    H125598   3.554   4.901  13.821 -1.4513  1.0211  1.0331
 1369TIP3    H225599   3.627   4.973  13.931  1.7278 -0.0382 -0.3379
 1370TIP3   OH225600   5.157   3.620  11.272 -0.0004  0.0421  0.5275
 1370TIP3    H125601   5.231   3.662  11.228  1.2276 -0.0914  2.4114
 1370TIP3    H225602   5.151   3.533  11.231  0.1576  0.4808 -0.4242
 1371TIP3   OH225603   1.002   3.994   2.336 -0.0266  1.0240 -0.6830
 1371TIP3    H125604   1.051   4.016   2.415  0.7052 -0.2967 -0.7438
 1371TIP3    H225605   0.912   3.981   2.366  0.0532  1.5161 -0.2365
 1372TIP3   OH225606   1.154   0.708   0.268  0.0245  0.2867  0.1287
 1372TIP3    H125607   1.202   0.648   0.325 -0.1705 -0.1167 -0.1322
 1372TIP3    H225608   1.079   0.736   0.321 -0.2729 -0.2539 -0.0066
 1373TIP3   OH225609   0.478   3.066   1.953  0.2885  0.0602  0.1811
 1373TIP3    H125610   0.526   3.119   1.888 -2.1201 -0.0164 -1.7150
 1373TIP3    H225611   0.484   2.977   1.920  0.3062 -0.1939  0.8650
 1374TIP3   OH225612   6.474   5.808   3.553 -0.4219  0.4200  0.3771
 1374TIP3    H125613   6.517   5.725   3.575  1.7469  2.2708  3.5980
 1374TIP3    H225614   6.535   5.852   3.495 -0.2363  0.9593  0.9746
 1375TIP3   OH225615   3.764   6.778  11.786  0.1993 -0.1216 -0.4769
 1375TIP3    H125616   3.758   6.863  11.743  2.2851  0.8926  1.1609
 1375TIP3    H225617   3.848   6.743  11.758 -0.1692 -1.1618 -0.2971
 1376TIP3   OH225618   2.439   3.382   2.647 -0.0877 -0.1786  0.8929
 1376TIP3    H125619   2.408   3.326   2.718 -0.6925  0.3967  1.0857
 1376TIP3    H225620   2.472   3.460   2.690 -1.5247  0.6775  0.5005
 1377TIP3   OH225621   5.280   3.055   0.419  0.3376  0.2610 -0.1671
 1377TIP3    H125622   5.297   3.109   0.496  1.5050  0.6670 -0.6958
 1377TIP3    H225623   5.216   3.105   0.367 -0.5379 -0.0683  0.5861
 1378TIP3   OH225624   2.685   3.771  15.079  0.2451 -0.4160 -0.1129
 1378TIP3    H125625   2.756   3.836  15.079  0.8321 -1.0539  0.6091
 1378TIP3    H225626   2.615   3.813  15.128  1.5714 -1.3316  2.6560
 1379TIP3   OH225627   0.334   3.769   5.195  0.4219 -0.6694 -0.3162
 1379TIP3    H125628   0.258   3.711   5.197  0.5145 -0.7555  1.5156
 1379TIP3    H225629   0.391   3.736   5.265  0.8370  1.1443  0.2227
 1380TIP3   OH225630   0.576   0.336   4.465  0.4976  0.2262  0.4210
 1380TIP3    H125631   0.547   0.269   4.527 -0.8506  0.8584  0.4812
 1380TIP3    H225632   0.520   0.324   4.389  1.4322  0.1625 -0.2685
 1381TIP3   OH225633   4.922   3.949   0.160 -0.1336  0.2089  0.2358
 1381TIP3    H125634   4.997   3.893   0.143  2.3886  2.4755  3.1115
 1381TIP3    H225635   4.930   4.021   0.098  0.9293  1.1542  1.4309
 1382TIP3   OH225636   0.610   0.370   2.897 -0.6359  0.5212 -0.2054
 1382TIP3    H125637   0.543   0.303   2.901 -1.2743  1.1542 -0.1978
 1382TIP3    H225638   0.562   0.453   2.901  0.2022  0.9768  0.7657
 1383TIP3   OH225639   2.921   0.917   2.150 -0.3331 -0.3912 -0.4110
 1383TIP3    H125640   2.987   0.856   2.119  0.4003  1.5081 -2.7981
 1383TIP3    H225641   2.970   0.985   2.197 -0.7487  0.1926 -0.8073
 1384TIP3   OH225642   2.399   6.554   5.015  0.1035  0.0823  0.5381
 1384TIP3    H125643   2.407   6.647   4.997  1.4402  0.1442  1.3376
 1384TIP3    H225644   2.305   6.539   5.026 -0.2499  1.0357 -1.0494
 1385TIP3   OH225645   6.099   3.267   6.049 -0.1883 -0.1087  0.1661
 1385TIP3    H125646   6.117   3.359   6.070 -0.3741  0.0733 -0.4608
 1385TIP3    H225647   6.110   3.221   6.132 -0.7306  0.5785  0.6321
 1386TIP3   OH225648   0.863   2.982  13.796  0.3947 -0.4251 -0.1761
 1386TIP3    H125649   0.891   2.909  13.852  0.3439  0.8445  1.5370
 1386TIP3    H225650   0.937   3.042  13.795 -0.1113  0.1970 -0.3929
 1387TIP3   OH225651   6.657   1.170   3.437  0.3818  0.0127  0.2671
 1387TIP3    H125652   6.743   1.209   3.450  0.0230  0.4742  1.3176
 1387TIP3    H225653   6.632   1.137   3.523 -0.5214 -0.0532 -0.0118
 1388TIP3   OH225654   4.468   3.597  14.480 -0.1126 -0.3057  0.0322
 1388TIP3    H125655   4.429   3.652  14.548 -2.0990 -3.2498  1.3818
 1388TIP3    H225656   4.548   3.563  14.520  1.3650  1.8730 -0.9719
 1389TIP3   OH225657   1.990   3.580   3.954 -0.0770 -0.2357 -0.3096
 1389TIP3    H125658   1.964   3.661   3.909 -2.1114 -1.3682 -1.2614
 1389TIP3    H225659   1.918   3.563   4.014  0.6500 -1.0058  0.3364
 1390TIP3   OH225660   5.871   0.863  17.157 -0.1087  0.6129 -0.4654
 1390TIP3    H125661   5.917   0.943  17.182  0.9838 -0.0686 -0.2630
 1390TIP3    H225662   5.858   0.816  17.239 -1.3128  0.8622 -0.5016
 1391TIP3   OH225663   4.912   1.078  16.324 -0.5056  0.5631  0.2150
 1391TIP3    H125664   4.862   1.123  16.256 -0.7550 -2.3854 -1.6385
 1391TIP3    H225665   4.859   1.089  16.403 -3.5302 -1.4129 -1.4423
 1392TIP3   OH225666   1.630   3.087   0.333 -0.1918 -0.3686  0.2745
 1392TIP3    H125667   1.624   3.006   0.383 -1.4305 -0.6184 -0.2519
 1392TIP3    H225668   1.690   3.067   0.261  0.9798 -0.2413  1.1984
 1393TIP3   OH225669   1.636   6.068   1.282 -0.3520  0.3323 -0.2133
 1393TIP3    H125670   1.590   6.001   1.332  1.8690 -0.3300  1.0080
 1393TIP3    H225671   1.614   6.151   1.326 -1.3440  0.1715 -0.3972
 1394TIP3   OH225672   4.904   2.336  15.277  0.1411  0.4368  0.1169
 1394TIP3    H125673   4.852   2.336  15.357 -0.1063  0.8502 -0.0460
 1394TIP3    H225674   4.934   2.426  15.266 -0.2764  0.5041 -0.5459
 1395TIP3   OH225675   1.243   3.595  17.214 -0.2413  0.6741 -0.4252
 1395TIP3    H125676   1.277   3.609  17.303  0.7873 -0.4555 -0.6293
 1395TIP3    H225677   1.298   3.525  17.178 -1.4457  0.2778 -1.5227
 1396TIP3   OH225678   3.938   1.678   6.213 -0.4673  0.4614  0.5716
 1396TIP3    H125679   3.853   1.690   6.257 -1.5711 -0.0277 -1.3398
 1396TIP3    H225680   3.964   1.766   6.188 -1.0006  0.4955  0.1245
 1397TIP3   OH225681   4.957   1.600  15.991  0.3124  0.5536  0.5085
 1397TIP3    H125682   4.953   1.591  15.896  1.3901  0.6883  0.4428
 1397TIP3    H225683   5.050   1.593  16.012 -0.1032 -2.0781  1.7900
 1398TIP3   OH225684   6.103   6.159   1.023 -0.1243 -0.0073 -0.0065
 1398TIP3    H125685   6.084   6.226   1.088 -0.3290 -1.2906  1.2812
 1398TIP3    H225686   6.169   6.104   1.064  0.2695 -0.4235 -1.1708
 1399TIP3   OH225687   1.844   1.721  12.679 -0.5014  0.1058  0.3010
 1399TIP3    H125688   1.775   1.777  12.644 -2.2031 -3.0893 -1.7602
 1399TIP3    H225689   1.825   1.714  12.772 -1.8158  0.8200  0.0964
 1400TIP3   OH225690   3.302   4.132   4.110  0.4024 -0.0823  0.1628
 1400TIP3    H125691   3.308   4.047   4.066 -0.7714 -0.1255  0.0768
 1400TIP3    H225692   3.237   4.119   4.179  1.0165  0.4532  0.8467
 1401TIP3   OH225693   2.856   3.675   5.130 -0.4274  0.2546  0.4786
 1401TIP3    H125694   2.849   3.767   5.153  1.0181  0.1469  1.3495
 1401TIP3    H225695   2.886   3.632   5.210  1.0710 -0.6460 -0.5461
 1402TIP3   OH225696   2.114   3.276   0.973  0.6557 -0.0941  0.3832
 1402TIP3    H125697   2.198   3.296   1.014  0.5419 -1.1747  1.1684
 1402TIP3    H225698   2.108   3.181   0.975 -1.2146  0.0187  1.6314
 1403TIP3   OH225699   3.247   3.911   3.952  0.3692 -0.4645 -0.4228
 1403TIP3    H125700   3.312   3.874   3.892 -0.2926 -0.9063 -0.8776
 1403TIP3    H225701   3.168   3.921   3.898  0.4278  1.2975 -0.2251
 1404TIP3   OH225702   6.649   5.120  11.321 -0.4831  0.0915 -0.3399
 1404TIP3    H125703   6.652   5.173  11.400 -2.9427 -0.3448  0.0629
 1404TIP3    H225704   6.656   5.030  11.352 -2.1502 -0.1207 -0.5315
 1405TIP3   OH225705   0.018   5.898   4.243  0.2157  0.4893 -0.2053
 1405TIP3    H125706   0.034   5.892   4.149  2.0848 -0.0300  0.1171
 1405TIP3    H225707   0.103   5.877   4.283 -0.7623 -0.1441  1.6084
 1406TIP3   OH225708   5.855   2.548  14.317 -0.1021  0.4287 -0.3118
 1406TIP3    H125709   5.855   2.536  14.222  0.3062 -0.4040 -0.2131
 1406TIP3    H225710   5.781   2.496  14.347  0.3308 -0.0650 -0.0885
 1407TIP3   OH225711   5.896   5.096  13.019  0.1306 -0.3306 -0.7926
 1407TIP3    H125712   5.806   5.122  13.039  0.5560 -1.0080  2.3201
 1407TIP3    H225713   5.912   5.021  13.077  1.4247 -2.7287 -4.1138
 1408TIP3   OH225714   5.268   1.136   2.663 -0.3005  0.2956 -0.1904
 1408TIP3    H125715   5.307   1.175   2.741  0.2290  0.5693 -0.5837
 1408TIP3    H225716   5.280   1.042   2.674 -1.6169  0.2309  0.7825
 1409TIP3   OH225717   2.854   5.262  13.209 -0.3130 -0.2586 -0.2421
 1409TIP3    H125718   2.880   5.328  13.273  0.1070 -1.5326  0.9123
 1409TIP3    H225719   2.923   5.264  13.143 -1.1639  1.6394 -1.1314
 1410TIP3   OH225720   2.610   6.355   0.954 -0.1190  1.1592  0.4851
 1410TIP3    H125721   2.652   6.310   1.028 -0.7158 -2.5292 -1.3236
 1410TIP3    H225722   2.675   6.420   0.927  2.5807 -1.3203  0.6726
 1411TIP3   OH225723   3.911   3.416   0.569  0.0803 -0.4464  0.1548
 1411TIP3    H125724   3.855   3.478   0.615  0.8220 -0.2721  0.8392
 1411TIP3    H225725   3.963   3.470   0.509 -1.0986 -0.7030 -1.1463
 1412TIP3   OH225726   0.016   4.956   6.062 -0.5119  0.3615 -0.3122
 1412TIP3    H125727   0.017   5.048   6.038 -0.1352  0.2796 -0.6146
 1412TIP3    H225728  -0.077   4.935   6.075 -0.4208  1.4045  2.2270
 1413TIP3   OH225729   6.098   4.165   0.989 -0.4133  0.8280  0.6089
 1413TIP3    H125730   6.019   4.115   0.973 -1.1390  2.2095 -0.2256
 1413TIP3    H225731   6.146   4.115   1.056  0.0347 -2.2134 -1.8725
 1414TIP3   OH225732   3.004   3.394   5.830  0.4033 -0.4749  0.1174
 1414TIP3    H125733   2.928   3.442   5.861  1.8367  2.1798 -0.3446
 1414TIP3    H225734   3.065   3.394   5.904  0.3701 -1.7143  0.1578
 1415TIP3   OH225735   6.015   0.999  16.911  0.0943  0.4588 -0.5057
 1415TIP3    H125736   6.042   0.988  16.820  0.6662 -0.0162 -0.2859
 1415TIP3    H225737   5.944   0.936  16.923  2.1377 -1.8088  0.2415
 1416TIP3   OH225738   5.014   5.539   4.975 -0.0964  0.2314 -0.3488
 1416TIP3    H125739   4.929   5.581   4.960 -0.6384 -1.0552 -0.9898
 1416TIP3    H225740   5.076   5.591   4.924 -0.7940  0.1348 -1.3062
 1417TIP3   OH225741   0.175   6.169   2.121 -0.4356 -0.4194  0.0676
 1417TIP3    H125742   0.185   6.256   2.161 -0.2159 -0.3958 -0.0388
 1417TIP3    H225743   0.161   6.187   2.028 -1.0877 -0.4684  0.1580
 1418TIP3   OH225744   6.130   0.790  10.861 -0.2053 -0.3247  0.0362
 1418TIP3    H125745   6.091   0.847  10.794  2.5063  1.2672 -0.2468
 1418TIP3    H225746   6.104   0.702  10.836  1.0612  0.2147 -3.3542
 1419TIP3   OH225747   1.726   4.301   5.223  0.4139 -0.2505  0.2813
 1419TIP3    H125748   1.781   4.222   5.228  1.4010  0.4180  0.0660
 1419TIP3    H225749   1.648   4.273   5.177  1.2501 -0.8378 -0.7943
 1420TIP3   OH225750   3.120   6.479   0.196 -0.3478  0.4167  0.0362
 1420TIP3    H125751   3.131   6.554   0.255 -0.7141  0.6447 -0.1786
 1420TIP3    H225752   3.174   6.501   0.120 -0.8180  0.6851 -0.2279
 1421TIP3   OH225753   2.061   0.028   5.252 -0.5166 -0.5817 -0.1709
 1421TIP3    H125754   2.040  -0.011   5.337  0.8650 -2.2947 -0.5724
 1421TIP3    H225755   2.151   0.060   5.262 -1.3995  1.9619 -0.0697
 1422TIP3   OH225756   6.353   4.270   0.407 -0.3322 -0.8381 -0.3835
 1422TIP3    H125757   6.357   4.202   0.341 -0.8086 -0.7857 -0.4692
 1422TIP3    H225758   6.260   4.278   0.428 -0.2314 -0.5400 -0.0383
 1423TIP3   OH225759   3.638   1.969  15.572 -0.3633 -0.1281 -0.4107
 1423TIP3    H125760   3.726   1.997  15.597 -0.7937  0.1424  0.8262
 1423TIP3    H225761   3.580   2.013  15.634 -1.6005  1.9414 -2.9378
 1424TIP3   OH225762   1.157   2.842  13.354  0.3277  1.2349 -0.0604
 1424TIP3    H125763   1.100   2.914  13.382 -3.7834 -1.9263  0.2357
 1424TIP3    H225764   1.126   2.820  13.266  2.2272  0.4161 -0.5583
 1425TIP3   OH225765   4.656   3.556  12.651  0.0152  0.0782  0.2804
 1425TIP3    H125766   4.659   3.484  12.713 -0.7822  0.0998  0.3497
 1425TIP3    H225767   4.581   3.609  12.679 -0.5370 -0.0805 -0.8779
 1426TIP3   OH225768   6.614   6.544  17.043 -0.4306  0.7371  0.1173
 1426TIP3    H125769   6.524   6.514  17.028 -0.7843  1.4997  0.6507
 1426TIP3    H225770   6.603   6.632  17.080  0.5216  0.5882  0.7439
 1427TIP3   OH225771   6.383   0.594  16.950 -0.7057  0.4608 -0.0257
 1427TIP3    H125772   6.408   0.612  16.860 -1.9554  1.1840 -0.2345
 1427TIP3    H225773   6.437   0.519  16.976  0.8431  1.2720 -0.8279
 1428TIP3   OH225774   2.496   2.966   0.293 -0.7377 -0.2520 -0.6072
 1428TIP3    H125775   2.424   2.995   0.349  0.7269  1.3114  0.4839
 1428TIP3    H225776   2.505   3.036   0.228  0.7007  0.2396  0.1019
 1429TIP3   OH225777   5.604   2.263   0.202 -0.2034  0.1146 -0.1156
 1429TIP3    H125778   5.679   2.283   0.257  0.1597 -0.1929 -0.4973
 1429TIP3    H225779   5.620   2.174   0.171 -1.5804 -0.6172  1.2104
 1430TIP3   OH225780   6.229   6.564  15.800 -0.1831 -0.3669 -0.0940
 1430TIP3    H125781   6.252   6.630  15.866 -0.2568 -0.7190  0.2891
 1430TIP3    H225782   6.176   6.612  15.736 -0.2103 -0.0449  0.1640
 1431TIP3   OH225783   3.630   6.250   1.933 -0.0609 -0.0313 -0.0664
 1431TIP3    H125784   3.650   6.234   1.841  1.7977  0.5282  0.2330
 1431TIP3    H225785   3.588   6.169   1.963 -2.0964  0.3467 -1.7699
 1432TIP3   OH225786   5.541   5.136   5.536 -0.2496  0.1172 -0.7367
 1432TIP3    H125787   5.592   5.163   5.612  2.7494 -0.5499 -2.4167
 1432TIP3    H225788   5.517   5.219   5.493 -0.8226  0.4499  0.2196
 1433TIP3   OH225789   1.288   3.521   0.206 -0.2241  0.4172  1.1200
 1433TIP3    H125790   1.345   3.587   0.165 -0.9546 -0.6027 -1.6099
 1433TIP3    H225791   1.349   3.455   0.240  0.2672 -0.7465 -1.9233
 1434TIP3   OH225792   0.042   5.806  13.313  0.4356  0.0667 -0.7258
 1434TIP3    H125793   0.126   5.774  13.348 -0.8386 -3.3248 -0.5839
 1434TIP3    H225794   0.009   5.866  13.380  2.7577  1.4968 -0.8121
 1435TIP3   OH225795   1.182   3.117  12.402  0.0424  0.6447 -0.6029
 1435TIP3    H125796   1.168   3.201  12.359  0.0582  0.9309 -0.0455
 1435TIP3    H225797   1.135   3.124  12.485 -1.2332 -0.4463 -1.2095
 1436TIP3   OH225798   4.869   6.150  12.518  0.2001 -0.1119 -0.2978
 1436TIP3    H125799   4.930   6.223  12.519 -1.0672  0.9734 -0.4911
 1436TIP3    H225800   4.886   6.102  12.599 -0.7306  1.8926  1.1128
 1437TIP3   OH225801   5.650   2.768  12.045 -0.1452  0.1756  0.7654
 1437TIP3    H125802   5.661   2.765  12.141  2.0052 -1.5310  0.5141
 1437TIP3    H225803   5.703   2.843  12.018 -0.9957  0.8429  0.9236
 1438TIP3   OH225804   4.777   5.613   2.366 -0.1597  0.4799  0.0111
 1438TIP3    H125805   4.742   5.526   2.348 -1.2267  0.8280  0.3470
 1438TIP3    H225806   4.707   5.673   2.340  1.2760  1.3354 -2.0331
 1439TIP3   OH225807   0.892   1.939   2.306  0.1947  0.4101  0.8783
 1439TIP3    H125808   0.964   2.000   2.294 -0.1645  1.2405  2.8139
 1439TIP3    H225809   0.933   1.857   2.334  0.5497  0.2290 -0.1652
 1440TIP3   OH225810   3.003   3.776   5.915  0.1476  0.6682  0.1510
 1440TIP3    H125811   2.925   3.831   5.926 -2.1212 -2.4679  0.3912
 1440TIP3    H225812   3.022   3.743   6.003  0.3794 -0.3754 -0.2837
 1441TIP3   OH225813   5.801   6.611  17.091  0.3427 -0.2064  0.6072
 1441TIP3    H125814   5.776   6.568  17.009  1.4034  1.3863 -0.5955
 1441TIP3    H225815   5.863   6.550  17.132  0.0830 -0.8528  0.0444
 1442TIP3   OH225816   1.320   2.095  11.465  0.7169 -0.3894  0.8443
 1442TIP3    H125817   1.350   2.104  11.374  0.5425  0.5726  0.8787
 1442TIP3    H225818   1.288   2.182  11.489 -0.6981 -1.0158  1.3148
 1443TIP3   OH225819   1.682   1.832   4.925 -0.3407  0.6672  0.4196
 1443TIP3    H125820   1.642   1.812   4.841 -0.6132  0.3623  0.6223
 1443TIP3    H225821   1.611   1.869   4.978 -0.1907  0.7818  0.5415
 1444TIP3   OH225822   5.303   6.177   0.067 -0.5199  0.0908  0.8644
 1444TIP3    H125823   5.310   6.262   0.023 -0.2643 -1.4522 -2.1723
 1444TIP3    H225824   5.358   6.118   0.015  0.5325 -1.6294  3.8046
 1445TIP3   OH225825   3.701   4.425  10.811 -0.8438 -0.0413  0.8955
 1445TIP3    H125826   3.754   4.428  10.731 -2.1133  1.4373  0.0775
 1445TIP3    H225827   3.756   4.462  10.879 -0.5792  0.8521  0.1991
 1446TIP3   OH225828   3.000   5.322   3.176 -0.2857 -0.0792 -0.0393
 1446TIP3    H125829   3.011   5.391   3.111 -1.1918 -0.4108 -0.5521
 1446TIP3    H225830   3.023   5.241   3.130 -0.2554 -0.2350  0.2492
 1447TIP3   OH225831   5.935   2.616   2.039  0.5751 -0.0320  0.8928
 1447TIP3    H125832   5.881   2.564   1.979 -0.1080 -0.8031  2.1594
 1447TIP3    H225833   5.970   2.687   1.984  0.6135 -1.1692 -0.5960
 1448TIP3   OH225834   4.991   5.659   3.119 -0.3062  0.7188  0.2682
 1448TIP3    H125835   4.915   5.607   3.092 -0.4627  0.4970  1.1356
 1448TIP3    H225836   4.969   5.748   3.094 -1.5435  0.9035  1.9754
 1449TIP3   OH225837   0.213   3.189   1.023 -0.3468 -0.1222 -0.2521
 1449TIP3    H125838   0.259   3.119   1.070 -0.9334 -1.2089 -1.2859
 1449TIP3    H225839   0.266   3.204   0.945  0.2654  1.2226  0.4084
 1450TIP3   OH225840   0.460   6.690   1.022 -0.7885  0.2591 -0.6971
 1450TIP3    H125841   0.512   6.633   0.965  0.5438  0.5712  0.1909
 1450TIP3    H225842   0.492   6.672   1.110 -1.3603  1.3248 -0.2578
 1451TIP3   OH225843   3.845   3.821   0.257  0.0893  0.0693  0.5935
 1451TIP3    H125844   3.870   3.730   0.275 -0.0567  0.0086  0.4899
 1451TIP3    H225845   3.761   3.832   0.301 -0.1067  0.0192  0.2340
 1452TIP3   OH225846   1.151   3.336   1.824  0.0481 -0.5034  0.0463
 1452TIP3    H125847   1.092   3.398   1.865  1.2721 -0.4850  1.8411
 1452TIP3    H225848   1.190   3.287   1.897  3.0929  0.2777 -0.9568
 1453TIP3   OH225849   5.636   2.203  11.596 -0.4557 -0.1671 -0.1010
 1453TIP3    H125850   5.601   2.224  11.510  2.7648  2.3071 -0.9159
 1453TIP3    H225851   5.692   2.126  11.581  1.4675  1.3072 -0.5953
 1454TIP3   OH225852   2.909   3.198  12.202  0.1940 -0.5788  0.6555
 1454TIP3    H125853   2.873   3.242  12.279  0.2415 -2.4215  1.7737
 1454TIP3    H225854   2.985   3.150  12.236  1.2583 -0.0233 -0.8871
 1455TIP3   OH225855   2.712   0.309   3.542 -0.5304 -0.0789 -0.5323
 1455TIP3    H125856   2.736   0.401   3.525 -2.6094  0.5359 -0.2218
 1455TIP3    H225857   2.748   0.292   3.630  0.5246  0.1781 -0.8995
 1456TIP3   OH225858   0.486   4.617  12.538 -0.1208 -0.1834 -0.2686
 1456TIP3    H125859   0.538   4.677  12.483 -1.2415  0.1396 -0.9893
 1456TIP3    H225860   0.501   4.648  12.627  3.6043 -2.1403 -0.0936
 1457TIP3   OH225861   4.176   3.258  11.394 -0.4933  0.0885  0.0576
 1457TIP3    H125862   4.224   3.341  11.391 -2.2174  1.0607 -1.1319
 1457TIP3    H225863   4.235   3.195  11.352  0.6610  0.7915  0.6074
 1458TIP3   OH225864   5.021   4.384  13.304  0.1422 -0.3953 -1.0214
 1458TIP3    H125865   4.956   4.453  13.321  0.8615  0.5537 -2.1118
 1458TIP3    H225866   4.970   4.303  13.310 -0.8185  0.2392 -0.2435
 1459TIP3   OH225867   5.243   5.288  14.359  0.4184  0.0083  0.0430
 1459TIP3    H125868   5.261   5.202  14.320 -0.6003 -0.0718 -0.2840
 1459TIP3    H225869   5.262   5.350  14.289 -1.6857 -0.1537 -0.7027
 1460TIP3   OH225870   2.232   5.791   7.081  0.2006 -0.0571 -0.1604
 1460TIP3    H125871   2.157   5.804   7.022 -0.7547 -0.7521  0.8952
 1460TIP3    H225872   2.283   5.721   7.039 -1.3384 -1.6963  0.6513
 1461TIP3   OH225873   1.840   0.870  12.168  0.2815 -0.7734 -0.0060
 1461TIP3    H125874   1.757   0.872  12.120 -0.1390  0.3724  0.7533
 1461TIP3    H225875   1.842   0.783  12.209 -0.3419 -0.9645 -0.3674
 1462TIP3   OH225876   6.343   6.805  12.511 -0.0513 -0.0415 -0.1482
 1462TIP3    H125877   6.340   6.770  12.422  2.3803 -2.8812  0.8213
 1462TIP3    H225878   6.264   6.771  12.553 -1.6808  2.0334 -1.3830
 1463TIP3   OH225879   3.158   3.365  12.483  0.2187  0.2894  0.3107
 1463TIP3    H125880   3.241   3.394  12.446 -0.5350  1.7290 -0.3090
 1463TIP3    H225881   3.172   3.274  12.507  1.2546 -0.1706 -1.9901
 1464TIP3   OH225882   1.392   6.026  17.151  0.3713  0.2488  0.0806
 1464TIP3    H125883   1.463   6.074  17.110  0.6198  1.1666  1.5768
 1464TIP3    H225884   1.348   5.982  17.078  1.8460  0.4747 -0.9588
 1465TIP3   OH225885   6.768   2.463  14.288 -0.7630  0.5772  0.3875
 1465TIP3    H125886   6.776   2.367  14.293  1.1328  0.7135  0.6257
 1465TIP3    H225887   6.803   2.493  14.372 -0.2001  1.5225 -0.1795
 1466TIP3   OH225888   6.644   1.650  10.758  0.0072 -0.7220  0.1032
 1466TIP3    H125889   6.722   1.621  10.805  1.8210  3.1857 -0.2721
 1466TIP3    H225890   6.639   1.591  10.682  1.4936 -2.2096  1.1245
 1467TIP3   OH225891   0.799   2.055   3.558  0.2556 -0.0186 -0.1168
 1467TIP3    H125892   0.766   1.969   3.584 -0.2656 -0.7487 -2.9470
 1467TIP3    H225893   0.876   2.069   3.612 -0.1385 -1.9109  0.9688
 1468TIP3   OH225894   5.639   1.236  17.259  1.0412  0.6191 -0.3225
 1468TIP3    H125895   5.628   1.309  17.321  2.1340 -0.8685  1.6772
 1468TIP3    H225896   5.553   1.194  17.257  1.4480 -0.4021  1.6463
 1469TIP3   OH225897   2.983   2.908  12.560  0.2944  0.2342  0.1166
 1469TIP3    H125898   2.915   2.858  12.606  1.2336 -0.5995  0.5960
 1469TIP3    H225899   2.988   2.991  12.607 -0.1930  0.1938  0.2438
 1470TIP3   OH225900   6.431   5.235   1.379  0.0183 -0.2120  0.1519
 1470TIP3    H125901   6.441   5.330   1.369  0.7510 -0.2189  0.7865
 1470TIP3    H225902   6.512   5.199   1.344  2.5731 -0.2624  5.6648
 1471TIP3   OH225903   4.392   3.443   5.725  0.3976  0.4313 -0.1755
 1471TIP3    H125904   4.312   3.491   5.703  0.3155 -0.1983 -1.3020
 1471TIP3    H225905   4.372   3.399   5.807 -0.0500  1.0974  0.0806
 1472TIP3   OH225906   6.196   1.285  15.134  0.0748 -0.3126  0.0868
 1472TIP3    H125907   6.190   1.232  15.054  0.0130 -0.9341  0.4939
 1472TIP3    H225908   6.290   1.297  15.147  0.1574 -1.5373  0.7604
 1473TIP3   OH225909   4.315   2.576   2.146  0.1510  0.0439  0.2912
 1473TIP3    H125910   4.237   2.524   2.126 -0.0225 -0.3170  1.8456
 1473TIP3    H225911   4.309   2.652   2.087 -2.8502  1.4552  2.2724
 1474TIP3   OH225912   0.819   6.214   2.188 -0.3710 -0.6040 -0.3549
 1474TIP3    H125913   0.730   6.192   2.162 -0.5061 -0.1349 -0.2965
 1474TIP3    H225914   0.842   6.289   2.134  0.4565 -1.5109 -1.2908
 1475TIP3   OH225915   5.986   3.490   2.310  0.5532 -0.5258 -0.7373
 1475TIP3    H125916   5.955   3.530   2.391  0.5397 -1.0744 -0.4742
 1475TIP3    H225917   6.063   3.542   2.285  1.2681 -1.1006  0.2533
 1476TIP3   OH225918   1.432   5.366   2.681  0.2297 -0.3319 -0.3819
 1476TIP3    H125919   1.496   5.296   2.667  2.9640  1.7712  1.0770
 1476TIP3    H225920   1.395   5.347   2.767  1.7617  0.5254  0.5044
 1477TIP3   OH225921   2.134   4.751  16.805  0.3851  0.4525 -0.1125
 1477TIP3    H125922   2.066   4.723  16.865 -0.0534  0.9966 -0.3456
 1477TIP3    H225923   2.201   4.791  16.861  0.2388  0.4456  0.0676
 1478TIP3   OH225924   4.762   1.703   0.036  0.0549  0.8678 -0.1544
 1478TIP3    H125925   4.715   1.786   0.032 -0.9036  0.5296  2.7192
 1478TIP3    H225926   4.797   1.699   0.125 -0.6805 -2.1794  0.0857
 1479TIP3   OH225927   5.297   2.168   4.002 -0.3703 -0.1527  0.4757
 1479TIP3    H125928   5.268   2.246   3.954  2.2292  1.1765  0.9726
 1479TIP3    H225929   5.309   2.102   3.933  0.4833  0.8650 -0.3866
 1480TIP3   OH225930   3.806   3.467   1.190 -0.1223 -0.0550  0.0177
 1480TIP3    H125931   3.784   3.377   1.214  0.3202 -0.7647 -2.1610
 1480TIP3    H225932   3.881   3.488   1.245 -0.1241 -1.0730  0.4335
 1481TIP3   OH225933   1.131   5.409   4.406  0.2263  0.6061 -0.0034
 1481TIP3    H125934   1.211   5.449   4.439  0.2582  0.8080 -0.3263
 1481TIP3    H225935   1.144   5.402   4.312  0.3413 -0.4398  0.0866
 1482TIP3   OH225936   5.757   0.235  12.923  0.1916 -0.1733 -0.2448
 1482TIP3    H125937   5.830   0.173  12.933 -0.9681 -1.8195 -1.5930
 1482TIP3    H225938   5.733   0.228  12.830 -0.7878  1.3610 -0.1124
 1483TIP3   OH225939   5.568   2.125  13.879 -0.2514  0.0771  0.4250
 1483TIP3    H125940   5.473   2.110  13.880 -0.0906 -1.0965 -0.9299
 1483TIP3    H225941   5.604   2.046  13.839  1.1599  1.2747 -0.7080
 1484TIP3   OH225942   3.390   4.952  15.070 -0.2963 -0.3884  0.5289
 1484TIP3    H125943   3.463   4.959  15.132  0.2060 -0.5706 -0.0319
 1484TIP3    H225944   3.369   4.858  15.068  0.0274 -0.4559  0.0482
 1485TIP3   OH225945   0.459   4.996  14.845  0.1204 -0.1132  0.0036
 1485TIP3    H125946   0.409   5.030  14.771 -1.1493  1.2638  1.4471
 1485TIP3    H225947   0.392   4.968  14.908  1.1730  0.0880  1.2336
 1486TIP3   OH225948   1.338   6.617  15.469 -0.2179  0.2671 -0.1430
 1486TIP3    H125949   1.252   6.656  15.453 -0.3680 -0.7946 -1.9720
 1486TIP3    H225950   1.322   6.548  15.533 -0.6904  0.2567 -0.2698
 1487TIP3   OH225951   5.167   5.980   4.258  0.1493  0.0226  0.1296
 1487TIP3    H125952   5.096   6.007   4.317  1.8430  0.1501  2.2026
 1487TIP3    H225953   5.143   5.891   4.231 -0.7824  0.0495  0.8235
 1488TIP3   OH225954   4.642   5.387  16.632  0.0015  0.1570 -0.5270
 1488TIP3    H125955   4.611   5.312  16.582 -1.8435  0.2071  0.4818
 1488TIP3    H225956   4.565   5.416  16.681  1.4073  0.9433  1.2804
 1489TIP3   OH225957   4.594   2.579  11.720 -0.3832  0.0860  0.3838
 1489TIP3    H125958   4.683   2.563  11.752 -0.0708  3.0708  1.2142
 1489TIP3    H225959   4.607   2.618  11.633 -0.8690  0.8770  0.6656
 1490TIP3   OH225960   2.981   5.880   2.924 -0.0584  0.8546  0.0250
 1490TIP3    H125961   3.036   5.883   2.846 -0.5030  0.1535 -0.3200
 1490TIP3    H225962   2.969   5.972   2.949 -1.0814  1.1720 -1.5579
 1491TIP3   OH225963   6.368   5.712   0.182 -0.2847  0.4018 -0.5828
 1491TIP3    H125964   6.328   5.687   0.098 -0.2918 -2.3932  0.2022
 1491TIP3    H225965   6.427   5.640   0.202 -1.5260  0.1991  2.6543
 1492TIP3   OH225966   0.115   4.912   1.095  0.1184 -0.1470  0.1825
 1492TIP3    H125967   0.065   4.895   1.015  0.3189  1.1028 -0.2260
 1492TIP3    H225968   0.205   4.921   1.066  0.1887  0.3403  0.5343
 1493TIP3   OH225969   5.645   6.347  17.138  0.1852  0.5106 -0.7165
 1493TIP3    H125970   5.600   6.410  17.082 -0.2730 -0.5111 -1.5179
 1493TIP3    H225971   5.729   6.332  17.094  0.5039  0.9374 -0.2589
 1494TIP3   OH225972   2.631   4.748  15.013  0.1705 -0.7409 -0.1056
 1494TIP3    H125973   2.698   4.681  15.024  1.6969  0.9311  0.9742
 1494TIP3    H225974   2.676   4.822  14.973 -1.7466 -0.7264 -2.3602
 1495TIP3   OH225975   6.256   1.914  11.045 -0.3385  0.0572 -0.0752
 1495TIP3    H125976   6.328   1.941  11.102  0.5591 -2.0692 -0.1205
 1495TIP3    H225977   6.288   1.931  10.956  0.5480 -1.7696 -0.1395
 1496TIP3   OH225978   0.898   5.003   3.282  0.0103 -0.0156 -0.0386
 1496TIP3    H125979   0.851   5.064   3.225 -1.0352  0.1756  1.0167
 1496TIP3    H225980   0.832   4.973   3.345  1.0599 -0.5077  0.8408
 1497TIP3   OH225981   3.928   4.509  12.719  0.0699  0.3614  0.2170
 1497TIP3    H125982   3.833   4.504  12.727 -0.0202  1.6602  0.1300
 1497TIP3    H225983   3.955   4.421  12.694 -1.0735 -0.1061  0.5952
 1498TIP3   OH225984   1.363   5.111  17.199  0.2948 -0.0824 -0.0124
 1498TIP3    H125985   1.323   5.024  17.202 -1.5693  0.6704 -1.8356
 1498TIP3    H225986   1.437   5.100  17.139  0.2969 -0.5042  0.0641
 1499TIP3   OH225987   1.677   1.306  14.389  0.1615  0.2567 -0.2066
 1499TIP3    H125988   1.745   1.373  14.389  1.1146 -0.7094  0.3746
 1499TIP3    H225989   1.634   1.318  14.304  2.7066 -0.7755 -1.7055
 1500TIP3   OH225990   0.187   0.274   4.545  0.0455  0.2801 -0.3545
 1500TIP3    H125991   0.101   0.236   4.525  0.0238 -0.6394  1.4043
 1500TIP3    H225992   0.218   0.310   4.461 -1.5299 -0.4249 -1.2488
 1501TIP3   OH225993   2.625   4.073  12.115 -0.0989 -0.0897  0.2776
 1501TIP3    H125994   2.696   4.010  12.128 -0.6068 -1.0348 -1.4233
 1501TIP3    H225995   2.552   4.022  12.081 -0.2843  1.5156 -1.8490
 1502TIP3   OH225996   6.637   6.256  12.343  0.3530  0.5255 -0.5325
 1502TIP3    H125997   6.677   6.169  12.353  1.6929  1.1713 -0.0946
 1502TIP3    H225998   6.636   6.271  12.248 -1.4830 -0.6819 -0.7144
 1503TIP3   OH225999   5.432   2.500  14.330 -0.5806  0.1827  0.0743
 1503TIP3    H126000   5.514   2.485  14.282  0.1227 -0.9176  1.5725
 1503TIP3    H226001   5.400   2.412  14.349 -1.8200  0.6174  0.0205
 1504TIP3   OH226002   1.672   5.694  12.328 -0.3883  0.5325  0.0337
 1504TIP3    H126003   1.590   5.706  12.279 -1.7821 -0.4364  2.0232
 1504TIP3    H226004   1.735   5.666  12.263 -1.6511  1.3089 -1.5571
 1505TIP3   OH226005   3.017   4.965  11.374 -0.5455 -0.5248  0.0196
 1505TIP3    H126006   3.098   4.989  11.421 -2.1315 -1.9005  3.6361
 1505TIP3    H226007   2.950   5.021  11.412 -1.6817 -0.7666 -1.5765
 1506TIP3   OH226008   6.151   5.160  11.078  0.2571  0.0324 -0.0006
 1506TIP3    H126009   6.200   5.081  11.101  0.2654 -0.1344 -0.5886
 1506TIP3    H226010   6.070   5.154  11.128  0.1548 -0.4600 -0.2291
 1507TIP3   OH226011   3.238   5.270  15.817 -0.6765 -0.5900  0.0864
 1507TIP3    H126012   3.230   5.351  15.869  0.4266 -0.5083  0.1506
 1507TIP3    H226013   3.323   5.234  15.842 -0.8467 -1.4005 -0.4768
 1508TIP3   OH226014   0.918   5.349  16.190 -0.3022 -0.0992  0.5162
 1508TIP3    H126015   0.920   5.421  16.254 -1.9544 -2.0019  2.8137
 1508TIP3    H226016   0.982   5.287  16.223  0.2468 -0.2415 -0.7987
 1509TIP3   OH226017   1.155   4.408   3.547  0.6669  0.1512 -0.1468
 1509TIP3    H126018   1.215   4.368   3.483 -0.3565 -0.3689 -0.8037
 1509TIP3    H226019   1.101   4.468   3.495 -1.8369 -2.1018 -0.2628
 1510TIP3   OH226020   4.566   5.759  12.267  0.5308  0.3938  0.6092
 1510TIP3    H126021   4.559   5.852  12.287 -2.0249  0.3939 -0.0677
 1510TIP3    H226022   4.541   5.715  12.348  0.3200  0.3290  0.5114
 1511TIP3   OH226023   0.586   4.439   4.836  0.5676  0.0462 -0.4016
 1511TIP3    H126024   0.510   4.382   4.828  0.0922  0.3883  1.3971
 1511TIP3    H226025   0.661   4.380   4.837  0.1811 -0.4456 -0.2210
 1512TIP3   OH226026   1.382   4.737   5.037 -0.1717  0.6143  0.0259
 1512TIP3    H126027   1.422   4.664   5.083  0.1520  0.4766 -0.4675
 1512TIP3    H226028   1.351   4.699   4.955 -1.6008  0.6416  0.5358
 1513TIP3   OH226029   1.163   2.865  16.397 -0.5672 -0.2824  0.0024
 1513TIP3    H126030   1.112   2.858  16.316  1.6021 -0.4711 -1.3700
 1513TIP3    H226031   1.145   2.782  16.442 -2.1512  0.0132 -0.0389
 1514TIP3   OH226032   5.612   1.809  10.137  0.0490 -0.0840  0.1567
 1514TIP3    H126033   5.587   1.727  10.179 -2.3509  0.1567 -0.7335
 1514TIP3    H226034   5.548   1.873  10.168  2.2864  1.6560  1.3723
 1515TIP3   OH226035   3.231   2.335  14.530 -0.0050 -0.1156  0.2159
 1515TIP3    H126036   3.174   2.289  14.469  1.2127 -1.4003  0.0385
 1515TIP3    H226037   3.239   2.277  14.605  0.8966  0.1507  0.3378
 1516TIP3   OH226038   5.913   1.296  13.118 -0.1125  0.0343  0.4058
 1516TIP3    H126039   5.841   1.301  13.180 -2.0178  0.0044 -1.7615
 1516TIP3    H226040   5.907   1.209  13.080  0.2621  0.4955 -0.7345
 1517TIP3   OH226041   3.316   1.299   4.791 -1.0214  0.2907  0.2392
 1517TIP3    H126042   3.312   1.274   4.699  2.0987  1.5151 -0.2837
 1517TIP3    H226043   3.318   1.215   4.838 -3.2399 -0.3413 -0.7267
 1518TIP3   OH226044   3.130   6.079  13.461 -0.4916  0.0042  0.6399
 1518TIP3    H126045   3.136   6.087  13.366 -0.4803  2.1854  0.7953
 1518TIP3    H226046   3.217   6.104  13.492  0.2281 -2.9201  1.1493
 1519TIP3   OH226047   5.543   1.332  16.545  0.2617  0.0554 -0.9487
 1519TIP3    H126048   5.475   1.318  16.479  0.4413 -0.8450 -0.9486
 1519TIP3    H226049   5.601   1.256  16.537  1.5913  1.0806 -1.3285
 1520TIP3   OH226050   6.481   2.515   0.392  0.7178  0.1628  0.0935
 1520TIP3    H126051   6.481   2.450   0.462  2.2408 -0.0657 -0.1109
 1520TIP3    H226052   6.453   2.596   0.435 -1.0081 -0.5765  0.3831
 1521TIP3   OH226053   3.363   6.042   6.342 -0.0416 -0.7213  0.1749
 1521TIP3    H126054   3.437   6.088   6.302 -0.8096  0.7663  0.3937
 1521TIP3    H226055   3.286   6.085   6.304 -0.7944 -2.5742 -0.4195
 1522TIP3   OH226056   3.103   2.089  11.749 -0.2709  0.4247  0.1676
 1522TIP3    H126057   3.045   2.034  11.802  1.0030 -2.7588 -1.6047
 1522TIP3    H226058   3.065   2.088  11.662  0.8494  0.7481 -0.3325
 1523TIP3   OH226059   1.970   5.476   1.738 -0.2785 -0.0681  0.3287
 1523TIP3    H126060   1.899   5.540   1.746  0.6441  0.8932  0.9446
 1523TIP3    H226061   2.027   5.511   1.670 -0.0169 -0.4900  0.3261
 1524TIP3   OH226062   6.759   5.684   0.354  0.4829 -0.3212 -0.3898
 1524TIP3    H126063   6.841   5.658   0.395  0.2195 -1.8753 -0.8249
 1524TIP3    H226064   6.691   5.660   0.418  0.4643  2.9102  0.9106
 1525TIP3   OH226065   0.139   3.586   1.617  0.0771  0.4247  0.3041
 1525TIP3    H126066   0.051   3.557   1.636  0.6991 -1.4271  0.4033
 1525TIP3    H226067   0.137   3.610   1.524 -0.0945 -1.2973 -0.1511
 1526TIP3   OH226068   1.298   5.798  12.069 -0.0827  0.3284  0.1320
 1526TIP3    H126069   1.347   5.721  12.098 -0.9438 -0.4565 -0.4930
 1526TIP3    H226070   1.316   5.864  12.136 -0.1246 -0.7170  1.1948
 1527TIP3   OH226071   5.794   1.622  17.165  0.4778  0.7240 -0.0925
 1527TIP3    H126072   5.866   1.568  17.134 -1.4527 -0.3629 -2.7856
 1527TIP3    H226073   5.787   1.693  17.102 -1.9164 -0.1507 -0.8786
 1528TIP3   OH226074   1.550   1.964  13.635 -0.0787  0.1430  0.2828
 1528TIP3    H126075   1.590   1.935  13.552 -0.2782 -0.5572  0.4253
 1528TIP3    H226076   1.477   2.019  13.609  0.0013  0.1132 -0.0069
 1529TIP3   OH226077   2.850   4.866   0.204 -0.6109  0.1905  0.2744
 1529TIP3    H126078   2.890   4.791   0.249 -0.6389 -0.5468 -0.9144
 1529TIP3    H226079   2.759   4.840   0.191  0.2505 -1.2350 -3.5949
 1530TIP3   OH226080   2.293   1.742   3.382  0.0775  0.1023 -0.0387
 1530TIP3    H126081   2.301   1.834   3.356  0.2868  0.1586  0.2231
 1530TIP3    H226082   2.256   1.746   3.470 -0.1847 -0.0728 -0.1433
 1531TIP3   OH226083   3.969   2.949  10.294 -1.0055 -0.6056  0.3760
 1531TIP3    H126084   3.909   2.884  10.331 -1.8095  0.1455  0.4034
 1531TIP3    H226085   4.009   2.904  10.219 -2.1395 -0.8726 -0.0821
 1532TIP3   OH226086   5.852   6.042   5.125  0.7901  0.4295 -0.0674
 1532TIP3    H126087   5.835   5.957   5.167  1.4711 -0.6237 -1.8507
 1532TIP3    H226088   5.899   6.092   5.192  0.5066 -0.6466  0.9691
 1533TIP3   OH226089   5.787   4.931  17.141 -0.4516  0.3761 -0.1431
 1533TIP3    H126090   5.835   4.884  17.073  2.2679  1.3696  1.0111
 1533TIP3    H226091   5.785   5.022  17.111 -1.1373  0.4437  0.0894
 1534TIP3   OH226092   6.774   2.573  13.158  0.0467  0.9374 -0.0790
 1534TIP3    H126093   6.755   2.590  13.065  0.1558  0.4714 -0.1916
 1534TIP3    H226094   6.783   2.478  13.163 -0.0466  0.9555  0.4302
 1535TIP3   OH226095   4.043   5.438  13.712 -0.0207 -0.6156 -0.2025
 1535TIP3    H126096   3.999   5.506  13.763 -0.5722  1.4258 -3.2877
 1535TIP3    H226097   3.974   5.400  13.658  1.0612 -0.7030 -1.5646
 1536TIP3   OH226098   6.762   1.893  13.064  0.0655  0.3081  0.2357
 1536TIP3    H126099   6.787   1.944  12.987  2.1242 -0.7652  0.1639
 1536TIP3    H226100   6.841   1.844  13.087 -1.4240 -1.6823  1.2224
 1537TIP3   OH226101   3.034   4.084  14.046 -0.1466  0.0295  0.1220
 1537TIP3    H126102   3.050   4.138  13.968  1.0498  0.2507  0.5162
 1537TIP3    H226103   3.119   4.046  14.067 -0.4701 -0.0569  1.3056
 1538TIP3   OH226104   1.338   5.566   4.509  0.4355 -0.0670  0.3644
 1538TIP3    H126105   1.384   5.502   4.565  1.7876 -1.1888 -1.9562
 1538TIP3    H226106   1.408   5.616   4.468 -0.5638  1.0645  0.0196
 1539TIP3   OH226107   5.596   2.743   4.189 -0.2199  0.5294 -0.0592
 1539TIP3    H126108   5.561   2.823   4.150 -1.2760  0.0419 -0.1256
 1539TIP3    H226109   5.581   2.675   4.124  4.4785  0.9795 -1.8383
 1540TIP3   OH226110   5.213   6.550  14.017  0.2353  0.4381 -0.0050
 1540TIP3    H126111   5.199   6.455  14.024  0.5780  0.4818  1.4065
 1540TIP3    H226112   5.140   6.581  13.963  0.3867 -0.6863 -0.8856
 1541TIP3   OH226113   4.245   0.198  15.051  0.8447 -0.5066 -0.0604
 1541TIP3    H126114   4.298   0.170  14.976  0.1733 -1.2787 -0.2511
 1541TIP3    H226115   4.155   0.175  15.027  0.4155  0.7925  0.2728
 1542TIP3   OH226116   3.324   4.029  14.092 -0.0993  0.1496 -0.0406
 1542TIP3    H126117   3.379   4.106  14.108 -2.9494  2.3875 -0.7468
 1542TIP3    H226118   3.367   3.984  14.019  1.4973  1.1471  0.2635
 1543TIP3   OH226119   3.431   3.209   3.308 -0.0129  0.5250  0.0602
 1543TIP3    H126120   3.512   3.163   3.328 -0.2639 -0.7396 -1.6665
 1543TIP3    H226121   3.417   3.268   3.382  3.1160  1.6495 -0.1647
 1544TIP3   OH226122   3.698   4.847   6.612 -0.0246  0.0847 -0.2439
 1544TIP3    H126123   3.773   4.899   6.583  0.4314 -1.2055 -1.4645
 1544TIP3    H226124   3.630   4.911   6.631  0.3378  1.1118 -2.2221
 1545TIP3   OH226125   4.562   0.361   1.415  0.1253  0.1961 -0.5114
 1545TIP3    H126126   4.609   0.429   1.464 -0.0041 -1.5109  2.1081
 1545TIP3    H226127   4.616   0.283   1.425 -1.9058 -1.1579  0.3128
 1546TIP3   OH226128   5.051   3.578   3.558 -0.7922  0.6927  0.0282
 1546TIP3    H126129   5.125   3.517   3.553 -0.9834  0.5109 -0.6700
 1546TIP3    H226130   5.026   3.578   3.650 -1.8750 -1.5843 -0.2289
 1547TIP3   OH226131   6.645   6.310   2.163  0.5122  0.0033  0.1776
 1547TIP3    H126132   6.690   6.239   2.118 -1.0967 -0.2559 -1.0345
 1547TIP3    H226133   6.571   6.332   2.107  0.7982  2.4250  0.6929
 1548TIP3   OH226134   6.164   2.544  15.185 -0.1986  0.2447  0.3493
 1548TIP3    H126135   6.093   2.546  15.250 -0.2825  1.4970  0.2333
 1548TIP3    H226136   6.240   2.579  15.231  0.1706 -0.4377  0.2625
 1549TIP3   OH226137   2.502   6.026  10.871  0.4348 -0.4470 -0.7066
 1549TIP3    H126138   2.518   5.933  10.884 -0.5995 -0.6408 -0.7371
 1549TIP3    H226139   2.412   6.031  10.839 -0.5439  0.7442  2.0605
 1550TIP3   OH226140   5.346   1.940   5.076  0.0777  0.0906 -0.6955
 1550TIP3    H126141   5.385   2.009   5.129 -0.4419  0.5932 -0.9537
 1550TIP3    H226142   5.260   1.925   5.116  0.5779 -1.0933 -0.0540
 1551TIP3   OH226143   1.524   1.523  15.123 -0.2294 -0.1601 -0.5896
 1551TIP3    H126144   1.593   1.539  15.058  0.5731  0.1318  0.3169
 1551TIP3    H226145   1.548   1.440  15.163  0.2283  0.4786  0.4972
 1552TIP3   OH226146   1.536   0.045  16.253 -0.0708 -0.0488 -0.6336
 1552TIP3    H126147   1.511   0.046  16.346 -1.2690  0.3218 -0.9450
 1552TIP3    H226148   1.624   0.007  16.252 -0.2749 -0.5912  0.6070
 1553TIP3   OH226149   4.644   1.982  15.878 -0.1704  0.0571  0.2276
 1553TIP3    H126150   4.621   1.897  15.839  2.0188  0.9567 -3.2184
 1553TIP3    H226151   4.711   1.961  15.943 -0.7392 -1.0034  0.4929
 1554TIP3   OH226152   3.285   5.775  17.096 -0.4979  0.0981 -0.2777
 1554TIP3    H126153   3.213   5.723  17.059  0.3979 -1.5512  0.2012
 1554TIP3    H226154   3.339   5.798  17.020 -0.0922 -1.0014 -0.3418
 1555TIP3   OH226155   5.564   1.200  14.888 -0.3002 -0.1243  0.0732
 1555TIP3    H126156   5.599   1.112  14.894 -1.4585 -0.5080  1.2865
 1555TIP3    H226157   5.560   1.231  14.978 -1.4113  0.5625 -0.2049
 1556TIP3   OH226158   3.232   2.626   3.587  0.4245 -0.3140 -0.0939
 1556TIP3    H126159   3.269   2.614   3.500  1.7390  1.5832  0.1748
 1556TIP3    H226160   3.239   2.720   3.604 -2.5051 -0.2254  0.8855
 1557TIP3   OH226161   5.992   3.942  15.794  0.1026  0.6204  0.3542
 1557TIP3    H126162   5.935   4.017  15.780 -2.1639 -1.1747 -0.2588
 1557TIP3    H226163   5.989   3.894  15.712 -0.2241 -1.3016  1.4750
 1558TIP3   OH226164   5.373   1.132   2.138 -0.0344 -0.1795 -0.1574
 1558TIP3    H126165   5.380   1.225   2.119 -0.2819 -0.2931 -0.8172
 1558TIP3    H226166   5.285   1.121   2.173 -0.4171 -0.3437 -1.1511
 1559TIP3   OH226167   2.565   0.201   4.616 -0.0480 -0.3569 -0.0852
 1559TIP3    H126168   2.524   0.123   4.653 -0.2938 -1.1270 -1.9327
 1559TIP3    H226169   2.653   0.202   4.653 -1.7262  1.5050  4.2042
 1560TIP3   OH226170   5.358   1.242   4.000 -0.1106  0.2870 -0.4787
 1560TIP3    H126171   5.415   1.301   3.951 -0.7409  1.8227  0.5912
 1560TIP3    H226172   5.295   1.300   4.043 -1.8750 -1.3160 -0.8678
 1561TIP3   OH226173   0.619   0.284   1.045  0.3562 -0.1931 -0.2383
 1561TIP3    H126174   0.675   0.249   0.976  0.6177 -0.2689  0.0126
 1561TIP3    H226175   0.654   0.247   1.126 -0.2569 -0.4997 -0.1070
 1562TIP3   OH226176   2.038   4.060   3.924  0.1919 -0.1673  0.1198
 1562TIP3    H126177   2.106   4.035   3.861 -0.2452  1.0458 -0.8585
 1562TIP3    H226178   1.968   4.097   3.870 -0.8970 -0.6267  1.1883
 1563TIP3   OH226179   1.718   0.376  17.179 -0.1055 -0.0525 -0.1916
 1563TIP3    H126180   1.782   0.446  17.174 -0.5859  0.4082  0.0389
 1563TIP3    H226181   1.709   0.358  17.272  0.9219 -1.2660 -0.3107
 1564TIP3   OH226182   0.337   6.727   5.781 -0.0492  0.4054 -0.1647
 1564TIP3    H126183   0.311   6.639   5.809  1.4378  0.5776  1.9187
 1564TIP3    H226184   0.332   6.724   5.686 -1.6564 -1.4050 -0.0660
 1565TIP3   OH226185   0.858   6.274  16.930 -0.2356  0.0009 -0.2121
 1565TIP3    H126186   0.887   6.331  16.858 -0.6539  2.2636  1.3654
 1565TIP3    H226187   0.935   6.220  16.949  0.2406  0.1524 -1.6122
 1566TIP3   OH226188   2.250   0.300  16.661  0.4506  0.7668  0.2796
 1566TIP3    H126189   2.182   0.246  16.701  0.2879  0.2982 -0.6221
 1566TIP3    H226190   2.213   0.329  16.578  0.9269  1.4439  0.2961
 1567TIP3   OH226191   4.063   1.013  13.358  0.2476  0.2475 -0.9290
 1567TIP3    H126192   3.970   1.033  13.356  0.3957  0.8679 -1.7955
 1567TIP3    H226193   4.082   0.977  13.271  0.8858  0.4442 -0.8745
 1568TIP3   OH226194   5.307   3.305  16.018 -0.2114  0.0696  0.3808
 1568TIP3    H126195   5.383   3.247  16.014  0.7809  1.4075 -0.7129
 1568TIP3    H226196   5.341   3.392  15.996 -1.8349  0.9206  1.0737
 1569TIP3   OH226197   0.415   3.505   4.546 -0.5876 -0.4194  0.0802
 1569TIP3    H126198   0.442   3.566   4.614 -2.0556 -0.3435  0.6119
 1569TIP3    H226199   0.351   3.448   4.588 -1.3400 -0.5174 -1.1483
 1570TIP3   OH226200   2.283   2.633   4.127 -0.7597 -0.0454 -0.5426
 1570TIP3    H126201   2.346   2.591   4.068  1.0414  1.0149  0.5875
 1570TIP3    H226202   2.278   2.723   4.096 -1.4539 -0.0418 -0.4063
 1571TIP3   OH226203   3.129   4.298  14.196  0.1372  0.4167 -0.2345
 1571TIP3    H126204   3.201   4.289  14.258  0.3727  0.8304 -0.4502
 1571TIP3    H226205   3.111   4.209  14.166  1.1761  0.4308 -0.8967
 1572TIP3   OH226206   5.982   4.783  16.546 -0.1283  0.2183 -0.1267
 1572TIP3    H126207   6.066   4.796  16.502  0.3302  0.8967  0.9374
 1572TIP3    H226208   5.996   4.709  16.605  0.1966  1.3030  1.1919
 1573TIP3   OH226209   5.884   3.464   0.937  0.1720  0.0051  0.2676
 1573TIP3    H126210   5.831   3.414   0.875  1.8747  0.6427 -1.7632
 1573TIP3    H226211   5.923   3.534   0.885  2.8152 -0.2968  1.7430
 1574TIP3   OH226212   3.435   1.422  14.073  0.2436 -0.3563  0.3900
 1574TIP3    H126213   3.525   1.454  14.075 -0.5160  1.8444  0.7192
 1574TIP3    H226214   3.383   1.499  14.050 -1.1540 -2.5566 -4.4325
 1575TIP3   OH226215   0.346   2.344  16.395 -0.4441  0.1875  0.6382
 1575TIP3    H126216   0.303   2.426  16.420  0.4322  0.8639 -0.0328
 1575TIP3    H226217   0.278   2.277  16.403 -2.2869  1.5797 -2.6604
 1576TIP3   OH226218   2.120   5.821   3.530  0.4199 -0.3127  0.0347
 1576TIP3    H126219   2.185   5.818   3.601 -0.5216  1.4220  1.0232
 1576TIP3    H226220   2.036   5.822   3.576 -0.1934  0.9353 -1.0844
 1577TIP3   OH226221   1.767   2.800  13.152 -0.1833  0.0878  0.5692
 1577TIP3    H126222   1.761   2.838  13.064  0.3949  0.3712  0.6506
 1577TIP3    H226223   1.858   2.770  13.158 -0.2565 -0.0358  1.0345
 1578TIP3   OH226224   6.706   0.379  13.287 -0.0663 -0.4058  0.2745
 1578TIP3    H126225   6.763   0.322  13.234 -0.3747 -0.0655 -0.4382
 1578TIP3    H226226   6.624   0.383  13.237 -0.1879  0.3325  0.5236
 1579TIP3   OH226227   1.117   3.378  10.928  0.4717  0.1581 -0.0753
 1579TIP3    H126228   1.050   3.439  10.958  0.6146  0.0672  0.4255
 1579TIP3    H226229   1.125   3.314  10.999  1.4946  0.4947  0.1240
 1580TIP3   OH226230   1.694   6.081  16.668  0.4820  0.1469 -0.0141
 1580TIP3    H126231   1.607   6.105  16.636  0.2228 -2.2501 -1.2340
 1580TIP3    H226232   1.694   5.985  16.667  2.9759  0.1142  0.4115
 1581TIP3   OH226233   0.650   3.300  16.656  0.3541  0.2365 -0.1174
 1581TIP3    H126234   0.731   3.325  16.611  0.1140  0.4715 -0.4261
 1581TIP3    H226235   0.630   3.375  16.712 -1.1899  1.4362 -2.1757
 1582TIP3   OH226236   2.304   0.204   0.383  0.2317 -0.4630  0.4860
 1582TIP3    H126237   2.298   0.233   0.474  1.8850  1.2308  0.0784
 1582TIP3    H226238   2.229   0.246   0.340  0.2816 -0.0847  0.7621
 1583TIP3   OH226239   3.777   6.559  12.856  0.2884  0.1731 -0.3136
 1583TIP3    H126240   3.703   6.503  12.833 -0.3444  0.8685  0.0232
 1583TIP3    H226241   3.738   6.643  12.879  1.1969  0.6168 -0.3491
 1584TIP3   OH226242   1.225   2.625  13.513 -0.3401 -0.0228 -0.5181
 1584TIP3    H126243   1.286   2.561  13.475 -3.6456 -2.9366 -1.1881
 1584TIP3    H226244   1.220   2.694  13.447  2.1158  0.2727 -0.4728
 1585TIP3   OH226245   4.563   5.816  15.551 -0.6624  0.0975 -0.5769
 1585TIP3    H126246   4.658   5.801  15.555 -0.4463  1.1055 -1.4063
 1585TIP3    H226247   4.548   5.889  15.611 -0.6281  1.1316 -1.8080
 1586TIP3   OH226248   4.318   3.157   1.905  0.1500 -0.3522 -0.5387
 1586TIP3    H126249   4.315   3.226   1.838 -2.8279 -0.8791 -1.0166
 1586TIP3    H226250   4.298   3.077   1.857 -1.5821 -0.7932  0.8958
 1587TIP3   OH226251   5.514   2.377  17.016  0.4277 -0.3335 -0.2061
 1587TIP3    H126252   5.490   2.369  16.924 -0.6239  1.9272 -0.1648
 1587TIP3    H226253   5.439   2.422  17.056  0.9191 -1.2117  1.7163
 1588TIP3   OH226254   2.423   3.946   4.477  0.2862 -0.4233 -0.4053
 1588TIP3    H126255   2.396   3.953   4.385 -1.3063  0.8100  0.1208
 1588TIP3    H226256   2.512   3.980   4.479 -0.2991  1.2455 -1.2384
 1589TIP3   OH226257   6.392   4.895   1.559  0.0571  0.6763  0.2388
 1589TIP3    H126258   6.333   4.970   1.551  0.2090  0.9060  1.2311
 1589TIP3    H226259   6.465   4.915   1.502  0.5762  1.7493  1.2646
 1590TIP3   OH226260   2.967   5.057  12.856 -0.3658  0.7900 -0.5266
 1590TIP3    H126261   2.920   4.981  12.890  0.2913  0.9521  0.7771
 1590TIP3    H226262   3.060   5.034  12.865 -0.1745  0.9607 -1.9560
 1591TIP3   OH226263   2.127   5.990   5.063  0.3386 -0.4408  0.8413
 1591TIP3    H126264   2.048   6.041   5.079 -0.9001 -2.0258  0.0346
 1591TIP3    H226265   2.186   6.012   5.134 -0.3572  1.6972  0.7820
 1592TIP3   OH226266   4.382   4.105  13.315 -0.3123 -0.5530  0.0493
 1592TIP3    H126267   4.436   4.172  13.357 -0.2315 -0.7030  0.1819
 1592TIP3    H226268   4.397   4.119  13.221 -0.6605 -0.0777  0.0612
 1593TIP3   OH226269   0.568   5.712  14.754  0.1801  0.0790  0.3400
 1593TIP3    H126270   0.624   5.758  14.691 -0.0234  0.1389  0.2025
 1593TIP3    H226271   0.613   5.721  14.838  1.0831 -1.0635 -0.0168
 1594TIP3   OH226272   1.681   1.370   1.267 -0.9868 -0.0275 -0.7322
 1594TIP3    H126273   1.743   1.298   1.278 -1.0668  0.1026  0.6103
 1594TIP3    H226274   1.705   1.409   1.183  0.7662  0.0264 -0.2370
 1595TIP3   OH226275   1.988   2.806  14.615 -0.1083 -0.1024  0.2477
 1595TIP3    H126276   1.916   2.805  14.679  0.3431  2.8061  0.8421
 1595TIP3    H226277   1.949   2.768  14.536 -1.7394 -0.3484  1.1399
 1596TIP3   OH226278   0.077   6.659   2.429  0.0495 -0.9066 -0.5329
 1596TIP3    H126279  -0.002   6.605   2.417 -1.6359  1.2695  0.4456
 1596TIP3    H226280   0.064   6.733   2.370  0.7768  0.1056  0.5612
 1597TIP3   OH226281   3.044   4.470   3.153  0.0279 -0.2574  0.1101
 1597TIP3    H126282   2.976   4.509   3.207  1.2653  0.0212  1.5186
 1597TIP3    H226283   3.062   4.385   3.194 -0.5745 -1.0156 -1.1821
 1598TIP3   OH226284   5.701   1.262   2.637  0.2220  0.3586 -0.8864
 1598TIP3    H126285   5.623   1.286   2.688  0.5514 -0.2303 -0.0995
 1598TIP3    H226286   5.679   1.177   2.599  0.6520 -0.0340 -0.2765
 1599TIP3   OH226287   2.332   0.353   4.731 -0.0714  0.1154 -0.1919
 1599TIP3    H126288   2.370   0.361   4.818 -2.3094 -0.3488  0.8366
 1599TIP3    H226289   2.405   0.322   4.676  0.8790 -1.3645  1.8595
 1600TIP3   OH226290   1.477   2.899  10.801 -0.4849 -0.2396 -0.0547
 1600TIP3    H126291   1.406   2.951  10.839  0.3487  0.9472 -0.0856
 1600TIP3    H226292   1.434   2.819  10.770 -2.1371  1.2371 -1.7156
 1601TIP3   OH226293   0.814   3.889  13.372  0.0944  0.2143  0.2576
 1601TIP3    H126294   0.838   3.838  13.449  0.1233  1.0812  0.8328
 1601TIP3    H226295   0.727   3.925  13.392 -1.3844 -2.2560 -1.4949
 1602TIP3   OH226296   6.004   4.736  13.780 -0.0803  0.6903  0.2005
 1602TIP3    H126297   6.029   4.802  13.716 -0.1098  1.2767  0.7931
 1602TIP3    H226298   5.908   4.734  13.776 -0.0079 -0.7086 -1.2103
 1603TIP3   OH226299   1.714   1.354   3.900 -0.0794  0.0786  0.0639
 1603TIP3    H126300   1.753   1.340   3.814  0.0342 -0.8479  0.2673
 1603TIP3    H226301   1.635   1.300   3.901  0.1673 -0.2725  0.7146
 1604TIP3   OH226302   3.588   4.514   5.242 -0.5124  0.0445  0.2599
 1604TIP3    H126303   3.558   4.569   5.170 -0.9543 -0.7705 -0.1759
 1604TIP3    H226304   3.683   4.508   5.230 -0.4996  0.4779  0.1497
 1605TIP3   OH226305   0.698   5.431   0.308  0.6080 -0.4366  0.1999
 1605TIP3    H126306   0.643   5.497   0.349  0.2252 -1.1965  0.9469
 1605TIP3    H226307   0.642   5.388   0.244  0.5160 -0.7801  0.5068
 1606TIP3   OH226308   1.061   4.359  15.791 -0.1787 -0.7410  0.1929
 1606TIP3    H126309   1.118   4.435  15.806  0.4213 -1.0740 -0.3580
 1606TIP3    H226310   0.972   4.393  15.799  0.0689  0.2374 -1.0041
 1607TIP3   OH226311   5.481   3.200   3.528 -0.2535 -0.0384  0.5091
 1607TIP3    H126312   5.544   3.151   3.580  1.4016  0.8057 -0.6709
 1607TIP3    H226313   5.408   3.140   3.515 -0.0910 -0.7403  2.5942
 1608TIP3   OH226314   3.110   3.885  11.999  0.0119  0.0542 -0.1864
 1608TIP3    H126315   3.124   3.879  12.093  1.0007 -0.2801 -0.3561
 1608TIP3    H226316   3.091   3.978  11.984 -1.0951 -0.0519  0.4589
 1609TIP3   OH226317   1.321   3.521   1.195  0.3177 -0.4385  0.1540
 1609TIP3    H126318   1.378   3.444   1.202  0.1751 -0.5321  0.3098
 1609TIP3    H226319   1.339   3.556   1.108 -0.7475 -1.5647 -0.5454
 1610TIP3   OH226320   2.060   0.308  14.398  0.5310 -0.2197 -0.7344
 1610TIP3    H126321   2.150   0.341  14.406  0.5048 -0.2539 -0.2839
 1610TIP3    H226322   2.013   0.348  14.471  0.2298 -0.3743 -0.8409
 1611TIP3   OH226323   4.359   2.660  11.009 -0.2712  0.0557 -0.1760
 1611TIP3    H126324   4.395   2.747  11.024  0.3612 -0.5522  2.0908
 1611TIP3    H226325   4.431   2.610  10.972 -0.7595  0.5962 -1.8769
 1612TIP3   OH226326   5.329   4.675   1.105 -0.4820  0.0611 -0.0929
 1612TIP3    H126327   5.324   4.771   1.103  0.0405  0.0751 -1.6189
 1612TIP3    H226328   5.417   4.657   1.137 -0.7950  0.0848  0.7795
 1613TIP3   OH226329   2.579   3.001  17.029  0.3045  0.1331 -0.3831
 1613TIP3    H126330   2.608   3.086  17.062  0.8920 -0.5508  0.8959
 1613TIP3    H226331   2.660   2.955  17.008  0.0219 -0.5074 -0.0672
 1614TIP3   OH226332   0.996   5.004   3.830 -0.0447 -0.0566 -0.2574
 1614TIP3    H126333   1.008   4.944   3.904  2.6284  0.7929  0.0445
 1614TIP3    H226334   1.022   4.953   3.754  0.8096  0.2386 -0.1682
 1615TIP3   OH226335   1.399   4.952  11.188  0.7656 -0.4826 -0.7203
 1615TIP3    H126336   1.338   4.882  11.208  1.8029 -0.6130  2.1308
 1615TIP3    H226337   1.368   5.027  11.238  3.8032 -1.0112  2.0733
 1616TIP3   OH226338   6.420   0.914   2.895 -0.5765 -0.1645  0.0367
 1616TIP3    H126339   6.385   0.989   2.847 -1.6097 -1.2688 -0.9474
 1616TIP3    H226340   6.346   0.854   2.904  0.0097 -0.6846  1.6263
 1617TIP3   OH226341   5.005   6.428   1.738  0.1833  0.9061  0.4533
 1617TIP3    H126342   5.023   6.398   1.649 -1.1789 -0.8380  0.7516
 1617TIP3    H226343   5.063   6.504   1.749 -0.3600  1.8068 -2.2809
 1618TIP3   OH226344   4.808   6.442  15.045  0.5888  0.1745  0.2934
 1618TIP3    H126345   4.805   6.372  15.110  0.1533  0.4440  0.5678
 1618TIP3    H226346   4.738   6.422  14.984  0.1134  0.6513  0.6706
 1619TIP3   OH226347   4.499   6.386  15.865 -0.0080 -0.3349  0.5209
 1619TIP3    H126348   4.459   6.356  15.784  0.1852 -0.9686  0.6501
 1619TIP3    H226349   4.576   6.329  15.876  1.3942  1.3960 -0.1470
 1620TIP3   OH226350   3.378   4.939   2.273 -0.4378  0.0554 -0.0709
 1620TIP3    H126351   3.401   5.009   2.335  0.8740 -0.3740 -0.0464
 1620TIP3    H226352   3.318   4.883   2.322  0.9826 -0.5616  1.0231
 1621TIP3   OH226353   1.291   1.277  15.066 -0.1260 -0.4579 -0.1071
 1621TIP3    H126354   1.298   1.336  15.141 -1.0776 -0.4894  0.0061
 1621TIP3    H226355   1.283   1.190  15.105 -1.9671 -0.3545 -0.2005
 1622TIP3   OH226356   5.579   0.360   2.598 -0.3599  0.2824  0.2246
 1622TIP3    H126357   5.649   0.331   2.539 -1.4425  0.1406 -0.9938
 1622TIP3    H226358   5.624   0.377   2.681  0.8758 -1.2821 -0.1088
 1623TIP3   OH226359   2.000   0.606  16.086 -0.4108  0.2884 -0.0538
 1623TIP3    H126360   2.077   0.553  16.068 -0.5758  0.3663 -1.0233
 1623TIP3    H226361   1.971   0.578  16.172  0.7103  0.2726  0.3260
 1624TIP3   OH226362   3.376   1.786  12.266 -0.3286  0.1556  0.0672
 1624TIP3    H126363   3.300   1.842  12.249 -0.0207  0.4748 -0.2693
 1624TIP3    H226364   3.415   1.771  12.180 -0.0212 -0.0267  0.2346
 1625TIP3   OH226365   0.583   4.026   5.169  0.3989 -0.4839  0.4551
 1625TIP3    H126366   0.488   4.027   5.155  0.7050  0.1509 -1.8119
 1625TIP3    H226367   0.594   3.987   5.256 -1.9828  0.4402  1.2188
 1626TIP3   OH226368   6.354   6.401  15.641  0.4365 -0.0797 -0.4064
 1626TIP3    H126369   6.332   6.461  15.712  0.6902 -0.6844  0.1863
 1626TIP3    H226370   6.299   6.428  15.568  1.1159  1.3784 -0.3915
 1627TIP3   OH226371   1.502   2.763  12.916  0.2745 -0.0997  0.1247
 1627TIP3    H126372   1.423   2.761  12.862 -1.2270 -0.1825  2.2903
 1627TIP3    H226373   1.482   2.706  12.990  1.5684  1.4943  1.7512
 1628TIP3   OH226374   5.907   3.307   5.197  0.3494  0.3382  0.4876
 1628TIP3    H126375   5.928   3.399   5.209  0.4436  0.4105 -0.2278
 1628TIP3    H226376   5.829   3.307   5.143  0.6385 -0.0149  0.0716
 1629TIP3   OH226377   5.950   0.202   5.240 -0.5338 -0.2094  0.1713
 1629TIP3    H126378   5.956   0.225   5.332 -1.4891  1.3110 -0.1402
 1629TIP3    H226379   6.008   0.263   5.195 -1.8457  0.6009 -0.4747
 1630TIP3   OH226380   3.827   3.496  13.082  0.5051  0.6932 -0.2817
 1630TIP3    H126381   3.913   3.532  13.058 -1.0618  2.8567 -2.9479
 1630TIP3    H226382   3.794   3.555  13.149  1.1498 -0.2613  0.8984
 1631TIP3   OH226383   1.504   1.366   0.167 -0.2923 -0.0261 -0.2669
 1631TIP3    H126384   1.549   1.437   0.213  0.7910 -0.7888 -0.1570
 1631TIP3    H226385   1.424   1.352   0.218 -0.1933  0.6655  0.0879
 1632TIP3   OH226386   2.300   3.654  14.321  0.3724  0.2487 -0.1553
 1632TIP3    H126387   2.208   3.635  14.341  0.3635 -0.2690 -0.6619
 1632TIP3    H226388   2.349   3.595  14.377  0.3360 -1.6985 -2.1083
 1633TIP3   OH226389   3.840   1.065  15.966  0.3479 -0.0266 -0.2815
 1633TIP3    H126390   3.864   0.973  15.980  0.3569 -0.2008 -1.4314
 1633TIP3    H226391   3.908   1.100  15.908  0.0814  0.5776 -0.2362
 1634TIP3   OH226392   4.498   3.586  17.163  1.2073  0.3946  0.4712
 1634TIP3    H126393   4.563   3.522  17.192 -0.4725 -0.6944  1.9412
 1634TIP3    H226394   4.531   3.670  17.193  3.0965  0.1681 -0.8668
 1635TIP3   OH226395   2.396   4.261   1.400 -0.3907  0.2676 -0.0215
 1635TIP3    H126396   2.470   4.206   1.378 -1.5808 -0.7068 -1.6862
 1635TIP3    H226397   2.326   4.200   1.424 -1.7486  1.0250 -1.9800
 1636TIP3   OH226398   3.816   3.107   3.048  0.2008 -0.0148  0.1426
 1636TIP3    H126399   3.853   3.193   3.069 -0.2737  0.0568  0.6978
 1636TIP3    H226400   3.822   3.102   2.952  0.0074  0.7416  0.0859
 1637TIP3   OH226401   1.918   2.358  12.443  0.1683  0.2957 -0.3957
 1637TIP3    H126402   1.984   2.327  12.381 -0.8190  0.0992 -1.3651
 1637TIP3    H226403   1.924   2.298  12.517 -0.7024 -1.3157 -1.6065
 1638TIP3   OH226404   3.159   1.130  14.160  0.0205  0.7561 -0.1358
 1638TIP3    H126405   3.230   1.076  14.125 -0.9645 -0.3941 -0.3589
 1638TIP3    H226406   3.081   1.101  14.113 -0.6567  1.8184  0.3183
 1639TIP3   OH226407   0.544   1.512  14.033 -0.1537  0.4708  0.1493
 1639TIP3    H126408   0.611   1.576  14.058  0.0675 -0.5982  2.3799
 1639TIP3    H226409   0.583   1.427  14.054 -1.4348 -0.2707 -0.4107
 1640TIP3   OH226410   6.170   0.871  15.809 -0.0530  0.0560 -0.4905
 1640TIP3    H126411   6.200   0.901  15.895 -0.7367  0.5376 -0.4171
 1640TIP3    H226412   6.248   0.834  15.768  0.6302  1.2575 -0.2881
 1641TIP3   OH226413   2.966   0.583   0.390  0.8693 -0.3082  0.8256
 1641TIP3    H126414   2.897   0.648   0.408  0.1125 -0.9272  0.2026
 1641TIP3    H226415   3.001   0.608   0.305  0.8042 -0.5155  0.7374
 1642TIP3   OH226416   3.086   3.254  12.000  0.3593  0.1625  0.1848
 1642TIP3    H126417   3.136   3.335  11.999  1.7579 -0.6767 -0.3880
 1642TIP3    H226418   3.027   3.262  12.075 -1.0728  2.6087 -1.1450
 1643TIP3   OH226419   0.982   0.111   3.248 -0.2246 -0.5673  0.2689
 1643TIP3    H126420   0.925   0.185   3.227 -1.5429 -1.0690  1.9826
 1643TIP3    H226421   1.005   0.073   3.163 -0.6172  1.0002 -0.5490
 1644TIP3   OH226422   0.806   1.210  13.348  0.6551  0.4296  0.1789
 1644TIP3    H126423   0.775   1.214  13.258 -0.5965 -0.5199  0.5485
 1644TIP3    H226424   0.808   1.117  13.369 -0.4391  0.6969  1.5764
 1645TIP3   OH226425   2.077   4.925  15.707  0.1754 -0.1555 -0.1108
 1645TIP3    H126426   2.054   4.909  15.799  1.4760 -0.2841  0.2023
 1645TIP3    H226427   1.993   4.936  15.663 -0.4547  0.1017  1.1310
 1646TIP3   OH226428   2.982   0.287   1.810 -0.2237 -0.9185 -0.0716
 1646TIP3    H126429   3.003   0.247   1.726  0.6835  0.2145 -0.3964
 1646TIP3    H226430   2.945   0.372   1.788  0.3583 -0.4666  0.6822
 1647TIP3   OH226431   2.091   4.150  15.188 -0.4785 -0.2423 -0.7650
 1647TIP3    H126432   2.157   4.220  15.187 -0.1949 -0.4971 -0.1094
 1647TIP3    H226433   2.080   4.126  15.096  1.0055 -0.8121 -0.8086
 1648TIP3   OH226434   3.906   0.186  16.490  0.2644  0.0676  0.4878
 1648TIP3    H126435   3.841   0.156  16.554  1.8197 -1.1668  1.5201
 1648TIP3    H226436   3.974   0.118  16.491  2.3909  2.1220  0.6606
 1649TIP3   OH226437   4.132   1.114   0.354  0.3912 -0.4546  0.2482
 1649TIP3    H126438   4.108   1.095   0.445 -0.6488  1.5680  0.4375
 1649TIP3    H226439   4.162   1.205   0.356 -0.6349 -0.0574 -1.6099
 1650TIP3   OH226440   2.506   6.043  14.929  0.0071  0.6783  0.3249
 1650TIP3    H126441   2.527   5.954  14.955  2.4417  1.3074  0.6338
 1650TIP3    H226442   2.585   6.074  14.883  0.1198  3.4218  2.2245
 1651TIP3   OH226443   2.231   1.791  13.832  0.3379  0.7262 -0.5199
 1651TIP3    H126444   2.175   1.732  13.782 -1.0396  3.6244 -2.6242
 1651TIP3    H226445   2.318   1.781  13.793 -0.1452  0.9416 -1.6741
 1652TIP3   OH226446   1.292   0.171   0.276 -0.5938  0.1008  0.6697
 1652TIP3    H126447   1.222   0.231   0.249  0.0501  0.9134  0.7905
 1652TIP3    H226448   1.362   0.229   0.305  1.3907 -0.5915 -2.5125
 1653TIP3   OH226449   5.494   1.100   5.832 -0.0576 -0.4199  0.0254
 1653TIP3    H126450   5.568   1.148   5.794  0.0008 -0.1587  0.4666
 1653TIP3    H226451   5.528   1.065   5.914 -0.9849  1.2854  1.1569
 1654TIP3   OH226452   1.229   3.845  15.169 -0.0502  0.7407 -0.4080
 1654TIP3    H126453   1.305   3.846  15.227 -0.4732  0.7336  0.1550
 1654TIP3    H226454   1.168   3.908  15.208 -0.8879 -0.2517 -0.0836
 1655TIP3   OH226455   0.339   0.800  11.707 -0.0616  0.3575 -0.0819
 1655TIP3    H126456   0.295   0.884  11.695 -0.3379  0.4412  1.5471
 1655TIP3    H226457   0.299   0.742  11.641 -0.6048  1.2023 -0.4973
 1656TIP3   OH226458   4.818   2.219  13.079 -0.2944 -0.1363 -0.0133
 1656TIP3    H126459   4.831   2.294  13.022  3.0870  1.2495  2.3908
 1656TIP3    H226460   4.839   2.143  13.025  1.4867  1.0587 -1.0345
 1657TIP3   OH226461   3.409   4.654  16.239 -0.5076 -0.0996  0.0139
 1657TIP3    H126462   3.444   4.658  16.328 -2.4257  1.7699  0.7346
 1657TIP3    H226463   3.485   4.640  16.184  0.8138 -0.5077  1.8961
 1658TIP3   OH226464   1.171   2.205  12.400  0.0401 -0.0532  0.6493
 1658TIP3    H126465   1.179   2.192  12.494  1.2472 -0.1281  0.5423
 1658TIP3    H226466   1.087   2.163  12.377  0.6839 -1.7673  1.3725
 1659TIP3   OH226467   3.856   4.427  16.607 -0.5683 -0.8965  0.2388
 1659TIP3    H126468   3.857   4.452  16.515  1.0049  2.9091  1.1888
 1659TIP3    H226469   3.773   4.462  16.640 -0.4358 -0.9085  0.5856
 1660TIP3   OH226470   3.681   5.706  12.486  0.4711 -0.3854 -0.3907
 1660TIP3    H126471   3.677   5.752  12.570  1.2209 -1.7549  0.4029
 1660TIP3    H226472   3.633   5.624  12.501  0.9912 -0.8393 -1.1616
 1661TIP3   OH226473   1.733   5.098   5.467  0.1715  0.5077 -0.4436
 1661TIP3    H126474   1.737   5.074   5.375  0.6974 -0.9801 -0.0522
 1661TIP3    H226475   1.652   5.057   5.499  0.2808  0.5540 -0.1066
 1662TIP3   OH226476   1.286   2.998  16.671 -0.6414 -0.5250 -0.0096
 1662TIP3    H126477   1.240   2.987  16.588 -1.5564  1.5544  0.1690
 1662TIP3    H226478   1.288   3.093  16.684  1.1107 -0.7444  1.4504
 1663TIP3   OH226479   1.006   3.244   2.393 -0.2719  0.6459  0.2045
 1663TIP3    H126480   0.970   3.164   2.354  0.2684  1.4630 -2.0618
 1663TIP3    H226481   0.931   3.285   2.437 -1.1073  0.0571 -0.6330
 1664TIP3   OH226482   5.269   3.424   2.911  0.5539  0.7278 -0.2205
 1664TIP3    H126483   5.331   3.353   2.890 -0.9703  0.0062 -2.4701
 1664TIP3    H226484   5.322   3.503   2.911  2.3779 -0.4088  2.7475
 1665TIP3   OH226485   6.687   6.516   2.348  0.2867 -0.2727  0.5704
 1665TIP3    H126486   6.680   6.447   2.282  0.4370 -0.5521  0.8455
 1665TIP3    H226487   6.633   6.587   2.314 -1.0072 -1.0472  0.9501
 1666TIP3   OH226488   5.592   0.475  12.945  0.0815  0.2483  0.2601
 1666TIP3    H126489   5.532   0.409  12.980  0.2535 -1.6013 -2.8494
 1666TIP3    H226490   5.658   0.426  12.898  1.3328  2.5562 -0.4541
 1667TIP3   OH226491   3.594   6.139  10.850  0.0342 -0.0401  0.2341
 1667TIP3    H126492   3.573   6.156  10.758  0.1198  0.0446  0.2287
 1667TIP3    H226493   3.685   6.167  10.859 -0.4787  1.5296  0.7434
 1668TIP3   OH226494   3.989   0.202   2.518  0.3090  0.4984 -0.0794
 1668TIP3    H126495   3.982   0.140   2.445 -0.1615  0.2509  0.1793
 1668TIP3    H226496   3.914   0.183   2.574  1.0823  0.1785  0.8642
 1669TIP3   OH226497   6.015   5.888   6.028 -0.0271 -0.2450  0.2185
 1669TIP3    H126498   6.073   5.888   6.104  0.2902  0.1714 -0.0194
 1669TIP3    H226499   5.994   5.980   6.014  1.0565 -0.1809 -1.0577
 1670TIP3   OH226500   1.486   5.052   0.219  0.0654  0.3527 -0.1839
 1670TIP3    H126501   1.527   4.973   0.256 -2.9944  0.5997  4.1509
 1670TIP3    H226502   1.435   5.019   0.145  1.8544 -1.0943 -0.8344
 1671TIP3   OH226503   1.730   4.462  16.904 -0.1796  0.5142  0.2601
 1671TIP3    H126504   1.787   4.385  16.916  0.3891  0.9521  0.3828
 1671TIP3    H226505   1.666   4.434  16.839  0.5098  0.1897 -0.2891
 1672TIP3   OH226506   6.063   1.696   0.105 -0.0923  0.1532 -0.2549
 1672TIP3    H126507   6.030   1.608   0.126  0.8087 -0.2669 -0.5895
 1672TIP3    H226508   6.046   1.706   0.011 -0.4049  0.4232 -0.1678
 1673TIP3   OH226509   3.689   3.518   5.921  0.1530 -0.0379  0.3751
 1673TIP3    H126510   3.723   3.444   5.971 -0.8809  0.3718  1.7077
 1673TIP3    H226511   3.747   3.524   5.846  0.5853 -1.8615  0.5272
 1674TIP3   OH226512   1.446   4.514   5.259  0.7379 -0.0151 -0.6635
 1674TIP3    H126513   1.474   4.599   5.295 -2.3427  0.2381  1.2873
 1674TIP3    H226514   1.460   4.452   5.330  2.7072 -1.1405 -1.9918
 1675TIP3   OH226515   3.734   1.558  12.105 -0.6080 -0.3184 -0.2436
 1675TIP3    H126516   3.678   1.633  12.086  1.0896  0.4333 -2.3913
 1675TIP3    H226517   3.783   1.543  12.025  1.8513 -1.3151  1.3692
 1676TIP3   OH226518   6.146   2.841   4.470  0.4065 -0.2490 -0.0897
 1676TIP3    H126519   6.085   2.852   4.396 -0.2648  2.2582  0.7714
 1676TIP3    H226520   6.212   2.909   4.457  0.5756 -0.1187  1.3246
 1677TIP3   OH226521   5.222   0.188   0.629 -0.2708  0.2405 -0.0465
 1677TIP3    H126522   5.285   0.122   0.657 -1.4050 -0.7091  0.3017
 1677TIP3    H226523   5.276   0.263   0.603  0.9984 -0.5702  0.1947
 1678TIP3   OH226524   5.498   4.969  17.113  0.1484  0.2353  0.1253
 1678TIP3    H126525   5.578   4.944  17.159 -2.8972 -4.4897  3.3200
 1678TIP3    H226526   5.514   4.944  17.022  2.8866  1.0034  0.3682
 1679TIP3   OH226527   4.324   2.790   4.713  0.7841  0.2423 -0.0898
 1679TIP3    H126528   4.243   2.819   4.755  0.0366 -0.5767 -0.9335
 1679TIP3    H226529   4.386   2.777   4.785  0.5126  1.9774  0.4574
 1680TIP3   OH226530   4.573   4.297   1.599  0.5697  0.1572 -0.1575
 1680TIP3    H126531   4.507   4.366   1.601  0.0948 -0.2539 -1.3045
 1680TIP3    H226532   4.651   4.337   1.639  0.0474  1.0778 -0.0445
 1681TIP3   OH226533   2.536   0.461  13.960  0.0445  0.8061 -0.3026
 1681TIP3    H126534   2.567   0.435  13.874 -1.0356  0.6900 -0.6624
 1681TIP3    H226535   2.591   0.537  13.984 -1.5351  2.6456 -2.3364
 1682TIP3   OH226536   5.042   1.295  15.752 -0.7517 -0.3327  0.0357
 1682TIP3    H126537   4.995   1.378  15.756 -1.4217 -0.7414  0.7612
 1682TIP3    H226538   5.091   1.300  15.670 -0.6442  0.8485  0.1569
 1683TIP3   OH226539   5.003   4.509   5.825 -0.1036  0.0503  0.1459
 1683TIP3    H126540   5.041   4.438   5.877  0.7960  0.6646  0.3470
 1683TIP3    H226541   5.071   4.529   5.760 -1.1992 -0.6904 -1.2647
 1684TIP3   OH226542   0.346   5.708  16.856  0.1818 -0.2921 -0.0416
 1684TIP3    H126543   0.382   5.792  16.885 -0.7250  0.4426 -1.0425
 1684TIP3    H226544   0.284   5.684  16.926 -2.3229  1.6916 -1.4877
 1685TIP3   OH226545   3.592   3.809   0.047  0.2106 -0.3133  0.2702
 1685TIP3    H126546   3.565   3.815   0.138 -0.6351 -0.2745  0.0228
 1685TIP3    H226547   3.605   3.715   0.032  0.0557 -0.3480  0.3524
 1686TIP3   OH226548   2.774   5.263   0.556  0.2582 -0.1166  0.8618
 1686TIP3    H126549   2.808   5.191   0.502 -1.0237  0.1079 -0.2708
 1686TIP3    H226550   2.697   5.226   0.600 -1.7060  1.1441 -1.4052
 1687TIP3   OH226551   2.466   0.557  17.092  0.0433  0.2576 -0.1970
 1687TIP3    H126552   2.411   0.519  17.023  1.2085  1.1692 -1.6502
 1687TIP3    H226553   2.446   0.650  17.090  0.5728  0.3804  0.2493
 1688TIP3   OH226554   1.065   6.434   3.956  0.0461  0.2309  0.1812
 1688TIP3    H126555   0.988   6.400   3.911  0.1420 -0.7573  0.7494
 1688TIP3    H226556   1.073   6.524   3.926  0.3923 -0.5566 -2.1662
 1689TIP3   OH226557   5.134   5.142  12.470  0.1205 -0.1825  0.0950
 1689TIP3    H126558   5.052   5.137  12.421  1.3123 -0.4769 -1.8809
 1689TIP3    H226559   5.106   5.152  12.561 -2.1095  1.0152 -0.6817
 1690TIP3   OH226560   5.645   5.669  17.084  0.0363 -0.3113  0.1161
 1690TIP3    H126561   5.592   5.710  17.016  1.5187 -1.0570 -1.5497
 1690TIP3    H226562   5.729   5.716  17.080  0.5380 -1.1442  0.6075
 1691TIP3   OH226563   3.464   4.358  15.806  0.0611  0.2143  0.2938
 1691TIP3    H126564   3.524   4.290  15.837  0.5885  0.5388 -0.0208
 1691TIP3    H226565   3.480   4.432  15.865  0.8280  0.7179 -0.5371
 1692TIP3   OH226566   5.991   0.902  14.989 -0.0780  0.3484 -0.0912
 1692TIP3    H126567   6.035   0.890  14.905 -1.3920  2.0799 -1.0599
 1692TIP3    H226568   6.019   0.827  15.041  0.6874 -0.8099 -2.0970
 1693TIP3   OH226569   3.624   3.415  15.873 -0.0345  0.1881  0.4113
 1693TIP3    H126570   3.655   3.376  15.955 -1.0499 -1.8334 -0.1471
 1693TIP3    H226571   3.704   3.432  15.823  0.4870 -0.0221  1.1636
 1694TIP3   OH226572   0.157   5.002  15.730  0.1034  0.3857 -0.5587
 1694TIP3    H126573   0.237   4.950  15.730  1.4429  2.3729 -0.1095
 1694TIP3    H226574   0.181   5.082  15.778 -3.0687 -0.3605  2.4849
 1695TIP3   OH226575   2.165   1.510   3.083  0.3720  0.6613 -0.6566
 1695TIP3    H126576   2.151   1.600   3.114  1.6723  0.0880  1.7624
 1695TIP3    H226577   2.260   1.504   3.069  0.2958 -0.3268 -0.7811
 1696TIP3   OH226578   1.550   2.563  16.576 -0.1959 -0.0040 -0.1845
 1696TIP3    H126579   1.492   2.586  16.503  0.3258 -0.9976 -0.9126
 1696TIP3    H226580   1.541   2.636  16.637 -2.3224 -0.2145 -0.2223
 1697TIP3   OH226581   2.220   0.520  10.875  0.3540 -0.0694 -0.2682
 1697TIP3    H126582   2.229   0.450  10.811  1.1371 -0.2727  0.0652
 1697TIP3    H226583   2.266   0.595  10.837 -0.5345  0.2909 -0.6515
 1698TIP3   OH226584   6.728   2.608   4.531 -0.1808 -0.6763 -0.1104
 1698TIP3    H126585   6.772   2.587   4.449  0.1425  2.2568 -0.7459
 1698TIP3    H226586   6.770   2.551   4.596  2.5633 -0.0322 -1.2276
 1699TIP3   OH226587   4.100   5.659  12.955  0.4472  0.0585 -0.0003
 1699TIP3    H126588   4.021   5.712  12.967 -0.1002 -0.7106 -0.1620
 1699TIP3    H226589   4.110   5.613  13.038  0.3304 -0.3685 -0.2240
 1700TIP3   OH226590   5.950   1.439  12.411 -0.2780 -0.4697 -0.1705
 1700TIP3    H126591   6.032   1.488  12.402 -0.5632 -0.2784 -1.9304
 1700TIP3    H226592   5.910   1.474  12.491  0.2174  1.1285 -0.5984
 1701TIP3   OH226593   4.568   1.191  13.343 -0.0449  0.0558 -0.1603
 1701TIP3    H126594   4.512   1.227  13.413  2.8328  0.7414  1.8983
 1701TIP3    H226595   4.567   1.259  13.275  0.1696  1.1479  0.8989
 1702TIP3   OH226596   3.978   6.220   2.730  0.6077 -0.0434 -0.0361
 1702TIP3    H126597   4.070   6.194   2.722 -0.1910 -2.8575 -0.7904
 1702TIP3    H226598   3.960   6.215   2.824  1.2673  0.6478  0.1269
 1703TIP3   OH226599   2.069   3.710   4.521 -0.5186 -0.1936  0.3507
 1703TIP3    H126600   2.146   3.712   4.578 -0.1929  2.8911 -0.1138
 1703TIP3    H226601   1.996   3.730   4.580 -0.5935 -0.1914  0.2570
 1704TIP3   OH226602   6.140   6.385  13.842 -0.4436 -0.2997  0.1279
 1704TIP3    H126603   6.155   6.356  13.932  0.8239  0.2056  0.0875
 1704TIP3    H226604   6.178   6.472  13.838 -1.7131  0.2306 -0.5389
 1705TIP3   OH226605   0.395   3.453  13.814  0.3137  0.2530  0.2351
 1705TIP3    H126606   0.418   3.489  13.900  0.8878  0.2851  0.0664
 1705TIP3    H226607   0.368   3.363  13.832  2.4927 -0.4330  0.1846
 1706TIP3   OH226608   2.362   1.980  16.379  0.6381  0.1129 -0.3163
 1706TIP3    H126609   2.389   2.042  16.447  0.8330  1.0676 -1.2383
 1706TIP3    H226610   2.436   1.920  16.371  0.1908 -0.6437  1.0296
 1707TIP3   OH226611   3.414   2.695   0.557  0.7011 -0.4489  0.4507
 1707TIP3    H126612   3.419   2.704   0.461 -1.2368  0.3457  0.4024
 1707TIP3    H226613   3.415   2.785   0.589  3.9297 -0.7615  1.3697
 1708TIP3   OH226614   0.723   0.847  15.052  0.1261 -0.4653 -0.1887
 1708TIP3    H126615   0.791   0.838  14.985  1.1751 -0.8802  0.9148
 1708TIP3    H226616   0.650   0.890  15.007  0.3490 -1.8279 -1.9116
 1709TIP3   OH226617   0.218   3.268  11.863  0.1178  0.0886 -0.6472
 1709TIP3    H126618   0.251   3.274  11.773  2.3116  0.1954  0.1434
 1709TIP3    H226619   0.242   3.351  11.904 -2.6534  0.8926 -0.4879
 1710TIP3   OH226620   6.234   0.937   5.410 -0.3508 -0.2848  0.3698
 1710TIP3    H126621   6.221   0.956   5.317 -2.5225 -2.9894  0.0756
 1710TIP3    H226622   6.252   0.843   5.414 -0.1450 -0.1925  2.6828
 1711TIP3   OH226623   6.571   6.252  13.346  0.4716 -0.0790 -0.0627
 1711TIP3    H126624   6.527   6.292  13.421 -1.3550  1.0240 -1.6832
 1711TIP3    H226625   6.500   6.211  13.296  1.7268 -1.2052 -0.9483
 1712TIP3   OH226626   1.383   2.184  13.288 -0.3601  0.0813 -0.1295
 1712TIP3    H126627   1.476   2.170  13.268 -0.0900  0.5130  0.8059
 1712TIP3    H226628   1.375   2.278  13.301 -0.9549  0.0594 -0.3112
 1713TIP3   OH226629   6.209   2.776  16.807 -1.2171 -0.3602 -0.2959
 1713TIP3    H126630   6.190   2.702  16.749  0.3986 -2.7765  2.1981
 1713TIP3    H226631   6.301   2.766  16.830 -1.2309  1.8872  0.8571
 1714TIP3   OH226632   6.171   0.859  14.743  0.1956 -0.6641  0.0691
 1714TIP3    H126633   6.155   0.944  14.702 -0.2348 -0.6357  0.2922
 1714TIP3    H226634   6.203   0.804  14.671  0.9262 -0.1863  0.0290
 1715TIP3   OH226635   0.208   6.755  12.843  0.5375  0.1329 -0.2871
 1715TIP3    H126636   0.219   6.660  12.836 -1.7184 -0.1703  0.0327
 1715TIP3    H226637   0.164   6.768  12.926 -1.0128  1.3065 -1.2738
 1716TIP3   OH226638   3.664   3.644  13.276 -0.0458  1.1239 -0.0478
 1716TIP3    H126639   3.602   3.601  13.334 -1.4174 -0.4639 -2.6023
 1716TIP3    H226640   3.627   3.732  13.263  0.7481  1.8036  2.1439
 1717TIP3   OH226641   1.817   6.450   5.515 -0.1928 -0.5986 -0.5402
 1717TIP3    H126642   1.876   6.455   5.589  0.6139  1.7056 -1.2693
 1717TIP3    H226643   1.729   6.458   5.553  0.3290  3.6372  0.0181
 1718TIP3   OH226644   4.265   1.244  14.720 -0.2340 -0.0656 -0.5582
 1718TIP3    H126645   4.270   1.180  14.792  1.1036  0.2929 -0.3115
 1718TIP3    H226646   4.306   1.200  14.646  1.1391  0.6477 -0.2565
 1719TIP3   OH226647   1.423   4.333  11.570  0.1081  0.2935  0.1069
 1719TIP3    H126648   1.420   4.283  11.488  1.3793  3.1308 -1.7352
 1719TIP3    H226649   1.346   4.389  11.566  1.5803  2.3208 -0.4266
 1720TIP3   OH226650   1.436   2.954   1.396 -0.1039  0.1006  0.1936
 1720TIP3    H126651   1.394   2.883   1.349  3.9019 -1.0236 -1.9034
 1720TIP3    H226652   1.437   3.027   1.335  1.2078  0.0225  0.1063
 1721TIP3   OH226653   6.546   1.661  14.534  1.3003  0.4252 -0.3493
 1721TIP3    H126654   6.613   1.657  14.466  1.8117  1.1865  0.0936
 1721TIP3    H226655   6.593   1.639  14.615  0.0702 -3.5916 -0.6166
 1722TIP3   OH226656   4.404   1.356   5.762  0.2795  0.3675 -0.2657
 1722TIP3    H126657   4.435   1.392   5.679 -0.3730  0.4112 -0.4896
 1722TIP3    H226658   4.358   1.428   5.804  1.0858  0.5115  0.3920
 1723TIP3   OH226659   0.840   6.762   0.285  0.2829  0.1059 -0.5173
 1723TIP3    H126660   0.843   6.792   0.376 -0.9683  2.4158 -1.2069
 1723TIP3    H226661   0.930   6.770   0.254  0.7261 -0.7187  0.4929
 1724TIP3   OH226662   4.236   3.332  11.952  0.0785 -0.2991  0.1127
 1724TIP3    H126663   4.161   3.370  11.998  1.7210 -0.0763  2.7527
 1724TIP3    H226664   4.310   3.386  11.979  1.7011 -2.5071  0.2410
 1725TIP3   OH226665   1.366   4.565  11.925 -0.8219 -0.1940 -0.3784
 1725TIP3    H126666   1.330   4.629  11.988  1.3204  1.9186 -1.2177
 1725TIP3    H226667   1.459   4.585  11.922 -0.2929 -2.7201 -1.4878
 1726TIP3   OH226668   0.641   6.440   5.893 -0.0456  0.2710 -0.2978
 1726TIP3    H126669   0.704   6.429   5.964 -1.5709  2.0281  1.3967
 1726TIP3    H226670   0.575   6.373   5.909 -0.3824  0.6578 -0.0686
 1727TIP3   OH226671   5.324   6.357  12.667  0.1822  0.1366  0.0457
 1727TIP3    H126672   5.396   6.395  12.616  0.8127 -1.2880 -0.1485
 1727TIP3    H226673   5.366   6.325  12.747 -0.0006 -1.8449 -0.6312
 1728TIP3   OH226674   5.267   1.022   4.939 -0.3469  0.4585 -0.4863
 1728TIP3    H126675   5.352   0.990   4.909 -0.3524  0.1037 -0.1193
 1728TIP3    H226676   5.282   1.114   4.961  0.4306 -0.1198  1.5333
 1729TIP3   OH226677   1.078   6.405   4.664  0.0434 -0.0494 -0.1888
 1729TIP3    H126678   1.031   6.486   4.643  0.9031  0.7965  1.0542
 1729TIP3    H226679   1.021   6.335   4.633 -1.1550  1.0118 -0.4178
 1730TIP3   OH226680   6.400   2.005  12.154 -0.1333  0.5640  0.6437
 1730TIP3    H126681   6.417   2.099  12.147  0.5049  0.4677  0.9086
 1730TIP3    H226682   6.486   1.966  12.160 -0.4590  0.0856  2.2445
 1731TIP3   OH226683   0.976   2.354  12.752 -0.2356  0.8388  0.0752
 1731TIP3    H126684   1.045   2.288  12.754 -0.5302  0.5172 -0.2629
 1731TIP3    H226685   0.897   2.305  12.727 -0.3009  1.4485 -0.9254
 1732TIP3   OH226686   5.304   3.865  12.501  0.7070 -0.1617 -0.4677
 1732TIP3    H126687   5.322   3.864  12.595 -1.0183  0.8121 -0.0998
 1732TIP3    H226688   5.303   3.958  12.478 -1.0283 -0.3008 -1.0035
 1733TIP3   OH226689   1.504   0.541   4.637  0.3046 -0.2216 -0.2914
 1733TIP3    H126690   1.533   0.452   4.615 -2.1676 -1.0295 -0.3801
 1733TIP3    H226691   1.514   0.590   4.555  0.9809 -0.5842 -0.4340
 1734TIP3   OH226692   1.595   1.217  15.753 -0.0214 -0.0186  0.1843
 1734TIP3    H126693   1.639   1.189  15.672  2.2007  2.1786  0.5603
 1734TIP3    H226694   1.519   1.266  15.723 -1.6039 -2.7702 -0.4925
 1735TIP3   OH226695   5.552   3.430   1.512  0.8178  0.2426 -0.2224
 1735TIP3    H126696   5.507   3.510   1.483  2.5559  0.4145 -2.6288
 1735TIP3    H226697   5.522   3.363   1.451  0.6500 -0.5895  0.7698
 1736TIP3   OH226698   3.534   4.479   3.539  0.2934  0.3781  0.0945
 1736TIP3    H126699   3.621   4.519   3.540  0.3180  0.3688 -1.1373
 1736TIP3    H226700   3.480   4.538   3.593  0.4927  1.6984 -1.1261
 1737TIP3   OH226701   4.244   5.532   0.593 -0.0940  1.1456 -0.3592
 1737TIP3    H126702   4.270   5.571   0.510  0.8915 -0.5630 -0.8764
 1737TIP3    H226703   4.319   5.479   0.620 -0.8858  0.6615  0.9876
 1738TIP3   OH226704   1.297   6.356  12.949 -0.0882  0.7957 -0.2003
 1738TIP3    H126705   1.225   6.380  12.891 -0.6592  1.3068  0.7163
 1738TIP3    H226706   1.343   6.287  12.902 -1.7462 -0.2297 -0.3846
 1739TIP3   OH226707   3.758   3.087  16.921  0.2127 -0.0072 -0.3059
 1739TIP3    H126708   3.721   3.148  16.857  2.3354  1.0398 -0.5857
 1739TIP3    H226709   3.724   3.002  16.895  0.0094  0.5827 -2.0601
 1740TIP3   OH226710   1.498   4.011  14.868 -0.5789 -0.4222 -0.1847
 1740TIP3    H126711   1.551   4.044  14.795  0.3692 -0.4508  0.4875
 1740TIP3    H226712   1.548   3.937  14.902 -0.3381  0.4335  1.3598
 1741TIP3   OH226713   5.131   4.808  14.645  0.1672  0.0054 -0.1087
 1741TIP3    H126714   5.085   4.828  14.564  0.1996  1.3512  0.1968
 1741TIP3    H226715   5.079   4.849  14.714  0.6484 -0.3255  0.4591
 1742TIP3   OH226716   0.048   3.218   2.152  0.0126 -0.1926  0.3605
 1742TIP3    H126717   0.100   3.138   2.148  1.3256  0.6503  0.3538
 1742TIP3    H226718  -0.014   3.210   2.080 -0.9376 -1.9287  1.3254
 1743TIP3   OH226719   3.660   5.055   4.528  0.3943  0.2144 -0.1653
 1743TIP3    H126720   3.570   5.022   4.530  0.8157 -1.0862 -1.3774
 1743TIP3    H226721   3.707   5.003   4.593  0.6914 -0.4575 -0.9068
 1744TIP3   OH226722   4.901   2.326   1.831 -0.3774  0.5142  0.0970
 1744TIP3    H126723   4.877   2.332   1.739 -0.0003 -0.0938 -0.0428
 1744TIP3    H226724   4.946   2.242   1.839 -2.8227 -0.7470  1.3748
 1745TIP3   OH226725   4.821   3.024  17.236  0.1505  0.3914  0.5203
 1745TIP3    H126726   4.736   2.983  17.254  0.4488 -0.3386  0.2977
 1745TIP3    H226727   4.843   3.070  17.317 -0.7096  1.0431  0.3904
 1746TIP3   OH226728   0.940   4.768  16.695 -0.2720 -0.3631 -0.1497
 1746TIP3    H126729   1.013   4.723  16.653  0.3502  0.1149  0.4064
 1746TIP3    H226730   0.871   4.771  16.628  0.3302 -0.5309 -0.7745
 1747TIP3   OH226731   0.018   4.759  16.525  0.4272 -0.2675  0.0179
 1747TIP3    H126732  -0.047   4.809  16.475  1.1297  0.5558 -0.0744
 1747TIP3    H226733  -0.000   4.668  16.502  0.3409  0.0632 -1.2789
 1748TIP3   OH226734   4.952   5.332   2.837  0.3700  0.3901 -0.1311
 1748TIP3    H126735   5.039   5.322   2.876 -0.0200 -0.3118  0.5541
 1748TIP3    H226736   4.966   5.311   2.744  0.9132  0.2037 -0.0131
 1749TIP3   OH226737   5.679   5.187   0.068 -0.2948  0.0379 -0.2579
 1749TIP3    H126738   5.610   5.124   0.050  0.3387 -0.9891  0.8708
 1749TIP3    H226739   5.635   5.272   0.067 -0.8003 -0.2049 -3.8134
 1750TIP3   OH226740   6.043   2.250   4.584  0.5958 -0.4142 -0.6192
 1750TIP3    H126741   5.972   2.218   4.529  0.0529  0.5330 -0.4931
 1750TIP3    H226742   6.069   2.333   4.543  0.4674  0.0915  0.3019
 1751TIP3   OH226743   6.576   6.355   3.349  0.0243  0.3905  0.1432
 1751TIP3    H126744   6.539   6.426   3.402  1.1261  0.6422  0.6074
 1751TIP3    H226745   6.670   6.374   3.348 -0.0542  0.7899 -2.5291
 1752TIP3   OH226746   1.718   6.528  12.795 -0.1309  0.1583 -0.0400
 1752TIP3    H126747   1.628   6.515  12.765  0.6283  0.3953 -2.5650
 1752TIP3    H226748   1.767   6.458  12.752  0.7276 -0.7216  2.2860
 1753TIP3   OH226749   6.790   3.697   2.107  0.6003  0.2161 -0.1021
 1753TIP3    H126750   6.727   3.631   2.134  0.7850 -0.4935 -1.3941
 1753TIP3    H226751   6.756   3.779   2.144 -0.4907 -0.3284  0.1186
 1754TIP3   OH226752   4.857   6.529   5.635  0.9264 -0.1485 -0.3022
 1754TIP3    H126753   4.805   6.474   5.575 -1.8040 -0.2730  2.0613
 1754TIP3    H226754   4.848   6.618   5.599  1.2039 -0.5481 -1.3633
 1755TIP3   OH226755   4.996   2.896   5.354  0.1702 -0.2712  0.1818
 1755TIP3    H126756   4.903   2.874   5.346 -0.0127  0.4880  0.2297
 1755TIP3    H226757   4.997   2.981   5.398  0.9785 -1.5930  2.7723
 1756TIP3   OH226758   0.793   3.366   2.552 -0.0861  0.0481 -0.1244
 1756TIP3    H126759   0.851   3.441   2.539 -0.2488 -0.0483 -1.4650
 1756TIP3    H226760   0.707   3.396   2.523 -0.4212 -0.2625  0.5234
 1757TIP3   OH226761   1.637   6.138  17.088  0.6488 -0.3172 -0.0141
 1757TIP3    H126762   1.668   6.224  17.060  0.2146  0.0060  0.4978
 1757TIP3    H226763   1.701   6.109  17.153  0.3534 -0.0294  0.4065
 1758TIP3   OH226764   6.411   5.238   6.256  0.4200 -0.2786 -0.3091
 1758TIP3    H126765   6.386   5.304   6.320 -0.4453 -0.6215 -0.2934
 1758TIP3    H226766   6.331   5.218   6.208  0.6572 -1.3407 -0.2930
 1759TIP3   OH226767   6.624   0.396  12.953 -0.0878  0.6724 -0.2536
 1759TIP3    H126768   6.602   0.306  12.927 -1.9378  0.7701  0.8320
 1759TIP3    H226769   6.574   0.410  13.034  1.1312  2.2693  0.2512
 1760TIP3   OH226770   3.809   5.984  10.532  0.1621  0.4439 -0.6763
 1760TIP3    H126771   3.883   5.926  10.550  0.3286  0.9371  0.2622
 1760TIP3    H226772   3.744   5.963  10.599 -1.0532 -0.8115 -2.1969
 1761TIP3   OH226773   4.505   6.567   0.858  0.0038  0.0756  0.7394
 1761TIP3    H126774   4.544   6.482   0.880 -1.0899 -0.1051  2.0682
 1761TIP3    H226775   4.425   6.545   0.810 -0.9475  0.2982  2.1913
 1762TIP3   OH226776   3.779   0.611  15.543 -0.7052  0.4283 -0.5395
 1762TIP3    H126777   3.861   0.577  15.505  0.9609  1.8444  1.6510
 1762TIP3    H226778   3.724   0.534  15.553  0.5138 -0.6290 -1.6443
 1763TIP3   OH226779   4.507   3.100   4.257 -0.2922  0.0077  0.1291
 1763TIP3    H126780   4.447   3.082   4.184 -0.7131 -1.6350  0.8547
 1763TIP3    H226781   4.593   3.102   4.217 -0.6272  0.2349 -0.5906
 1764TIP3   OH226782   6.780   2.113  16.435  0.0680  0.2168 -0.2088
 1764TIP3    H126783   6.801   2.195  16.390 -1.0597  1.2512  1.1185
 1764TIP3    H226784   6.860   2.092  16.484  0.2254  0.7447 -0.2309
 1765TIP3   OH226785   5.934   5.818  15.828 -0.2247 -0.1161  0.5527
 1765TIP3    H126786   5.885   5.860  15.898 -1.3681 -0.5082 -0.0044
 1765TIP3    H226787   5.898   5.855  15.747  0.1383 -0.6800  0.1236
 1766TIP3   OH226788   6.653   5.241  12.994 -0.3683 -0.6843 -0.3664
 1766TIP3    H126789   6.714   5.240  13.068 -0.4872  1.6686 -0.1969
 1766TIP3    H226790   6.705   5.210  12.920  0.0732 -1.9348  0.4277
 1767TIP3   OH226791   0.188   0.156  14.422  0.5944 -0.1530  0.0990
 1767TIP3    H126792   0.113   0.133  14.366  1.5876  0.6643 -1.6046
 1767TIP3    H226793   0.233   0.073  14.437  1.4638 -0.1117 -2.0462
 1768TIP3   OH226794   6.193   5.753   5.853  0.5520 -0.4783 -0.1962
 1768TIP3    H126795   6.174   5.711   5.936 -1.4289 -2.0203 -1.3809
 1768TIP3    H226796   6.252   5.825   5.875 -1.2126  0.1454  2.7447
 1769TIP3   OH226797   6.476   1.301   1.163 -0.4562 -0.0894 -0.0128
 1769TIP3    H126798   6.380   1.298   1.162 -0.4211 -2.8735  0.1289
 1769TIP3    H226799   6.498   1.393   1.148 -3.1809  0.9860  2.1245
 1770TIP3   OH226800   3.903   0.414  14.715  0.2551 -0.6324 -0.6278
 1770TIP3    H126801   3.899   0.461  14.632  3.3167 -1.3519 -1.2603
 1770TIP3    H226802   3.903   0.322  14.690 -0.3214 -0.8798  0.2674
 1771TIP3   OH226803   3.692   4.738   4.495 -0.5320  0.5908 -0.2831
 1771TIP3    H126804   3.742   4.768   4.419  1.0519  2.2062  1.3258
 1771TIP3    H226805   3.601   4.750   4.470 -0.0376  0.4409 -2.1892
 1772TIP3   OH226806   4.138   6.612  13.051  0.7094 -0.1416 -0.6184
 1772TIP3    H126807   4.160   6.704  13.060  1.2028 -0.0077 -2.8958
 1772TIP3    H226808   4.151   6.593  12.958 -2.3715 -1.7355 -0.7732
 1773TIP3   OH226809   1.535   4.285  13.827 -0.3085  0.0794  0.1821
 1773TIP3    H126810   1.572   4.276  13.739 -0.9258 -0.9635  0.0299
 1773TIP3    H226811   1.611   4.290  13.885  0.1056  0.9864 -0.4204
 1774TIP3   OH226812   0.138   5.363   0.880 -0.2492 -0.5103 -0.2724
 1774TIP3    H126813   0.160   5.296   0.815  1.5786  0.1344 -0.3435
 1774TIP3    H226814   0.084   5.316   0.944  1.2151 -2.1255 -0.1820
 1775TIP3   OH226815   3.269   2.551  11.009  0.4036  0.0940 -0.0752
 1775TIP3    H126816   3.260   2.484  10.941 -1.1349  1.0863 -0.8917
 1775TIP3    H226817   3.340   2.607  10.978  1.4376 -0.9212  0.4239
 1776TIP3   OH226818   3.570   3.018   4.901  0.0934  0.2135  0.6547
 1776TIP3    H126819   3.536   3.102   4.930  1.7048  0.6899  1.2300
 1776TIP3    H226820   3.527   3.003   4.816 -2.0122  0.4487  1.6619
 1777TIP3   OH226821   0.409   3.229  16.871  0.3192 -0.1313 -0.3911
 1777TIP3    H126822   0.438   3.320  16.865  0.0203 -0.1542 -2.5286
 1777TIP3    H226823   0.320   3.234  16.907  1.0181  0.2778  1.3092
 1778TIP3   OH226824   5.661   5.931  11.790  0.1550 -0.2592 -0.1571
 1778TIP3    H126825   5.634   5.983  11.865  1.9961  0.2180  0.1828
 1778TIP3    H226826   5.688   5.995  11.724  0.5703 -0.7329 -0.4563
 1779TIP3   OH226827   0.680   2.906   2.110 -0.0752 -0.5765  0.4752
 1779TIP3    H126828   0.629   2.986   2.117  1.5214  0.4248  1.1723
 1779TIP3    H226829   0.619   2.836   2.130 -1.5780  0.4497 -0.4859
 1780TIP3   OH226830   3.168   3.362   0.286  0.4875 -0.7233  0.1256
 1780TIP3    H126831   3.261   3.383   0.277  0.5201 -0.9532 -0.0556
 1780TIP3    H226832   3.154   3.359   0.381 -0.0274  2.4216  0.2097
 1781TIP3   OH226833   3.167   1.644  15.110 -0.5369  0.4416 -0.1901
 1781TIP3    H126834   3.262   1.652  15.095 -0.4280  1.1798  0.8196
 1781TIP3    H226835   3.152   1.695  15.190 -1.8279  0.5039 -0.4778
 1782TIP3   OH226836   0.132   3.043  10.646 -0.0845 -0.2514 -0.1901
 1782TIP3    H126837   0.071   3.116  10.655  0.9976  0.4728  1.4756
 1782TIP3    H226838   0.083   2.967  10.680 -0.0342  0.3527  1.2840
 1783TIP3   OH226839   1.205   6.262   4.346 -0.0130 -0.7218 -0.4483
 1783TIP3    H126840   1.172   6.227   4.429 -0.5088  3.0440  1.0030
 1783TIP3    H226841   1.300   6.268   4.360 -0.3371  2.1218  0.7697
 1784TIP3   OH226842   0.655   3.623   2.442  0.3109 -0.0757  0.0794
 1784TIP3    H126843   0.667   3.672   2.524  1.7132  0.3909 -0.3921
 1784TIP3    H226844   0.575   3.660   2.404  0.9387  1.3467  0.0969
 1785TIP3   OH226845   2.531   0.073   0.890 -0.8192  0.2056  0.7455
 1785TIP3    H126846   2.464   0.007   0.874 -1.2416  0.5353  1.1375
 1785TIP3    H226847   2.503   0.149   0.839  0.0787 -0.1748 -0.3338
 1786TIP3   OH226848   2.641   2.072  12.835 -0.0217 -0.4597 -0.0029
 1786TIP3    H126849   2.558   2.118  12.849 -0.7767 -1.3691 -1.4160
 1786TIP3    H226850   2.635   1.994  12.890 -0.3025 -0.7674 -0.4699
 1787TIP3   OH226851   1.360   6.080   0.614 -0.1025 -0.5477 -0.5040
 1787TIP3    H126852   1.334   6.020   0.683 -0.4897 -1.9649 -1.8566
 1787TIP3    H226853   1.290   6.073   0.548  0.1667  0.9014 -0.9700
 1788TIP3   OH226854   0.710   2.259  13.585 -0.3744  0.0505  0.0264
 1788TIP3    H126855   0.658   2.237  13.662 -1.1037  0.8452 -0.2284
 1788TIP3    H226856   0.717   2.177  13.536  0.4181 -0.5531  1.1175
 1789TIP3   OH226857   5.121   1.003  16.969 -0.2394  0.2808  0.3483
 1789TIP3    H126858   5.210   0.968  16.970 -0.6216 -0.8664 -2.0784
 1789TIP3    H226859   5.111   1.042  16.882 -1.0914  3.2336  1.6871
 1790TIP3   OH226860   5.834   1.259  13.851  0.0734  0.1423 -0.0147
 1790TIP3    H126861   5.769   1.205  13.806 -0.2847  0.0852  0.5575
 1790TIP3    H226862   5.913   1.250  13.798 -0.0372 -0.7951 -0.0407
 1791TIP3   OH226863   1.551   3.022   1.119  0.2481 -0.2312 -0.2062
 1791TIP3    H126864   1.585   3.053   1.035 -0.0476 -0.2296 -0.3276
 1791TIP3    H226865   1.613   2.954   1.146  0.7365  0.2651 -0.0774
 1792TIP3   OH226866   5.895   6.589   4.123  0.1712  0.3298 -0.2369
 1792TIP3    H126867   5.960   6.656   4.145  0.8228 -0.3607 -0.0520
 1792TIP3    H226868   5.937   6.506   4.147 -0.4127 -0.1855 -0.9696
 1793TIP3   OH226869   0.699   2.688  14.740  0.0114  0.1605 -0.1862
 1793TIP3    H126870   0.719   2.782  14.743  1.4084 -0.0582 -1.8742
 1793TIP3    H226871   0.764   2.649  14.798 -0.3121  0.2041  0.2028
 1794TIP3   OH226872   2.324   6.590  11.164  0.3091 -0.3082  0.7876
 1794TIP3    H126873   2.331   6.616  11.072 -0.5178 -0.6540  0.6251
 1794TIP3    H226874   2.409   6.552  11.184  1.7554  2.9712  1.1830
 1795TIP3   OH226875   4.321   2.064   1.816  0.1229 -0.1315  0.2323
 1795TIP3    H126876   4.331   2.156   1.791 -2.6284 -0.1390 -1.2115
 1795TIP3    H226877   4.270   2.066   1.897 -0.0310 -0.3702  0.1430
 1796TIP3   OH226878   5.970   4.623   5.587 -0.1242 -0.0139  0.8016
 1796TIP3    H126879   5.914   4.673   5.526  1.1032 -0.4571 -0.7304
 1796TIP3    H226880   5.909   4.578   5.644 -1.3132  0.7356  0.1528
 1797TIP3   OH226881   0.557   0.027   3.368 -0.3770  0.5240 -0.1612
 1797TIP3    H126882   0.609   0.107   3.361  0.8380 -0.2777 -0.5885
 1797TIP3    H226883   0.520   0.013   3.281 -1.2254  1.0336  0.1143
 1798TIP3   OH226884   2.720   3.397  14.025 -0.0983 -0.2894  0.3444
 1798TIP3    H126885   2.664   3.361  14.094 -0.5262  0.1489  0.2320
 1798TIP3    H226886   2.800   3.424  14.070 -0.4547  0.1834  0.7084
 1799TIP3   OH226887   1.324   3.197  16.854 -0.0835  0.4647 -0.3911
 1799TIP3    H126888   1.259   3.224  16.918 -1.2321 -1.1080 -0.8507
 1799TIP3    H226889   1.306   3.252  16.777  0.9506  1.9738  0.4194
 1800TIP3   OH226890   2.705   4.802  14.052 -0.3215 -0.3542  0.2814
 1800TIP3    H126891   2.750   4.840  14.128  0.2431 -0.5418  0.0460
 1800TIP3    H226892   2.776   4.772  13.995 -0.7616 -1.0614  0.1088
 1801TIP3   OH226893   4.000   3.780  16.751 -0.4338  0.6178 -0.4009
 1801TIP3    H126894   4.050   3.699  16.743 -1.6709 -0.0821 -1.1151
 1801TIP3    H226895   4.017   3.809  16.841 -0.0335 -0.4483 -0.1213
 1802TIP3   OH226896   2.569   4.684  13.472 -0.3823 -0.0597  0.3798
 1802TIP3    H126897   2.553   4.759  13.415  1.3069 -1.0935 -1.5315
 1802TIP3    H226898   2.615   4.721  13.548  0.4615  0.8506 -0.5553
 1803TIP3   OH226899   1.884   4.197   0.101 -0.2295 -0.6773 -0.3951
 1803TIP3    H126900   1.942   4.272   0.108 -2.2725  1.0150 -0.9492
 1803TIP3    H226901   1.798   4.235   0.081 -1.2934 -3.1601 -0.7522
 1804TIP3   OH226902   1.413   4.884  16.455 -0.0858  0.5271 -0.0336
 1804TIP3    H126903   1.505   4.865  16.434  0.4796  1.0603  1.8611
 1804TIP3    H226904   1.365   4.809  16.421  0.9048  0.7815 -2.0886
 1805TIP3   OH226905   6.650   4.572   4.881 -0.4068 -0.0388 -0.2381
 1805TIP3    H126906   6.631   4.479   4.890 -1.5009  0.2768  0.8951
 1805TIP3    H226907   6.585   4.604   4.819 -1.0123  0.2438  0.5225
 1806TIP3   OH226908   5.348   2.430  11.919 -0.3060 -0.4140 -0.1501
 1806TIP3    H126909   5.441   2.431  11.942 -0.1632 -0.0805 -0.7319
 1806TIP3    H226910   5.335   2.510  11.867 -0.7600 -0.8175 -0.6670
 1807TIP3   OH226911   3.797   2.100   2.965  0.3374 -0.1467  0.5020
 1807TIP3    H126912   3.779   2.077   3.057  1.2764 -0.4071  0.6371
 1807TIP3    H226913   3.884   2.063   2.949  0.1651 -0.1170 -0.5056
 1808TIP3   OH226914   2.402   3.580   3.540 -0.1689  0.0107  0.1113
 1808TIP3    H126915   2.410   3.601   3.633  0.7208 -0.0349  0.0482
 1808TIP3    H226916   2.319   3.533   3.533  0.6132 -1.5687  1.1852
 1809TIP3   OH226917   6.636   1.189   1.371  0.1606 -0.7232 -0.2698
 1809TIP3    H126918   6.600   1.218   1.455  0.9225  3.1019 -1.1692
 1809TIP3    H226919   6.575   1.224   1.305  0.4850 -2.2278 -1.3841
 1810TIP3   OH226920   3.824   6.309   6.384  0.1472 -0.6914  0.1863
 1810TIP3    H126921   3.851   6.222   6.413  0.7360 -0.5630  0.0174
 1810TIP3    H226922   3.746   6.328   6.437 -0.3221 -1.5501 -0.1812
 1811TIP3   OH226923   5.604   6.434   1.734  0.0376  0.2774 -0.1102
 1811TIP3    H126924   5.634   6.410   1.822 -0.9143 -0.9396 -0.1057
 1811TIP3    H226925   5.606   6.352   1.685  1.4950  1.1147 -1.5195
 1812TIP3   OH226926   1.338   5.781   5.235 -0.1105 -0.4268  0.2661
 1812TIP3    H126927   1.398   5.723   5.187  1.0374 -1.2689  2.6453
 1812TIP3    H226928   1.371   5.780   5.325 -2.1895  1.1584  1.0741
 1813TIP3   OH226929   1.271   3.352   3.396 -0.1484  0.1112 -0.0310
 1813TIP3    H126930   1.188   3.309   3.419 -0.1164 -0.2763 -0.6349
 1813TIP3    H226931   1.333   3.280   3.388  0.3726  0.4389  0.9036
 1814TIP3   OH226932   5.878   2.182   8.026  0.4524 -0.6767  0.0879
 1814TIP3    H126933   5.810   2.239   8.063  1.2080  0.0982  0.2824
 1814TIP3    H226934   5.944   2.174   8.095  0.6024 -1.3770 -0.1246
 1815TIP3   OH226935   2.930   5.260  16.090  0.5078 -0.7167  0.2561
 1815TIP3    H126936   2.963   5.309  16.165 -0.9600 -1.0897  1.1723
 1815TIP3    H226937   2.950   5.169  16.110  1.4845 -0.6777 -0.5301
 1816TIP3   OH226938   5.193   2.887  12.209  0.0315 -0.4336  0.6789
 1816TIP3    H126939   5.202   2.982  12.222 -1.2860 -0.1396 -0.4136
 1816TIP3    H226940   5.191   2.877  12.114 -3.1637 -1.1998  0.7777
 1817TIP3   OH226941   4.544   6.118   3.911  0.4346 -0.1172 -0.7235
 1817TIP3    H126942   4.622   6.101   3.858  0.5135  0.7287 -0.8839
 1817TIP3    H226943   4.472   6.123   3.847  0.3952  0.0213 -0.6696
 1818TIP3   OH226944   4.189   2.571   4.134 -0.3333 -0.1541  0.0774
 1818TIP3    H126945   4.137   2.527   4.201  0.0714  1.1683  1.2786
 1818TIP3    H226946   4.207   2.657   4.170  0.3815  0.3773 -1.4988
 1819TIP3   OH226947   5.672   2.430  14.887  0.3617  0.0577 -0.3295
 1819TIP3    H126948   5.669   2.345  14.844 -0.7363  0.1680 -0.4835
 1819TIP3    H226949   5.673   2.493  14.815 -0.8306  0.2270 -0.1970
 1820TIP3   OH226950   4.771   2.137  11.803  0.3148 -0.2956  0.0830
 1820TIP3    H126951   4.762   2.044  11.785  2.1991 -0.6506  0.9017
 1820TIP3    H226952   4.767   2.179  11.717  1.3149 -1.2856 -0.4485
 1821TIP3   OH226953   4.036   2.073   5.674  0.0591 -0.0344 -0.6172
 1821TIP3    H126954   4.051   2.155   5.629  1.3156  1.0045  1.6320
 1821TIP3    H226955   3.942   2.056   5.662 -0.6855  2.8558  0.7133
 1822TIP3   OH226956   2.516   6.338   5.734 -0.1205  0.3917  0.3942
 1822TIP3    H126957   2.535   6.393   5.659  0.1565 -1.2898 -0.7812
 1822TIP3    H226958   2.433   6.295   5.713  0.8045 -1.3849  0.2754
 1823TIP3   OH226959   1.165   5.619  12.470  0.3868  0.1401 -0.6875
 1823TIP3    H126960   1.194   5.685  12.406  1.7184  0.5360  0.3093
 1823TIP3    H226961   1.190   5.536  12.431  0.2627  0.3170 -1.1538
 1824TIP3   OH226962   3.633   3.469  10.861 -0.3740  1.1091  0.5733
 1824TIP3    H126963   3.649   3.556  10.826 -0.9229  0.5951 -1.0102
 1824TIP3    H226964   3.542   3.451  10.838  0.0204 -0.2624  0.0565
 1825TIP3   OH226965   0.769   1.085   5.640 -0.0738 -0.1243 -0.3100
 1825TIP3    H126966   0.778   1.074   5.545  2.6648 -0.9946  0.0048
 1825TIP3    H226967   0.768   1.180   5.653  0.4297  0.0017 -1.1381
 1826TIP3   OH226968   4.226   3.684   2.183  0.7531 -0.2717 -0.6449
 1826TIP3    H126969   4.275   3.733   2.116 -1.0390  0.3778 -1.5021
 1826TIP3    H226970   4.136   3.685   2.152 -0.1283  0.1186  1.8287
 1827TIP3   OH226971   1.082   5.856  15.232 -0.2549  0.1195 -0.2652
 1827TIP3    H126972   1.177   5.869  15.232 -0.1986 -0.2432 -1.0982
 1827TIP3    H226973   1.061   5.836  15.140 -1.7319  4.5624 -1.0507
 1828TIP3   OH226974   2.530   1.114   6.237  0.2448 -0.5784 -0.1898
 1828TIP3    H126975   2.484   1.049   6.289  0.9664 -0.4392  0.6308
 1828TIP3    H226976   2.582   1.164   6.300  0.6277  0.0165 -0.9553
 1829TIP3   OH226977   5.484   4.789  16.250  0.0498 -0.4323 -0.5034
 1829TIP3    H126978   5.442   4.766  16.167  1.1584 -0.1452 -1.1542
 1829TIP3    H226979   5.576   4.805  16.226  0.5107 -0.9851  0.8836
 1830TIP3   OH226980   6.068   0.944  16.651 -0.2700 -0.1709  0.1878
 1830TIP3    H126981   6.117   0.868  16.621  0.6404  0.5977 -0.2787
 1830TIP3    H226982   6.007   0.963  16.580  0.8029  0.6923 -0.4932
 1831TIP3   OH226983   0.158   1.687   4.127 -0.4415  0.3205 -0.6359
 1831TIP3    H126984   0.154   1.596   4.098  1.7286 -1.1432  3.2662
 1831TIP3    H226985   0.215   1.730   4.063  1.4294 -1.9323 -0.5552
 1832TIP3   OH226986   1.252   3.269  15.783 -0.2046  0.2620 -0.0275
 1832TIP3    H126987   1.204   3.243  15.862 -0.5322 -0.4065 -0.4475
 1832TIP3    H226988   1.233   3.200  15.719 -0.7660  1.3127 -1.0208
 1833TIP3   OH226989   0.348   1.108  15.423  0.7902  0.4372  0.1817
 1833TIP3    H126990   0.398   1.053  15.484  0.2266  0.5754  0.7653
 1833TIP3    H226991   0.415   1.160  15.379  1.2355  0.0497  0.3887
 1834TIP3   OH226992   1.074   6.053  14.506  0.3296 -0.2115 -0.4982
 1834TIP3    H126993   1.152   6.101  14.481 -0.6581  2.0181  0.5650
 1834TIP3    H226994   1.106   5.966  14.531  2.3077  0.3273 -1.1100
 1835TIP3   OH226995   2.691   0.610   5.408 -0.0449  0.6845  0.1429
 1835TIP3    H126996   2.753   0.636   5.476  0.6823 -1.0367  0.1563
 1835TIP3    H226997   2.611   0.589   5.455  0.8596 -1.7772  0.6182
 1836TIP3   OH226998   6.731   2.699  13.578 -0.2698  0.1753 -0.1412
 1836TIP3    H126999   6.655   2.646  13.556 -0.4864  0.1098  0.7428
 1836TIP3    H227000   6.710   2.787  13.544 -1.6617  0.6821  1.9264
 1837TIP3   OH227001   3.322   3.903  12.819 -0.0147 -0.3801 -0.1622
 1837TIP3    H127002   3.347   3.980  12.768  0.6256 -2.0229 -2.4196
 1837TIP3    H227003   3.252   3.862  12.768 -0.4348 -1.2065  1.0623
 1838TIP3   OH227004   2.419   2.366  15.255 -0.2633  0.4753 -0.3267
 1838TIP3    H127005   2.376   2.348  15.339 -0.2295 -1.4899 -0.7097
 1838TIP3    H227006   2.388   2.453  15.230 -1.6188  0.3510  0.8767
 1839TIP3   OH227007   4.741   6.649  16.777  0.3192 -0.1128  0.0938
 1839TIP3    H127008   4.650   6.647  16.746  0.1260  1.2325  0.5416
 1839TIP3    H227009   4.770   6.558  16.771 -0.9365 -0.4944 -0.4133
 1840TIP3   OH227010   1.254   5.423   1.163  0.1194  0.3457 -0.1841
 1840TIP3    H127011   1.321   5.366   1.125  1.0455  1.0049  0.4347
 1840TIP3    H227012   1.297   5.463   1.238 -1.3781 -0.1858  0.9796
 1841TIP3   OH227013   3.643   5.771   0.050 -0.0324  0.3708 -0.2999
 1841TIP3    H127014   3.731   5.734   0.059  0.0024  0.8075  1.2456
 1841TIP3    H227015   3.613   5.742  -0.036  1.1995 -0.6915 -0.3747
 1842TIP3   OH227016   5.057   0.425   6.091  0.1483 -0.2199  0.2304
 1842TIP3    H127017   5.054   0.368   6.168  0.6977 -0.4391  0.0980
 1842TIP3    H227018   5.144   0.409   6.053 -0.4350 -0.7715 -0.9274
 1843TIP3   OH227019   2.632   0.430  15.487  0.2376  0.0579 -0.0440
 1843TIP3    H127020   2.707   0.403  15.540  1.2170  1.4953 -0.6707
 1843TIP3    H227021   2.666   0.433  15.398 -1.0401 -1.0039 -0.5692
 1844TIP3   OH227022   5.620   5.918   1.607 -0.1947  0.2344  0.5673
 1844TIP3    H127023   5.698   5.886   1.562  0.3294  0.8663  1.0144
 1844TIP3    H227024   5.548   5.868   1.569  0.4487 -0.4937  0.2878
 1845TIP3   OH227025   1.816   4.904   0.849  0.2053 -0.0027 -0.1731
 1845TIP3    H127026   1.786   4.818   0.820 -0.2233  0.6394 -1.7389
 1845TIP3    H227027   1.906   4.910   0.817  0.7876 -0.5053  1.3582
 1846TIP3   OH227028   6.812   5.667   6.287  0.3590  0.2442  0.2681
 1846TIP3    H127029   6.797   5.613   6.209  0.6557  0.7010 -0.1091
 1846TIP3    H227030   6.903   5.698   6.278 -0.2251  1.8914 -0.2035
 1847TIP3   OH227031   2.686   1.740   4.593 -0.2543 -0.0115 -0.2400
 1847TIP3    H127032   2.755   1.755   4.529 -0.8524  1.1671 -0.6339
 1847TIP3    H227033   2.728   1.755   4.678  0.6956 -2.2073 -0.2950
 1848TIP3   OH227034   5.135   4.320  17.023 -0.2785  0.2498 -0.6040
 1848TIP3    H127035   5.161   4.240  17.068  0.9238  0.7938 -0.3231
 1848TIP3    H227036   5.106   4.379  17.093 -3.5617 -0.8069 -1.0072
 1849TIP3   OH227037   5.871   3.113  16.203 -0.4403 -0.0317  0.1444
 1849TIP3    H127038   5.818   3.047  16.158  1.1179 -0.5136 -1.0271
 1849TIP3    H227039   5.806   3.173  16.241 -1.8668  0.6941 -3.1787
 1850TIP3   OH227040   5.411   4.181  14.353  0.1120  0.5819 -0.0404
 1850TIP3    H127041   5.348   4.231  14.405  1.0897  1.9300 -0.1242
 1850TIP3    H227042   5.413   4.095  14.394 -1.1076  0.8191  0.5245
 1851TIP3   OH227043   6.611   4.402   2.527 -0.3195 -0.3140  0.1750
 1851TIP3    H127044   6.530   4.445   2.500 -0.1592 -1.3209 -2.0296
 1851TIP3    H227045   6.655   4.381   2.444  1.6742 -0.7526  1.3236
 1852TIP3   OH227046   3.893   4.354  11.570 -0.0007  0.5009 -0.7341
 1852TIP3    H127047   3.935   4.412  11.634 -4.2847  1.8867  0.9430
 1852TIP3    H227048   3.898   4.403  11.488 -0.9786  1.9605  0.0643
 1853TIP3   OH227049   2.258   2.616  16.888  0.3355  0.2395 -0.7393
 1853TIP3    H127050   2.336   2.609  16.834  0.2711  0.8468 -0.9173
 1853TIP3    H227051   2.257   2.707  16.917  0.3871 -0.0796  0.3121
 1854TIP3   OH227052   4.188   2.248  14.864 -0.3512  0.7829 -0.4069
 1854TIP3    H127053   4.153   2.327  14.824  0.5845  0.9312 -0.9509
 1854TIP3    H227054   4.111   2.195  14.885 -0.9010  1.1405 -1.4902
 1855TIP3   OH227055   1.680   1.730   1.239  0.5259 -0.0157 -0.1699
 1855TIP3    H127056   1.611   1.693   1.185 -0.3692  0.6360  0.5224
 1855TIP3    H227057   1.745   1.661   1.246 -0.4383 -0.9212 -0.1236
 1856TIP3   OH227058   0.105   0.574  16.072 -0.7680  0.9726 -0.0932
 1856TIP3    H127059   0.037   0.506  16.075 -1.2385  1.4313 -0.3473
 1856TIP3    H227060   0.167   0.542  16.006  0.9034 -0.9682  2.3285
 1857TIP3   OH227061   3.074   3.509   1.533  0.4277  0.4925 -0.0990
 1857TIP3    H127062   2.995   3.562   1.541  0.5333  0.5657  0.4584
 1857TIP3    H227063   3.145   3.573   1.524  0.7611  0.4896  2.3538
 1858TIP3   OH227064   0.718   6.687   2.987 -0.4174  0.2273 -0.4471
 1858TIP3    H127065   0.693   6.676   2.896  0.1936 -2.1793 -0.3452
 1858TIP3    H227066   0.784   6.756   2.985 -0.4623  0.2492 -1.8072
 1859TIP3   OH227067   1.629   4.066  14.074 -0.0142  0.5581  0.0277
 1859TIP3    H127068   1.723   4.082  14.082 -0.0071  0.2834  0.4605
 1859TIP3    H227069   1.588   4.144  14.111  0.0316  0.1018  1.0340
 1860TIP3   OH227070   3.279   5.266   6.763 -0.2357  0.3243  0.2804
 1860TIP3    H127071   3.227   5.264   6.843 -0.3299 -0.4488  0.1967
 1860TIP3    H227072   3.215   5.251   6.693  0.0631 -0.3600  0.1584
 1861TIP3   OH227073   2.219   3.630   6.295 -0.1468  0.2678  0.2453
 1861TIP3    H127074   2.198   3.650   6.204 -0.0637 -1.6305 -0.2249
 1861TIP3    H227075   2.183   3.703   6.345  0.1302  1.5103 -1.3424
 1862TIP3   OH227076   2.640   2.858  11.849  0.3523 -0.1503 -0.6557
 1862TIP3    H127077   2.692   2.807  11.787 -0.3561  0.6420 -1.9282
 1862TIP3    H227078   2.705   2.909  11.897  1.0138 -1.8261  0.2407
 1863TIP3   OH227079   1.692   2.230  14.791  0.1392  0.1706 -0.2884
 1863TIP3    H127080   1.693   2.177  14.711  1.2632  0.9019 -0.7652
 1863TIP3    H227081   1.781   2.262  14.800 -0.2270  0.9300  0.7122
 1864TIP3   OH227082   3.867   0.648  17.260  0.0840  0.5185  0.8023
 1864TIP3    H127083   3.794   0.611  17.211 -0.1978  1.9541  0.1146
 1864TIP3    H227084   3.830   0.723  17.306  0.8701  0.5735  1.3617
 1865TIP3   OH227085   2.299   3.493   1.588  0.0363  0.0601  0.1047
 1865TIP3    H127086   2.330   3.421   1.533 -1.3167 -0.8620  0.5398
 1865TIP3    H227087   2.238   3.453   1.649 -0.0461  1.4277  0.9542
 1866TIP3   OH227088   6.627   0.254   5.682 -0.6457  0.2657  0.4148
 1866TIP3    H127089   6.547   0.222   5.639 -0.7332 -0.8353  1.3530
 1866TIP3    H227090   6.620   0.221   5.772  0.9707 -0.0372  0.4476
 1867TIP3   OH227091   3.998   3.010  14.567 -0.3647 -0.0907  0.1316
 1867TIP3    H127092   4.029   3.081  14.511 -0.2205 -1.2738 -1.3208
 1867TIP3    H227093   4.006   3.044  14.656  3.1165  0.3909 -0.3134
 1868TIP3   OH227094   1.623   4.237   5.818  0.2786 -0.2293 -0.4973
 1868TIP3    H127095   1.709   4.238   5.776  0.3581  0.9002 -0.3216
 1868TIP3    H227096   1.562   4.261   5.748  0.3496  1.1053 -0.1024
 1869TIP3   OH227097   5.085   2.107  11.411 -0.1203  0.1697 -0.5876
 1869TIP3    H127098   5.077   2.187  11.359  4.3238  0.9423 -0.2941
 1869TIP3    H227099   5.048   2.130  11.496  0.7901  1.8225 -0.6225
 1870TIP3   OH227100   2.410   1.017  14.093 -0.0971  0.1247  0.3955
 1870TIP3    H127101   2.484   1.012  14.154 -1.1281  0.0454  1.6510
 1870TIP3    H227102   2.443   0.975  14.013  2.5727  3.6598 -0.4933
 1871TIP3   OH227103   2.124   3.040  15.734  0.4979 -0.0407 -0.6435
 1871TIP3    H127104   2.045   3.089  15.711  0.6970 -0.4932 -2.2843
 1871TIP3    H227105   2.106   3.007  15.822 -1.2396 -0.3498 -1.0916
 1872TIP3   OH227106   2.720   1.780  12.274 -0.5136  0.0022 -0.1803
 1872TIP3    H127107   2.663   1.742  12.341  2.4597 -0.5221  2.1442
 1872TIP3    H227108   2.795   1.721  12.270  2.5112  3.5992  0.9260
 1873TIP3   OH227109   2.387   3.936   6.307  0.4085  0.3463  0.0446
 1873TIP3    H127110   2.421   4.024   6.323 -1.4310  1.0649  0.2325
 1873TIP3    H227111   2.293   3.944   6.326 -0.2363 -1.0239 -2.3850
 1874TIP3   OH227112   2.241   6.323   2.097  0.0280 -0.2940  0.0467
 1874TIP3    H127113   2.294   6.323   2.017 -1.5097 -0.4841 -1.0028
 1874TIP3    H227114   2.201   6.410   2.099 -0.2164 -0.4172  0.4297
 1875TIP3   OH227115   5.634   1.809  11.579  0.0726 -0.1390  0.4533
 1875TIP3    H127116   5.561   1.824  11.519  0.0514  0.9309  0.7460
 1875TIP3    H227117   5.693   1.883  11.566  1.1290 -1.0006  0.2030
 1876TIP3   OH227118   1.035   4.105   1.858  0.3357  0.0415 -0.2240
 1876TIP3    H127119   0.979   4.034   1.827  0.6049 -0.5661  0.6488
 1876TIP3    H227120   1.110   4.104   1.798  1.6494 -2.2021  1.3791
 1877TIP3   OH227121   2.556   1.488   0.748  0.2523 -0.3692 -0.4981
 1877TIP3    H127122   2.542   1.426   0.677 -0.2833  1.1798 -1.7798
 1877TIP3    H227123   2.561   1.573   0.704  1.1738  0.4662  1.2021
 1878TIP3   OH227124   0.811   4.263   0.672  0.3790 -0.2953  0.2527
 1878TIP3    H127125   0.803   4.340   0.615 -1.0865  0.7317  1.7922
 1878TIP3    H227126   0.756   4.196   0.630  1.2164 -0.3377 -0.7947
 1879TIP3   OH227127   3.953   5.060   1.357 -0.2858 -0.1388  0.0242
 1879TIP3    H127128   3.985   5.100   1.277  1.1900  1.0954  1.2218
 1879TIP3    H227129   4.009   4.983   1.370  0.7173  0.7219  0.8717
 1880TIP3   OH227130   4.831   2.037   4.736  0.2422 -0.4447  0.3391
 1880TIP3    H127131   4.859   2.127   4.717  0.2081 -0.3389  0.7968
 1880TIP3    H227132   4.780   2.045   4.817 -1.7197 -0.5084 -0.8504
 1881TIP3   OH227133   3.839   1.553  15.096 -0.1204  0.2867 -1.1069
 1881TIP3    H127134   3.837   1.468  15.139 -1.7931 -0.4663 -2.5921
 1881TIP3    H227135   3.926   1.588  15.114 -1.3294  0.9074  4.5321
 1882TIP3   OH227136   6.536   0.577  11.206  0.0360  0.2735  0.2135
 1882TIP3    H127137   6.571   0.637  11.272  1.1870 -0.1864  0.0301
 1882TIP3    H227138   6.566   0.613  11.122 -2.9965  1.9209 -0.2335
 1883TIP3   OH227139   5.429   5.496  12.203 -0.0314  0.4588 -0.1589
 1883TIP3    H127140   5.375   5.500  12.124  0.0647 -1.3846 -0.3417
 1883TIP3    H227141   5.407   5.412  12.243  1.0489  0.6941  0.9718
 1884TIP3   OH227142   4.744   5.908  14.070 -0.0858  0.0985  0.5449
 1884TIP3    H127143   4.730   5.879  14.160 -1.4255 -0.2860  0.2311
 1884TIP3    H227144   4.715   5.835  14.016  1.2359  0.1208 -0.1926
 1885TIP3   OH227145   2.151   0.386  12.921  0.1093  0.2404 -0.1197
 1885TIP3    H127146   2.196   0.398  12.837  2.3649 -0.0880  0.9858
 1885TIP3    H227147   2.132   0.292  12.925  0.4594  0.1709 -0.0511
 1886TIP3   OH227148   3.588   4.261  13.517  0.1837 -0.4182 -0.7662
 1886TIP3    H127149   3.521   4.248  13.450  1.3528 -0.2342 -1.9964
 1886TIP3    H227150   3.669   4.233  13.475  1.1181  0.8974  0.1267
 1887TIP3   OH227151   0.212   2.038   2.179 -0.3716  0.2720 -0.2678
 1887TIP3    H127152   0.208   1.974   2.108 -0.6889  2.6303 -2.4566
 1887TIP3    H227153   0.305   2.054   2.192 -0.3375  0.4201 -0.6983
 1888TIP3   OH227154   5.079   4.370  16.489  0.2523 -0.0283  0.7794
 1888TIP3    H127155   4.990   4.381  16.457 -0.2640  1.4183  2.6536
 1888TIP3    H227156   5.118   4.306  16.430 -1.6088  0.3218 -0.8562
 1889TIP3   OH227157   1.211   2.190  12.706 -0.5492 -0.0032 -0.0767
 1889TIP3    H127158   1.179   2.101  12.720 -0.9416  0.2248  0.5046
 1889TIP3    H227159   1.284   2.198  12.767 -1.1718  0.4202  0.6156
 1890TIP3   OH227160   4.227   6.142  13.412  0.4182  0.1082  0.0344
 1890TIP3    H127161   4.269   6.217  13.456  1.9125 -2.4737  3.1851
 1890TIP3    H227162   4.290   6.115  13.345  0.3880  0.8995 -0.3241
 1891TIP3   OH227163   2.394   6.520   4.434 -0.6703  0.1150 -0.2356
 1891TIP3    H127164   2.417   6.432   4.465  0.1205 -0.0055 -1.1248
 1891TIP3    H227165   2.311   6.509   4.388 -1.1446  0.0448  0.6257
 1892TIP3   OH227166   1.614   6.178  11.105  0.1210 -0.0530 -0.4558
 1892TIP3    H127167   1.667   6.098  11.109 -2.0367 -1.4394  2.4293
 1892TIP3    H227168   1.548   6.160  11.037 -0.1516 -0.6212 -0.0477
 1893TIP3   OH227169   2.113   5.324   2.148  0.2677  0.2651  0.4926
 1893TIP3    H127170   2.043   5.338   2.085  0.5354  0.0706  0.1520
 1893TIP3    H227171   2.109   5.400   2.206 -0.4211  0.1041  0.6600
 1894TIP3   OH227172   1.849   3.947   1.480 -0.3513  0.3383  0.0029
 1894TIP3    H127173   1.907   3.872   1.469 -0.4094  0.3346 -0.2863
 1894TIP3    H227174   1.908   4.022   1.487 -0.3389  0.4787 -1.4547
 1895TIP3   OH227175   5.813   4.635   2.641 -0.0751  0.3761 -0.2761
 1895TIP3    H127176   5.778   4.724   2.642 -0.1424  0.3526 -0.6150
 1895TIP3    H227177   5.908   4.647   2.637 -0.0748  0.4323 -0.1188
 1896TIP3   OH227178   2.944   1.816   3.529  0.6632 -0.1943 -0.5319
 1896TIP3    H127179   2.924   1.909   3.521  2.1209  0.4990  2.7775
 1896TIP3    H227180   2.930   1.797   3.622  1.7731 -2.9202 -0.8816
 1897TIP3   OH227181   3.320   5.837   2.203  0.0767  0.1249  0.0135
 1897TIP3    H127182   3.245   5.779   2.189  1.2364 -1.6697  0.9329
 1897TIP3    H227183   3.308   5.871   2.291 -0.0496  0.4455 -0.1265
 1898TIP3   OH227184   6.272   4.061   2.218 -0.1763  0.0296 -0.6397
 1898TIP3    H127185   6.283   4.086   2.126 -1.3495  0.5259 -0.6507
 1898TIP3    H227186   6.201   4.116   2.249  1.2528  0.9652  1.0027
 1899TIP3   OH227187   5.727   0.962  14.569 -0.2206 -0.1052  0.4848
 1899TIP3    H127188   5.778   0.917  14.502  0.1190 -1.6649  1.7650
 1899TIP3    H227189   5.671   1.023  14.520 -0.1364 -1.3720 -1.2152
 1900TIP3   OH227190   3.834   0.906   3.380 -0.6159 -0.3375  0.3982
 1900TIP3    H127191   3.860   0.997   3.400 -0.3488 -0.4640  0.6392
 1900TIP3    H227192   3.791   0.875   3.460  0.2366 -0.7656  0.6999
 1901TIP3   OH227193   6.754   2.942   3.482 -0.2899 -0.1266  0.1913
 1901TIP3    H127194   6.728   2.985   3.564 -2.1376 -0.3595 -0.2440
 1901TIP3    H227195   6.682   2.962   3.421  0.5384 -0.8701 -1.0547
 1902TIP3   OH227196   1.855   1.504  14.322 -1.0519  0.1345  0.0303
 1902TIP3    H127197   1.943   1.469  14.339 -0.3848  1.3735 -0.7912
 1902TIP3    H227198   1.867   1.599  14.321 -2.1027  0.2582 -1.6703
 1903TIP3   OH227199   6.684   2.786  11.256  0.1471  0.8255  0.5611
 1903TIP3    H127200   6.752   2.719  11.259 -0.2437  0.4420  1.0610
 1903TIP3    H227201   6.678   2.810  11.164 -0.1416 -0.2834  0.2785
 1904TIP3   OH227202   4.802   4.334   0.968 -0.3768 -0.5182 -0.7907
 1904TIP3    H127203   4.771   4.331   0.877 -0.9178 -1.1265 -0.5926
 1904TIP3    H227204   4.850   4.416   0.974 -1.7445  0.3391 -1.1849
 1905TIP3   OH227205   4.787   6.115   1.601  0.5230  0.2007 -0.3334
 1905TIP3    H127206   4.877   6.088   1.583  0.4695 -0.7406  0.7699
 1905TIP3    H227207   4.793   6.210   1.617  1.6471 -0.2298  1.8752
 1906TIP3   OH227208   2.052   2.543   2.531  0.6783 -0.2391  0.2796
 1906TIP3    H127209   2.053   2.528   2.625  1.3165  0.0633  0.3223
 1906TIP3    H227210   2.027   2.635   2.521 -0.4489 -0.5461  0.1092
 1907TIP3   OH227211   2.327   4.862  15.640  0.0032 -0.0173  0.1143
 1907TIP3    H127212   2.381   4.899  15.709  0.7664  0.7312 -0.8664
 1907TIP3    H227213   2.239   4.893  15.658  0.5681  1.9552 -0.4746
 1908TIP3   OH227214   0.071   5.712  16.691  0.8426  0.4720  0.1331
 1908TIP3    H127215   0.145   5.763  16.723  1.1797  1.0041 -1.4369
 1908TIP3    H227216   0.092   5.622  16.714  0.8956  0.8604  1.6917
 1909TIP3   OH227217   0.829   5.352   0.792  0.3791  0.2049  0.2107
 1909TIP3    H127218   0.770   5.360   0.717  0.7426  1.5326  0.0631
 1909TIP3    H227219   0.883   5.276   0.772 -0.2238 -0.0774 -0.3868
 1910TIP3   OH227220   2.259   4.744   5.104  0.0455  0.6615  0.1399
 1910TIP3    H127221   2.203   4.778   5.174 -0.3891 -0.1894  0.2108
 1910TIP3    H227222   2.285   4.658   5.135  0.1987  0.4594 -0.5629
 1911TIP3   OH227223   1.949   2.557  11.637  0.3261  0.2041  0.0552
 1911TIP3    H127224   1.871   2.507  11.615  0.3395 -0.7459  2.1112
 1911TIP3    H227225   2.003   2.497  11.688  2.6320  0.6899 -1.7324
 1912TIP3   OH227226   2.144   1.550   1.581 -0.2810  0.0052  0.1987
 1912TIP3    H127227   2.068   1.607   1.588 -2.2448 -2.1693 -2.1900
 1912TIP3    H227228   2.120   1.472   1.632  1.3996  0.3150  1.5045
 1913TIP3   OH227229   4.673   6.134   0.044  0.5163 -0.3782 -0.1443
 1913TIP3    H127230   4.620   6.076  -0.011  1.1736 -1.0485 -0.0734
 1913TIP3    H227231   4.635   6.221   0.030 -1.5563 -1.0657  1.0653
 1914TIP3   OH227232   2.273   1.426  16.920  0.5383 -0.1824  0.0444
 1914TIP3    H127233   2.214   1.407  16.847  0.1205  2.0556 -0.2342
 1914TIP3    H227234   2.355   1.382  16.898 -0.2347 -1.2438 -0.7605
 1915TIP3   OH227235   5.339   0.417  11.130 -0.0042 -0.3832  0.3102
 1915TIP3    H127236   5.371   0.349  11.071  1.4152  0.5850 -0.0615
 1915TIP3    H227237   5.263   0.455  11.084  0.4825 -0.3097 -0.4489
 1916TIP3   OH227238   4.842   6.613   1.570 -0.0768 -0.6543 -0.3492
 1916TIP3    H127239   4.782   6.543   1.596  0.4539 -0.6037  1.0331
 1916TIP3    H227240   4.906   6.618   1.641  0.0566  1.0524 -0.5655
 1917TIP3   OH227241   1.312   5.541   0.713  0.0850 -0.2749 -0.2215
 1917TIP3    H127242   1.312   5.484   0.636 -0.3817 -0.5756  0.0006
 1917TIP3    H227243   1.219   5.554   0.733  0.2063 -0.1336  0.2426
 1918TIP3   OH227244   5.406   4.983  16.450  0.0644 -0.3490 -0.0495
 1918TIP3    H127245   5.377   4.945  16.533  1.8359 -0.3507  0.6037
 1918TIP3    H227246   5.437   4.907  16.399  0.5390 -0.1552 -0.0515
 1919TIP3   OH227247   3.674   5.715  15.448 -0.3346  0.0028  0.3700
 1919TIP3    H127248   3.668   5.810  15.454 -0.2429  0.1796 -1.9038
 1919TIP3    H227249   3.624   5.683  15.523 -0.8175  1.8298  0.8493
 1920TIP3   OH227250   5.068   3.364   4.974 -0.1445  0.1106  0.3109
 1920TIP3    H127251   5.161   3.371   4.951 -0.3993  0.2524 -0.7017
 1920TIP3    H227252   5.068   3.334   5.065  0.8941  0.2167  0.3508
 1921TIP3   OH227253   5.694   1.566  13.474 -0.3360  0.9012 -0.3315
 1921TIP3    H127254   5.693   1.624  13.398 -1.7693  1.2182 -0.0748
 1921TIP3    H227255   5.613   1.586  13.521 -1.3625 -2.0531 -0.7931
 1922TIP3   OH227256   4.802   2.949   1.732 -0.2264  0.0604 -0.3874
 1922TIP3    H127257   4.765   2.883   1.790 -1.0188 -2.2910 -3.4181
 1922TIP3    H227258   4.727   3.003   1.706 -0.1176  0.2528 -0.3024
 1923TIP3   OH227259   0.609   6.624  14.318 -0.2155  0.3469 -0.7262
 1923TIP3    H127260   0.552   6.689  14.277 -2.2150 -0.0188  1.3740
 1923TIP3    H227261   0.559   6.592  14.393  0.7594 -3.5108 -1.6001
 1924TIP3   OH227262   5.822   3.468  12.505  0.4860  0.5175 -0.3736
 1924TIP3    H127263   5.886   3.539  12.493  1.9758 -0.5606  1.0476
 1924TIP3    H227264   5.847   3.402  12.441 -0.0413  0.6547 -0.7272
 1925TIP3   OH227265   5.664   4.755  12.870  0.0156 -0.5289 -0.7024
 1925TIP3    H127266   5.644   4.801  12.951 -0.4711  1.1944 -1.7473
 1925TIP3    H227267   5.757   4.733  12.877  0.1057  0.0988  0.0991
 1926TIP3   OH227268   5.499   1.688  14.142  0.3279  0.1083 -0.0718
 1926TIP3    H127269   5.405   1.677  14.126  0.4971  0.2478 -1.2362
 1926TIP3    H227270   5.541   1.640  14.070  1.1392  0.4314  0.1806
 1927TIP3   OH227271   0.304   5.844   4.314 -0.0162 -0.3132 -0.6883
 1927TIP3    H127272   0.378   5.859   4.373 -0.4151 -2.3014  0.3640
 1927TIP3    H227273   0.327   5.892   4.234  2.0120 -0.2002 -0.0729
 1928TIP3   OH227274   5.259   6.641   4.831 -0.1903 -0.4479  0.4409
 1928TIP3    H127275   5.186   6.683   4.877 -1.1081 -0.4799 -0.9595
 1928TIP3    H227276   5.234   6.549   4.826 -0.3567 -0.3475 -0.6067
 1929TIP3   OH227277   3.857   4.297   4.760  0.0681  0.4376  0.1050
 1929TIP3    H127278   3.786   4.236   4.743 -0.2837 -0.0122  2.9811
 1929TIP3    H227279   3.896   4.266   4.842  2.0681  2.0701 -0.1949
 1930TIP3   OH227280   5.497   6.649   3.950 -0.0703 -0.1194 -0.1264
 1930TIP3    H127281   5.474   6.701   4.028  0.1529 -2.8497  1.8348
 1930TIP3    H227282   5.434   6.676   3.884 -0.0708  2.5187  0.8701
 1931TIP3   OH227283   6.628   2.892  14.999  0.1015  0.4547 -0.2108
 1931TIP3    H127284   6.714   2.875  15.037 -0.2746  1.1456  0.9705
 1931TIP3    H227285   6.647   2.939  14.917  0.8421  0.6465  0.0675
 1932TIP3   OH227286   3.668   6.490   5.544 -0.5007 -0.2773  0.3068
 1932TIP3    H127287   3.677   6.400   5.578 -0.6979 -0.1014  0.8351
 1932TIP3    H227288   3.628   6.479   5.458 -2.1023 -0.6102  1.0601
 1933TIP3   OH227289   2.441   6.118  13.156 -0.0893 -0.7659  0.6950
 1933TIP3    H127290   2.408   6.100  13.244 -1.1803 -0.2725  0.3929
 1933TIP3    H227291   2.400   6.201  13.132  1.2093 -0.2474  0.2231
 1934TIP3   OH227292   1.384   5.963   2.482  0.1546  0.3859  0.4717
 1934TIP3    H127293   1.373   6.024   2.409  1.9964 -0.0637 -0.2034
 1934TIP3    H227294   1.333   5.886   2.457 -0.4141  0.8001  0.3462
 1935TIP3   OH227295   4.765   0.916  14.283 -0.2145 -0.6021 -0.2986
 1935TIP3    H127296   4.731   0.997  14.244  1.5147 -1.6395 -4.2608
 1935TIP3    H227297   4.688   0.861  14.293 -1.1783  0.9199  0.8794
 1936TIP3   OH227298   5.014   0.753  17.036 -0.2548  0.8708 -0.1506
 1936TIP3    H127299   5.004   0.843  17.005  1.9605  1.3054  0.3118
 1936TIP3    H227300   5.108   0.739  17.037 -0.5890 -1.5363 -0.3891
 1937TIP3   OH227301   6.552   4.197  16.486 -0.6459  0.1840 -0.3567
 1937TIP3    H127302   6.623   4.168  16.544 -0.6647 -1.3857 -1.0896
 1937TIP3    H227303   6.569   4.290  16.471  0.8087 -0.0050  0.0894
 1938TIP3   OH227304   0.214   0.417  14.340 -0.4310 -0.5433  1.1695
 1938TIP3    H127305   0.241   0.447  14.427 -1.0940 -0.4167  1.3312
 1938TIP3    H227306   0.260   0.333  14.329  0.1293 -0.2662  1.3902
 1939TIP3   OH227307   3.576   0.919  15.217 -0.4071 -0.1785  0.2232
 1939TIP3    H127308   3.610   0.836  15.251  0.1782  0.0921  0.3086
 1939TIP3    H227309   3.508   0.945  15.279 -0.7843 -0.7277  0.0456
 1940TIP3   OH227310   3.043   0.553  13.993  0.4443  0.1028  0.1758
 1940TIP3    H127311   3.039   0.591  13.905 -0.2905 -0.5682 -0.0815
 1940TIP3    H227312   3.115   0.599  14.036  1.0443  0.1731 -0.9015
 1941TIP3   OH227313   3.340   1.818  13.709  0.0113  0.3924  0.4766
 1941TIP3    H127314   3.346   1.912  13.691 -0.1096  0.3485  0.1900
 1941TIP3    H227315   3.279   1.785  13.642  0.6940 -0.0323  0.0598
 1942TIP3   OH227316   1.166   0.890   3.508  0.2746 -0.6417  0.3974
 1942TIP3    H127317   1.091   0.945   3.533  0.6656  0.4751 -0.8291
 1942TIP3    H227318   1.210   0.870   3.591 -0.4692  0.0331  0.9651
 1943TIP3   OH227319   3.802   2.369   1.206  0.0748 -0.4772  0.1766
 1943TIP3    H127320   3.740   2.325   1.148 -0.9427  0.7888  0.2696
 1943TIP3    H227321   3.869   2.403   1.148  0.7872 -1.9927  0.0878
 1944TIP3   OH227322   3.420   1.262  16.738 -0.3105  0.2292 -0.0367
 1944TIP3    H127323   3.374   1.343  16.715  0.5837  1.2652  1.7330
 1944TIP3    H227324   3.505   1.291  16.771 -0.7039 -1.3035  2.4660
 1945TIP3   OH227325   4.291   6.013   0.089 -0.2508  0.7323 -0.2956
 1945TIP3    H127326   4.230   5.944   0.115 -1.1587  1.6728  0.1122
 1945TIP3    H227327   4.370   5.995   0.140 -0.3033 -0.2709 -0.5426
 1946TIP3   OH227328   4.773   0.673   0.776 -0.2295 -0.5088 -0.0543
 1946TIP3    H127329   4.779   0.605   0.843  1.3044 -1.1086 -0.7587
 1946TIP3    H227330   4.680   0.677   0.755 -0.7383 -0.2691  2.1256
 1947TIP3   OH227331   1.903   1.667  13.122  0.1429 -0.4564 -0.6575
 1947TIP3    H127332   1.853   1.598  13.166  1.6748 -0.8601  0.5034
 1947TIP3    H227333   1.988   1.666  13.166  0.4916  1.5602 -1.2399
 1948TIP3   OH227334   1.218   6.242   3.796 -0.6500 -0.1462  0.0795
 1948TIP3    H127335   1.214   6.304   3.868  3.7150 -1.3902  1.5285
 1948TIP3    H227336   1.155   6.174   3.820  1.0456 -0.7612  3.0261
 1949TIP3   OH227337   5.176   3.060   0.053  0.0264 -0.2939 -0.4936
 1949TIP3    H127338   5.172   2.981   0.107  4.1251 -1.1311 -1.2882
 1949TIP3    H227339   5.128   3.037  -0.026 -0.0195 -1.4876 -0.1332
 1950TIP3   OH227340   6.270   1.188  11.176  0.4572  0.2602  0.6124
 1950TIP3    H127341   6.231   1.102  11.187  1.2232 -0.0069  1.3148
 1950TIP3    H227342   6.298   1.191  11.084  0.3293 -0.1887  0.5599
 1951TIP3   OH227343   4.917   5.007   1.228 -0.0138 -0.2548  0.3331
 1951TIP3    H127344   4.893   5.034   1.316  0.2395  0.6194  0.1385
 1951TIP3    H227345   4.935   5.089   1.181 -0.4965 -0.6838 -0.6278
 1952TIP3   OH227346   4.083   4.070   6.171 -0.8829 -0.5141 -0.0105
 1952TIP3    H127347   3.998   4.060   6.212 -1.1697 -0.0156 -0.4903
 1952TIP3    H227348   4.138   4.108   6.239 -0.8864 -1.3647  0.4819
 1953TIP3   OH227349   2.197   5.205   6.224  0.3027 -0.8706  0.6678
 1953TIP3    H127350   2.161   5.218   6.136  1.5463  0.6881  0.3627
 1953TIP3    H227351   2.136   5.145   6.267  0.3251 -2.5949 -1.6552
 1954TIP3   OH227352   5.041   3.723  16.475  0.4994 -0.1572 -0.3334
 1954TIP3    H127353   5.008   3.806  16.440  1.9022  0.2990 -0.5842
 1954TIP3    H227354   5.038   3.735  16.570 -0.3561 -0.2415 -0.3404
 1955TIP3   OH227355   2.007   1.984  12.553 -0.5528  0.1954 -0.4172
 1955TIP3    H127356   1.952   1.912  12.584  1.2748 -1.0156  0.1515
 1955TIP3    H227357   1.959   2.063  12.574 -1.8037 -0.8142  0.5812
 1956TIP3   OH227358   4.382   2.660   6.157  0.2669 -0.5999 -0.4605
 1956TIP3    H127359   4.352   2.657   6.248  2.2002  0.0534  0.2173
 1956TIP3    H227360   4.450   2.728   6.156  2.4923 -2.7798 -1.7346
 1957TIP3   OH227361   3.339   4.531  10.926 -0.3109  0.2005  0.0455
 1957TIP3    H127362   3.406   4.599  10.927  0.1101 -0.1987 -0.6435
 1957TIP3    H227363   3.260   4.575  10.959  0.6252  0.2934  2.2621
 1958TIP3   OH227364   4.983   2.668   4.503  0.2375  0.3981  0.3219
 1958TIP3    H127365   4.956   2.598   4.443 -0.9337  0.9358  0.2089
 1958TIP3    H227366   5.078   2.669   4.496  0.2431 -0.8758 -0.0308
 1959TIP3   OH227367   3.789   1.025  11.223  0.0965 -0.3795 -0.0847
 1959TIP3    H127368   3.833   1.110  11.223  0.4321 -0.5180  1.6203
 1959TIP3    H227369   3.799   0.992  11.134 -3.3726  3.0357 -1.9438
 1960TIP3   OH227370   3.942   2.055   5.396 -0.7341  0.1432  0.3216
 1960TIP3    H127371   3.994   2.039   5.317 -0.9217  2.8864 -0.4070
 1960TIP3    H227372   4.005   2.045   5.468  0.1267  0.5399 -0.3663
 1961TIP3   OH227373   2.126   0.386  17.029 -0.0191  0.1957  0.6617
 1961TIP3    H127374   2.164   0.356  17.112 -0.6899 -2.8213 -0.0780
 1961TIP3    H227375   2.199   0.427  16.983  1.8701 -3.4528  0.2529
 1962TIP3   OH227376   4.007   3.697  14.797 -0.0120  0.0666 -0.5499
 1962TIP3    H127377   4.052   3.624  14.755  4.2119  0.7221  2.5092
 1962TIP3    H227378   4.037   3.774  14.749  1.2391  0.4006  0.7400
 1963TIP3   OH227379   5.371   0.016  13.185 -0.0471 -0.4060 -0.0627
 1963TIP3    H127380   5.346  -0.033  13.263 -0.1968  1.1834  0.9304
 1963TIP3    H227381   5.290   0.056  13.154  0.1033 -0.6093 -0.7193
 1964TIP3   OH227382   0.478   2.047   0.045 -0.5466  0.3574 -0.1701
 1964TIP3    H127383   0.560   2.056  -0.004 -1.0953  1.5043 -0.8822
 1964TIP3    H227384   0.415   2.017  -0.021 -1.2472  1.7327 -0.1218
 1965TIP3   OH227385   5.193   2.247   0.505 -0.3845 -0.2629 -0.2122
 1965TIP3    H127386   5.271   2.299   0.527 -0.0830 -0.9420  0.3485
 1965TIP3    H227387   5.217   2.200   0.426 -0.8920  0.9514 -1.0926
 1966TIP3   OH227388   1.237   4.623   3.017  0.0202 -0.7093 -0.2015
 1966TIP3    H127389   1.188   4.700   3.046 -1.2168 -1.0754 -1.2894
 1966TIP3    H227390   1.193   4.595   2.937  1.0101 -2.0267 -0.3043
 1967TIP3   OH227391   4.520   6.127  15.096  0.3328  0.0657 -0.8951
 1967TIP3    H127392   4.500   6.088  15.181  1.0872  1.6734  0.0306
 1967TIP3    H227393   4.616   6.127  15.091  0.2888 -0.5272 -2.0004
 1968TIP3   OH227394   4.021   4.874   1.924  0.1698  0.1631  0.5728
 1968TIP3    H127395   3.999   4.855   1.833 -3.0637  0.1458  1.2965
 1968TIP3    H227396   4.007   4.791   1.970 -0.3312  0.7077  1.4222
 1969TIP3   OH227397   4.651   5.140   3.161  0.3136 -0.8517 -0.1867
 1969TIP3    H127398   4.654   5.056   3.206 -0.0552 -0.5906  0.3287
 1969TIP3    H227399   4.738   5.149   3.122 -0.0631 -2.0460 -1.3185
 1970TIP3   OH227400   1.586   2.948  15.237  0.4405  0.5730  0.3621
 1970TIP3    H127401   1.576   2.982  15.148  0.2979  1.9277  0.8851
 1970TIP3    H227402   1.604   2.854  15.225  0.6123  0.7802 -1.0929
 1971TIP3   OH227403   4.566   6.137   2.503 -0.2673 -0.0599 -0.1377
 1971TIP3    H127404   4.626   6.128   2.429 -1.1990  0.6498 -0.9911
 1971TIP3    H227405   4.596   6.215   2.550  0.6972 -0.8574  0.5986
 1972TIP3   OH227406   6.667   3.743   1.476 -0.2533 -0.0100 -0.2456
 1972TIP3    H127407   6.748   3.789   1.452  1.8352 -1.9127  2.7693
 1972TIP3    H227408   6.678   3.655   1.442 -0.8763 -0.3965  0.5290
 1973TIP3   OH227409   0.355   4.083  11.013 -0.6687  0.2408 -0.1228
 1973TIP3    H127410   0.266   4.108  11.035 -0.7547 -0.6605  0.6097
 1973TIP3    H227411   0.403   4.089  11.096 -0.2851 -0.2517 -0.3057
 1974TIP3   OH227412   2.790   6.747  11.618 -0.4290  0.2726  0.5663
 1974TIP3    H127413   2.761   6.656  11.627  1.0390 -0.3070 -0.3623
 1974TIP3    H227414   2.792   6.781  11.707 -1.4104 -0.4704  0.8824
 1975TIP3   OH227415   5.983   0.319   2.834 -0.0122  0.1389  0.0356
 1975TIP3    H127416   6.017   0.280   2.754 -1.8365 -0.8822 -0.2741
 1975TIP3    H227417   5.907   0.265   2.857  0.0024  0.8931  2.0108
 1976TIP3   OH227418   4.492   5.089  11.737  0.5199  0.1328  0.6431
 1976TIP3    H127419   4.521   5.131  11.818 -0.7637 -0.2001  1.2823
 1976TIP3    H227420   4.511   5.153  11.669 -1.8075  1.9754  1.6561
 1977TIP3   OH227421   4.485   5.864   2.573 -0.1996 -0.1784 -0.0909
 1977TIP3    H127422   4.413   5.925   2.586 -1.2846 -0.6603 -3.3968
 1977TIP3    H227423   4.564   5.919   2.573 -0.9513  0.9019 -0.6810
 1978TIP3   OH227424   2.333   2.636   0.336 -0.4647 -0.1676 -0.0734
 1978TIP3    H127425   2.259   2.655   0.278 -0.8335 -0.1365  0.4017
 1978TIP3    H227426   2.341   2.715   0.391 -2.2296 -1.4412  2.1483
 1979TIP3   OH227427   3.725   3.561  10.568 -0.1541  0.1513 -0.3827
 1979TIP3    H127428   3.682   3.625  10.623 -1.0195  0.2616 -1.1789
 1979TIP3    H227429   3.775   3.506  10.629  0.1828  1.2554  0.3417
 1980TIP3   OH227430   5.376   6.169  14.035 -0.0875  0.2960  0.0358
 1980TIP3    H127431   5.311   6.237  14.052 -1.7487 -0.6142 -2.3538
 1980TIP3    H227432   5.444   6.214  13.983 -0.0524  0.6528  0.3847
 1981TIP3   OH227433   2.471   1.814  16.616 -0.3398 -0.2776  0.4262
 1981TIP3    H127434   2.429   1.728  16.614  0.9230 -0.8861 -0.3406
 1981TIP3    H227435   2.541   1.808  16.551  0.4572  0.9599  1.1590
 1982TIP3   OH227436   2.481   0.015   3.351  0.1779  0.0317 -0.1810
 1982TIP3    H127437   2.393   0.012   3.314  0.0387  0.0833  0.1491
 1982TIP3    H227438   2.516   0.099   3.323 -0.8042  1.1215  1.8349
 1983TIP3   OH227439   4.206   3.975   3.364  0.4425 -0.5303  0.0620
 1983TIP3    H127440   4.125   3.926   3.354  2.0160 -3.3095  0.3827
 1983TIP3    H227441   4.232   3.961   3.455  1.4570  0.0297 -0.1336
 1984TIP3   OH227442   0.137   1.943   4.889  0.0829  0.0956 -0.0903
 1984TIP3    H127443   0.127   2.009   4.820 -2.2784  0.2034  0.3088
 1984TIP3    H227444   0.097   1.983   4.966  1.2131 -0.6844  0.9223
 1985TIP3   OH227445   4.866   0.771  13.424 -0.5617 -0.2451 -0.3629
 1985TIP3    H127446   4.821   0.855  13.435 -1.4662 -0.5254 -1.7740
 1985TIP3    H227447   4.803   0.706  13.457  0.0653 -0.3943  0.5618
 1986TIP3   OH227448   5.577   0.492  17.044  0.3346  0.2333 -0.5234
 1986TIP3    H127449   5.501   0.467  16.991  1.0615 -3.3112  0.0486
 1986TIP3    H227450   5.630   0.545  16.985 -1.1117  0.2386 -1.8675
 1987TIP3   OH227451   6.552   4.551  16.921 -0.1338 -0.1309  0.1512
 1987TIP3    H127452   6.586   4.461  16.924 -1.0425 -0.5188 -0.7958
 1987TIP3    H227453   6.610   4.597  16.860 -0.1648 -0.2995 -0.0076
 1988TIP3   OH227454   0.381   5.241  12.556 -0.0946 -0.0324  0.0011
 1988TIP3    H127455   0.369   5.157  12.601 -1.9412  0.1198 -0.2058
 1988TIP3    H227456   0.390   5.218  12.464  0.3641 -0.0683  0.0509
 1989TIP3   OH227457   6.465   1.013  15.900  0.5230 -0.2927 -0.7599
 1989TIP3    H127458   6.410   1.087  15.928  1.0931  0.4138 -1.4796
 1989TIP3    H227459   6.512   0.988  15.979  1.1082  0.8025 -0.7473
 1990TIP3   OH227460   6.001   1.742  14.165  0.3362  0.1929 -0.7038
 1990TIP3    H127461   6.000   1.837  14.168 -1.3987  0.1802 -0.3901
 1990TIP3    H227462   6.019   1.721  14.074  1.1279  0.8142 -0.6968
 1991TIP3   OH227463   2.708   4.318   1.742  0.2441  0.1459 -0.2131
 1991TIP3    H127464   2.755   4.234   1.746  1.5521  0.7894 -1.6878
 1991TIP3    H227465   2.773   4.383   1.768 -0.5174  0.8145  0.0435
 1992TIP3   OH227466   0.208   2.630   2.933 -0.3418  0.0851 -0.1422
 1992TIP3    H127467   0.215   2.648   3.027  2.0360 -1.5716  0.0511
 1992TIP3    H227468   0.191   2.715   2.893  2.2918  1.4345  1.4654
 1993TIP3   OH227469   0.095   2.969  12.492  0.3840  0.3890 -0.2535
 1993TIP3    H127470   0.056   2.918  12.420 -0.7420  0.3801  0.3481
 1993TIP3    H227471   0.071   2.920  12.571  0.4445  1.1334  0.2272
 1994TIP3   OH227472   6.606   4.123  11.616 -0.1043  0.7917 -0.6950
 1994TIP3    H127473   6.629   4.034  11.586 -0.0008  0.3600  0.6118
 1994TIP3    H227474   6.541   4.153  11.554 -1.6483 -1.0082  0.0021
 1995TIP3   OH227475   3.407   2.375   2.132 -0.2110  0.6238 -0.2489
 1995TIP3    H127476   3.497   2.389   2.160 -0.8276 -0.4379  2.3472
 1995TIP3    H227477   3.381   2.458   2.094  1.2759  1.5101  0.6169
 1996TIP3   OH227478   1.454   4.024   2.539 -0.2196  0.4352  0.1908
 1996TIP3    H127479   1.513   4.089   2.501 -0.1823  0.7014  0.7013
 1996TIP3    H227480   1.450   3.955   2.474  1.0146  0.2107  0.3350
 1997TIP3   OH227481   0.789   4.652  15.750 -0.3380  0.1372 -0.1305
 1997TIP3    H127482   0.770   4.621  15.661 -1.1919  0.5490 -0.0957
 1997TIP3    H227483   0.791   4.748  15.741  1.5180  0.1244 -0.0916
 1998TIP3   OH227484   5.167   3.877  14.160  0.4844 -0.2419  0.4056
 1998TIP3    H127485   5.099   3.936  14.128  0.3252 -0.0110  1.1482
 1998TIP3    H227486   5.120   3.817  14.219  1.1685  0.9191  2.1812
 1999TIP3   OH227487   0.076   3.693   3.828  0.4203 -0.5860 -0.0542
 1999TIP3    H127488   0.008   3.761   3.825  0.0348 -1.0114 -1.3877
 1999TIP3    H227489   0.098   3.685   3.920  2.0346  2.9174 -0.0326
 2000TIP3   OH227490   0.104   1.398  14.530 -0.5868  0.1056 -0.4018
 2000TIP3    H127491   0.154   1.459  14.584 -1.5241 -0.6931  1.3938
 2000TIP3    H227492   0.141   1.408  14.442  1.1443  1.2060  0.4325
 2001TIP3   OH227493   1.280   0.061  12.428 -0.3150 -0.0331 -0.7187
 2001TIP3    H127494   1.230   0.044  12.348 -2.5829  1.1155  0.4088
 2001TIP3    H227495   1.214   0.064  12.498  1.6242 -1.0373  1.2131
 2002TIP3   OH227496   3.836   3.793   1.345 -1.0551  0.6351 -0.9694
 2002TIP3    H127497   3.788   3.868   1.381  0.7702  0.7879  1.2125
 2002TIP3    H227498   3.922   3.828   1.324  0.4696 -1.2480  1.9071
 2003TIP3   OH227499   1.064   3.549   5.532  0.4314  0.5255 -0.0877
 2003TIP3    H127500   0.986   3.601   5.515  1.3894  1.7119 -0.9558
 2003TIP3    H227501   1.096   3.579   5.617  0.4490  0.6881 -0.1518
 2004TIP3   OH227502   0.500   2.553  13.930 -0.0960  0.0714 -0.4776
 2004TIP3    H127503   0.554   2.580  13.856  1.0485  0.4214  0.4724
 2004TIP3    H227504   0.415   2.594  13.915  0.1049  0.0684 -1.6314
 2005TIP3   OH227505   1.569   5.636   2.924 -0.3307 -0.1204  0.0603
 2005TIP3    H127506   1.543   5.689   2.999 -1.6993  0.5967 -0.8913
 2005TIP3    H227507   1.508   5.562   2.924 -0.8909  0.3308 -0.8276
 2006TIP3   OH227508   3.138   3.390   2.635  0.5992 -0.3352 -0.1366
 2006TIP3    H127509   3.132   3.434   2.720  1.7972 -0.9423  0.2779
 2006TIP3    H227510   3.232   3.387   2.617  0.3503 -0.2384 -1.4763
 2007TIP3   OH227511   4.492   2.909  13.166 -0.5109 -0.5591  0.2601
 2007TIP3    H127512   4.405   2.873  13.184 -0.3941 -0.7381  0.4750
 2007TIP3    H227513   4.487   2.939  13.075 -1.5655  1.6718  1.0354
 2008TIP3   OH227514   5.317   2.656  11.755  0.5260  0.0105  0.2424
 2008TIP3    H127515   5.409   2.652  11.728  0.4467  0.7923 -0.1495
 2008TIP3    H227516   5.268   2.633  11.677  0.4078 -1.2780  0.6856
 2009TIP3   OH227517   6.527   0.919   0.840  0.2374 -0.8229  0.2219
 2009TIP3    H127518   6.589   0.973   0.889 -0.6318 -0.7202  1.2478
 2009TIP3    H227519   6.555   0.829   0.857  0.1023 -0.7771  0.6885
 2010TIP3   OH227520   1.747   6.565  11.222 -0.1544  0.2581  0.7520
 2010TIP3    H127521   1.747   6.643  11.167  0.8689 -0.0855  0.2642
 2010TIP3    H227522   1.782   6.595  11.306 -0.3959  0.4688  0.7784
 2011TIP3   OH227523   5.062   1.637   4.548 -0.3021  0.3889 -0.3588
 2011TIP3    H127524   4.998   1.600   4.486  0.4065 -0.0678 -0.8383
 2011TIP3    H227525   5.062   1.730   4.529 -0.3781  0.3065 -0.7751
 2012TIP3   OH227526   3.778   1.308  11.862 -0.1077  0.0122 -0.1146
 2012TIP3    H127527   3.694   1.268  11.886 -0.3639  1.6095  1.7655
 2012TIP3    H227528   3.826   1.314  11.944  0.9297  1.2258 -0.7916
 2013TIP3   OH227529   2.815   6.027   1.355  0.4903  0.4460  1.0565
 2013TIP3    H127530   2.772   6.097   1.405 -0.1466  0.8051  0.0332
 2013TIP3    H227531   2.871   5.982   1.418 -2.2978 -0.7851  2.7624
 2014TIP3   OH227532   4.250   0.979   1.185 -0.6255 -0.6611  0.4522
 2014TIP3    H127533   4.307   1.055   1.195 -0.1633 -0.8782 -0.4417
 2014TIP3    H227534   4.300   0.918   1.130 -1.7930 -0.7641 -0.5320
 2015TIP3   OH227535   0.499   5.859   3.509 -0.0772  0.6938  0.0250
 2015TIP3    H127536   0.494   5.937   3.455  0.9609  0.1914 -0.8266
 2015TIP3    H227537   0.487   5.786   3.448  3.1573  0.0277  0.0502
 2016TIP3   OH227538   4.610   0.385  15.526 -0.1172  0.8680 -0.1218
 2016TIP3    H127539   4.688   0.439  15.533  0.5773 -0.2999  1.4664
 2016TIP3    H227540   4.615   0.325  15.600 -0.4003 -1.9791 -2.3247
 2017TIP3   OH227541   6.547   5.431  14.112 -0.3048 -0.2583 -0.6546
 2017TIP3    H127542   6.630   5.429  14.160 -1.1444  0.1118  0.8315
 2017TIP3    H227543   6.537   5.523  14.086 -0.2976 -0.2839 -0.7476
 2018TIP3   OH227544   4.866   2.493  13.434  0.0325  0.1460  0.2619
 2018TIP3    H127545   4.834   2.492  13.524  1.3159 -0.4183  0.7328
 2018TIP3    H227546   4.874   2.586  13.412 -0.0466  0.2840  0.8183
 2019TIP3   OH227547   3.015   1.297   1.229  0.1821 -0.1557  0.6779
 2019TIP3    H127548   2.929   1.288   1.269 -0.6508 -0.3211 -1.0858
 2019TIP3    H227549   3.052   1.375   1.268 -1.0752  0.3374  0.9123
 2020TIP3   OH227550   2.263   3.190  12.413 -0.7562  0.9791 -0.6009
 2020TIP3    H127551   2.298   3.150  12.333  0.2606  1.1609 -0.2558
 2020TIP3    H227552   2.204   3.124  12.450  0.3695  0.0671 -0.4043
 2021TIP3   OH227553   0.517   6.720  13.557  0.4441  0.4327 -0.2999
 2021TIP3    H127554   0.553   6.650  13.503 -1.1036  0.2228 -1.0735
 2021TIP3    H227555   0.457   6.676  13.618 -0.2730  1.0413 -0.5628
 2022TIP3   OH227556   5.013   5.085   5.986  0.3820  0.0302 -0.2962
 2022TIP3    H127557   5.109   5.079   5.991  0.3371 -0.9398 -0.4662
 2022TIP3    H227558   4.992   5.167   6.030  1.2592 -0.0387  0.2695
 2023TIP3   OH227559   3.629   1.029   5.349 -0.2785 -0.1620 -0.1279
 2023TIP3    H127560   3.626   1.038   5.254  2.7933 -1.7341 -0.4383
 2023TIP3    H227561   3.614   0.936   5.365 -1.4612  0.2014  0.9975
 2024TIP3   OH227562   0.200   2.717  15.909  0.6318  0.3454  0.2525
 2024TIP3    H127563   0.200   2.623  15.893  2.4151  0.7331 -2.3429
 2024TIP3    H227564   0.109   2.744  15.893 -0.0904 -1.0461  1.9222
 2025TIP3   OH227565   3.471   5.057  12.131 -0.2345 -0.8782  0.1780
 2025TIP3    H127566   3.512   5.023  12.211 -0.5190 -1.6393  0.0019
 2025TIP3    H227567   3.508   5.004  12.061  0.5772  0.2763 -0.2842
 2026TIP3   OH227568   5.753   1.422   4.040 -0.2397 -0.2186 -0.3233
 2026TIP3    H127569   5.734   1.342   4.090  0.5473 -0.4840 -0.4498
 2026TIP3    H227570   5.683   1.425   3.974 -1.5672  0.3941  1.0711
 2027TIP3   OH227571   6.164   2.563   0.821 -0.0165 -0.1458  0.3629
 2027TIP3    H127572   6.206   2.556   0.906  1.5846 -0.6597 -0.4490
 2027TIP3    H227573   6.153   2.657   0.807 -0.7299 -0.0809  1.3432
 2028TIP3   OH227574   1.720   0.707  15.693  0.7877  0.4363  0.0921
 2028TIP3    H127575   1.700   0.788  15.646  2.0381  0.3095 -0.6837
 2028TIP3    H227576   1.765   0.736  15.772  0.7171  0.5307  0.0975
 2029TIP3   OH227577   0.775   4.457   0.491 -0.9084  0.0695 -0.6554
 2029TIP3    H127578   0.807   4.399   0.422  0.1576  1.0287 -0.9808
 2029TIP3    H227579   0.854   4.493   0.530 -1.5260 -0.0086  0.6874
 2030TIP3   OH227580   6.738   2.761   5.546 -0.5633 -0.7555 -0.2515
 2030TIP3    H127581   6.661   2.818   5.548  0.0213  0.0310  0.2182
 2030TIP3    H227582   6.808   2.815   5.584  0.2562 -1.4010 -0.8413
 2031TIP3   OH227583   3.941   1.309   4.142  0.7449  0.3436  0.5878
 2031TIP3    H127584   4.003   1.238   4.158 -1.0198 -1.6175 -0.9558
 2031TIP3    H227585   3.857   1.273   4.171 -0.5303  1.0115 -2.1441
 2032TIP3   OH227586   3.920   6.384  15.431  0.1802  0.2823  0.6858
 2032TIP3    H127587   3.958   6.394  15.518  1.5594  2.2858 -0.1153
 2032TIP3    H227588   3.993   6.357  15.376 -1.1183 -3.0861  0.5009
 2033TIP3   OH227589   1.713   4.682   0.760 -0.5222  0.2316 -0.1965
 2033TIP3    H127590   1.681   4.749   0.699  1.0696  0.1704 -1.1387
 2033TIP3    H227591   1.722   4.603   0.706  1.1408  0.2363  0.0375
 2034TIP3   OH227592   3.411   0.863   0.232  0.1989  0.1843  0.4157
 2034TIP3    H127593   3.463   0.929   0.277  1.8383  0.2745 -1.5487
 2034TIP3    H227594   3.358   0.823   0.301  0.9272  1.9071  2.0142
 2035TIP3   OH227595   5.277   0.791   1.508  0.1410  0.0872  0.3321
 2035TIP3    H127596   5.224   0.754   1.438 -0.0428  0.3099  0.3567
 2035TIP3    H227597   5.332   0.717   1.537 -0.4754 -0.2624  0.6190
 2036TIP3   OH227598   1.994   5.822  11.554  0.2090  0.3702  0.2834
 2036TIP3    H127599   2.009   5.801  11.462 -1.0161 -1.2994  0.4416
 2036TIP3    H227600   2.082   5.820  11.594  0.3991 -2.3260 -0.1701
 2037TIP3   OH227601   6.492   0.420  10.873  0.2709 -0.5424  0.4007
 2037TIP3    H127602   6.451   0.415  10.959  0.1506  1.7355  0.4980
 2037TIP3    H227603   6.423   0.452  10.815  1.4051  1.7360  0.2496
 2038TIP3   OH227604   5.308   5.941  14.597  0.1857 -0.4594  0.3230
 2038TIP3    H127605   5.331   6.032  14.580 -0.6961 -0.5562 -1.6327
 2038TIP3    H227606   5.215   5.944  14.622  0.0301 -0.8420 -0.1832
 2039TIP3   OH227607   6.436   2.643   4.330 -0.7208 -0.0260 -0.5949
 2039TIP3    H127608   6.508   2.598   4.284 -1.5213 -1.9009 -0.0596
 2039TIP3    H227609   6.480   2.713   4.379  0.7637 -1.1024 -0.3180
 2040TIP3   OH227610   0.018   6.600   4.714  0.2234 -0.0056 -0.2766
 2040TIP3    H127611  -0.049   6.570   4.775  0.3220 -0.1296 -0.2290
 2040TIP3    H227612   0.061   6.672   4.759 -0.3230  0.5156 -0.5794
 2041TIP3   OH227613   2.326   0.968   5.329 -0.1438  0.1555  0.0601
 2041TIP3    H127614   2.328   0.904   5.258 -1.6310  1.5504 -1.2777
 2041TIP3    H227615   2.403   1.024   5.314  0.7399 -0.8351  0.8074
 2042TIP3   OH227616   2.061   1.048  14.987  0.4901  0.4966 -0.2417
 2042TIP3    H127617   2.002   0.974  15.003  0.5411  0.2267 -1.2873
 2042TIP3    H227618   2.004   1.125  14.993  0.2944  0.3275  0.1150
 2043TIP3   OH227619   0.583   0.025  16.023  0.4505 -0.3799  0.1410
 2043TIP3    H127620   0.548   0.003  15.936 -1.2851  0.7931  0.5173
 2043TIP3    H227621   0.541   0.108  16.045  1.8740 -0.0149  1.5633
 2044TIP3   OH227622   6.550   1.076  16.422 -0.1991 -0.0453 -0.2949
 2044TIP3    H127623   6.639   1.105  16.402 -0.7679  1.6158 -0.5815
 2044TIP3    H227624   6.498   1.157  16.417 -1.4656 -0.7299  1.3638
 2045TIP3   OH227625   4.792   5.611   5.682  0.2371  0.4188  0.0855
 2045TIP3    H127626   4.807   5.699   5.715 -2.3503  0.5402  1.0652
 2045TIP3    H227627   4.811   5.553   5.756  1.7309  0.1394 -0.4936
 2046TIP3   OH227628   4.450   2.632  13.014 -0.5971 -0.0632 -0.1894
 2046TIP3    H127629   4.473   2.646  12.922 -0.3463 -1.6470 -0.3885
 2046TIP3    H227630   4.431   2.538  13.019  0.5431 -0.2091  1.6280
 2047TIP3   OH227631   2.493   2.220   5.077 -0.5770 -0.0326 -0.1237
 2047TIP3    H127632   2.578   2.251   5.045 -1.0103  0.2092 -1.0704
 2047TIP3    H227633   2.475   2.273   5.155  0.2022 -0.1732  0.1510
 2048TIP3   OH227634   4.326   4.720   5.550 -0.0143 -0.7297 -0.6865
 2048TIP3    H127635   4.407   4.765   5.576 -1.1412  0.3922  1.0057
 2048TIP3    H227636   4.303   4.758   5.466  1.3593 -1.2529 -1.3123
 2049TIP3   OH227637   1.155   1.752   2.878 -0.1667 -0.2839 -0.0265
 2049TIP3    H127638   1.158   1.699   2.957  1.4564  0.4452  0.4239
 2049TIP3    H227639   1.245   1.781   2.865  0.0301 -2.0852 -3.2949
 2050TIP3   OH227640   6.570   5.920  14.801 -0.5326 -0.8245 -0.6301
 2050TIP3    H127641   6.494   5.932  14.858 -0.4486 -0.4114 -0.6035
 2050TIP3    H227642   6.532   5.903  14.714 -0.6516 -0.2161 -0.6996
 2051TIP3   OH227643   3.260   2.517  11.778  0.0980  0.3148 -0.2626
 2051TIP3    H127644   3.261   2.436  11.830 -0.8203  0.4394 -0.0458
 2051TIP3    H227645   3.168   2.534  11.761  0.3309  0.8727 -1.0183
 2052TIP3   OH227646   1.890   3.124  16.881  0.1665 -0.3170  0.8543
 2052TIP3    H127647   1.882   3.147  16.974 -0.3065  0.2350  0.6714
 2052TIP3    H227648   1.856   3.035  16.876 -2.3246  0.6298  0.7350
 2053TIP3   OH227649   4.618   3.024  11.806  0.7480 -0.3529 -0.1969
 2053TIP3    H127650   4.645   2.938  11.773  1.7233 -0.2172  0.2297
 2053TIP3    H227651   4.572   3.005  11.888  3.2150 -0.3118  1.2453
 2054TIP3   OH227652   4.858   5.838   5.190  0.2697  0.3777 -0.7773
 2054TIP3    H127653   4.877   5.929   5.170  2.6623  0.2033  0.6101
 2054TIP3    H227654   4.938   5.804   5.230 -0.9490 -2.0418 -0.2831
 2055TIP3   OH227655   0.908   5.136   5.842  0.3261  0.0202 -0.4883
 2055TIP3    H127656   1.000   5.141   5.868  0.3419  0.2561 -0.5943
 2055TIP3    H227657   0.867   5.213   5.880  0.4516  0.6297 -1.5686
 2056TIP3   OH227658   1.693   0.866  16.516  0.2609  0.1097  0.1108
 2056TIP3    H127659   1.624   0.838  16.457 -0.6301  0.5685  0.9290
 2056TIP3    H227660   1.733   0.941  16.473  0.4829 -0.3696 -0.5241
 2057TIP3   OH227661   0.261   4.874  16.579 -0.4822  0.4833  0.4535
 2057TIP3    H127662   0.195   4.939  16.603 -0.6451  1.5683 -2.6414
 2057TIP3    H227663   0.210   4.800  16.547 -0.3303  2.2500 -4.2583
 2058TIP3   OH227664   3.048   0.311  16.463  0.2630 -0.2955 -0.1528
 2058TIP3    H127665   3.024   0.359  16.542 -2.5015 -1.4679 -0.2207
 2058TIP3    H227666   3.126   0.261  16.488  0.1688  0.3441  1.4517
 2059TIP3   OH227667   2.101   2.282  11.667 -0.3308 -0.5976 -0.0090
 2059TIP3    H127668   2.127   2.250  11.581 -0.1962  1.4448 -0.7641
 2059TIP3    H227669   2.183   2.303  11.711 -0.4621  0.6664 -0.3288
 2060TIP3   OH227670   1.104   1.609   1.895 -0.2152 -0.4141 -0.1945
 2060TIP3    H127671   1.154   1.542   1.943  1.1198  0.5034 -0.2649
 2060TIP3    H227672   1.158   1.628   1.818 -1.0137  0.1069 -0.6340
 2061TIP3   OH227673   3.216   6.760   0.264  0.2162  0.0920 -0.1397
 2061TIP3    H127674   3.164   6.818   0.210 -0.1573 -0.7372 -0.6870
 2061TIP3    H227675   3.273   6.818   0.315 -1.1651  0.9898  0.3922
 2062TIP3   OH227676   4.124   5.455   2.750  0.0399 -0.2745  0.1408
 2062TIP3    H127677   4.177   5.532   2.731 -0.1714  0.3928  2.1374
 2062TIP3    H227678   4.179   5.381   2.724  1.8105  0.4258  1.8352
 2063TIP3   OH227679   4.946   5.350   1.949  0.1057  0.0068 -0.1139
 2063TIP3    H127680   4.915   5.440   1.953 -0.0459 -0.0990  1.6439
 2063TIP3    H227681   4.869   5.297   1.969 -0.0989 -0.6042 -2.3285
 2064TIP3   OH227682   6.152   6.296  11.240  0.0458  0.1374 -1.0189
 2064TIP3    H127683   6.215   6.353  11.198 -1.5430  1.5574 -1.5305
 2064TIP3    H227684   6.104   6.255  11.167 -0.4151 -0.0256 -0.6277
 2065TIP3   OH227685   0.148   5.671  12.640  0.0616 -0.5146  0.3043
 2065TIP3    H127686   0.164   5.641  12.729  2.4005  0.2258  0.1580
 2065TIP3    H227687   0.208   5.619  12.586 -0.6223 -0.2519 -0.7183
 2066TIP3   OH227688   1.758   0.704   3.296 -0.3518  0.4022 -0.0337
 2066TIP3    H127689   1.806   0.660   3.225 -1.3092 -0.9926  0.1602
 2066TIP3    H227690   1.826   0.751   3.345  0.6922 -0.7478 -0.3489
 2067TIP3   OH227691   2.834   3.365   1.265  0.1230 -0.1006 -0.2425
 2067TIP3    H127692   2.920   3.380   1.305  0.4488 -0.8464 -0.6463
 2067TIP3    H227693   2.773   3.412   1.321  1.0050  2.0983 -1.0543
 2068TIP3   OH227694   1.077   1.287  13.326  0.4786  0.1875 -0.1014
 2068TIP3    H127695   1.135   1.213  13.342 -0.5217 -0.6636 -0.2857
 2068TIP3    H227696   0.989   1.250  13.333 -0.0890  1.9719  2.6835
 2069TIP3   OH227697   1.653   1.884   5.616  0.0051  0.5993  0.8168
 2069TIP3    H127698   1.691   1.963   5.578  0.7883  0.1513  0.6754
 2069TIP3    H227699   1.727   1.826   5.631 -0.3178  0.6560  2.7640
 2070TIP3   OH227700   4.462   4.104   1.432  0.9177  0.2639 -0.2066
 2070TIP3    H127701   4.499   4.177   1.480 -0.3652  2.3616 -2.3134
 2070TIP3    H227702   4.524   4.089   1.361  0.9749 -0.4472 -0.0100
 2071TIP3   OH227703   4.632   1.207   5.924  0.2528 -0.0483 -0.6611
 2071TIP3    H127704   4.600   1.294   5.901 -0.5966 -0.6311 -1.7390
 2071TIP3    H227705   4.712   1.223   5.974 -0.5794  1.3783  0.2453
 2072TIP3   OH227706   3.244   3.234  16.645  0.2853  0.7772 -0.0444
 2072TIP3    H127707   3.198   3.298  16.700 -1.4186  0.5915 -1.2165
 2072TIP3    H227708   3.265   3.282  16.565  1.0448  0.5062 -0.0108
 2073TIP3   OH227709   0.101   3.026  15.920 -0.0101  0.2457  0.5822
 2073TIP3    H127710   0.050   2.949  15.897 -2.1710  1.3320  1.5738
 2073TIP3    H227711   0.037   3.096  15.926  1.9707  2.2499 -0.7553
 2074TIP3   OH227712   3.656   4.766   5.862 -0.3011 -0.6218 -0.3134
 2074TIP3    H127713   3.621   4.770   5.952 -0.1795  1.6274 -0.3301
 2074TIP3    H227714   3.746   4.737   5.873 -0.2987 -0.4032  0.3012
 2075TIP3   OH227715   0.272   4.368  11.796 -0.7109 -0.1648  0.8360
 2075TIP3    H127716   0.294   4.319  11.875  0.9742 -0.4887  0.1911
 2075TIP3    H227717   0.268   4.302  11.727 -0.4669  0.3360  0.3363
 2076TIP3   OH227718   0.464   3.784  11.204  0.2534  0.0098 -0.3326
 2076TIP3    H127719   0.430   3.851  11.264 -0.6918  0.7091 -1.6167
 2076TIP3    H227720   0.386   3.752  11.157  1.0625 -0.0100 -1.6940
 2077TIP3   OH227721   0.405   2.796  14.254  0.0573  0.0431  0.3019
 2077TIP3    H127722   0.475   2.763  14.198  0.5375  1.1033  0.2662
 2077TIP3    H227723   0.348   2.846  14.194  2.0459  3.5132  1.1535
 2078TIP3   OH227724   1.922   6.131  13.940  0.1120 -0.8663  0.2047
 2078TIP3    H127725   1.833   6.107  13.964 -0.1064 -1.3126 -1.0119
 2078TIP3    H227726   1.946   6.069  13.872  1.7444 -1.4149  1.2620
 2079TIP3   OH227727   1.373   5.006  16.693  0.4402  0.0688 -0.4053
 2079TIP3    H127728   1.357   4.985  16.601  1.4896 -0.9818 -0.3722
 2079TIP3    H227729   1.367   4.921  16.738  0.2237  0.5300  0.4446
 2080TIP3   OH227730   0.775   3.913  15.579  0.4137  0.2432  0.4647
 2080TIP3    H127731   0.803   4.002  15.557 -1.2464  0.8059  0.5580
 2080TIP3    H227732   0.716   3.924  15.653 -0.0953 -0.8991  0.2389
 2081TIP3   OH227733   1.144   2.201   4.092  0.3718 -0.2952  0.0880
 2081TIP3    H127734   1.179   2.113   4.108 -0.1752 -0.8969 -1.8506
 2081TIP3    H227735   1.218   2.250   4.055 -0.5169 -1.3280 -3.2296
 2082TIP3   OH227736   6.238   0.326   5.511 -0.2904 -0.2987 -0.6729
 2082TIP3    H127737   6.145   0.331   5.533  0.0415 -0.4268  0.7974
 2082TIP3    H227738   6.277   0.404   5.552  0.7872 -1.9258  1.5200
 2083TIP3   OH227739   1.324   3.941   1.306 -0.4250 -0.2392  0.1759
 2083TIP3    H127740   1.375   4.005   1.356 -1.3330  0.8784 -0.2854
 2083TIP3    H227741   1.304   3.986   1.224  1.2921 -2.1480 -1.3255
 2084TIP3   OH227742   3.895   4.034   3.285 -0.0148  0.0530 -0.1127
 2084TIP3    H127743   3.864   4.015   3.196 -0.2829  1.7949 -0.3998
 2084TIP3    H227744   3.824   4.004   3.342  0.6967 -2.2763 -0.3791
 2085TIP3   OH227745   3.628   2.975   6.311  0.1736 -0.5666 -0.1185
 2085TIP3    H127746   3.699   3.034   6.287  0.0716 -1.5501 -3.1360
 2085TIP3    H227747   3.654   2.890   6.273 -1.8238 -1.3263  0.1442
 2086TIP3   OH227748   3.650   2.058   2.080 -0.7433 -0.1339  0.1227
 2086TIP3    H127749   3.696   2.142   2.086 -0.2026 -0.5426  1.9475
 2086TIP3    H227750   3.717   1.997   2.048 -0.7945 -0.1464  0.0389
 2087TIP3   OH227751   4.311   1.218  11.364  0.5895 -0.2137 -0.1932
 2087TIP3    H127752   4.318   1.311  11.386 -0.4213  0.3458 -2.1399
 2087TIP3    H227753   4.345   1.211  11.275 -1.5683 -1.2785 -0.9903
 2088TIP3   OH227754   4.805   2.703   0.638  0.3666  0.8940 -0.0126
 2088TIP3    H127755   4.871   2.668   0.579 -0.0589  0.9160 -0.5023
 2088TIP3    H227756   4.846   2.701   0.724  0.6642  0.0163 -0.1715
 2089TIP3   OH227757   0.537   5.538   5.600 -0.2360 -0.3430 -0.6738
 2089TIP3    H127758   0.565   5.464   5.654 -1.1219 -0.7876 -0.8128
 2089TIP3    H227759   0.546   5.615   5.657 -1.6274 -0.8632  0.2852
 2090TIP3   OH227760   1.122   5.008  14.845 -0.5228  0.4464  0.4042
 2090TIP3    H127761   1.109   5.050  14.760  0.9274 -0.1556 -0.1365
 2090TIP3    H227762   1.090   5.072  14.908 -1.9079  0.7758 -0.6049
 2091TIP3   OH227763   5.990   6.395  16.836  0.0972 -0.4774  0.3476
 2091TIP3    H127764   6.056   6.325  16.835 -0.2888 -0.8439 -0.4703
 2091TIP3    H227765   5.941   6.383  16.754 -0.5566  0.1965  0.6290
 2092TIP3   OH227766   0.644   0.130   5.558  0.0188 -0.1513 -0.0480
 2092TIP3    H127767   0.603   0.160   5.478  0.4859  2.5890  0.6905
 2092TIP3    H227768   0.582   0.154   5.627  0.4221 -0.8865  0.5795
 2093TIP3   OH227769   4.614   2.055  16.876 -0.6016  0.1028 -0.0159
 2093TIP3    H127770   4.684   1.991  16.857  0.2883  1.0068  0.1568
 2093TIP3    H227771   4.624   2.073  16.969  0.7036  2.2701 -0.5293
 2094TIP3   OH227772   5.521   5.824  12.618  0.3106  0.1391  0.0553
 2094TIP3    H127773   5.465   5.785  12.551 -0.6079 -1.7762  1.8936
 2094TIP3    H227774   5.536   5.754  12.681 -0.1566  2.3292  2.6879
 2095TIP3   OH227775   0.951   3.105   1.350 -0.2571 -0.7305  0.0122
 2095TIP3    H127776   0.919   3.173   1.409  0.8924 -0.1021 -0.0859
 2095TIP3    H227777   1.013   3.055   1.403  0.3452 -0.5200 -0.4886
 2096TIP3   OH227778   5.678   1.481   0.080  0.1856 -0.3593 -0.1691
 2096TIP3    H127779   5.718   1.521   0.002  2.8589  0.5751  1.5788
 2096TIP3    H227780   5.613   1.545   0.109 -0.2670 -0.3545 -1.1758
 2097TIP3   OH227781   1.747   1.477  13.246 -0.0811 -0.1662 -0.2361
 2097TIP3    H127782   1.835   1.479  13.283  0.1446 -1.2236 -0.6943
 2097TIP3    H227783   1.725   1.384  13.241 -0.0922 -0.0666 -2.7370
 2098TIP3   OH227784   1.076   0.408   1.421  0.0567 -0.4490 -0.3124
 2098TIP3    H127785   1.070   0.314   1.404  0.0252 -0.5084  0.0410
 2098TIP3    H227786   1.162   0.420   1.462  0.2617 -0.2598 -0.7854
 2099TIP3   OH227787   0.553   2.477  13.166 -0.0532  0.6571  0.1797
 2099TIP3    H127788   0.460   2.488  13.183 -0.3915 -0.0288 -1.1391
 2099TIP3    H227789   0.560   2.479  13.071  1.7483  4.3198  0.3027
 2100TIP3   OH227790   6.104   0.365   0.278 -0.2017  0.1182  0.0694
 2100TIP3    H127791   6.072   0.453   0.262  0.2937  0.3299  0.2129
 2100TIP3    H227792   6.132   0.365   0.370 -0.9425 -0.4241  0.2986
 2101TIP3   OH227793   0.238   6.471   1.621 -0.0580 -1.0173 -0.0782
 2101TIP3    H127794   0.270   6.560   1.608 -0.9280 -0.6434  0.2836
 2101TIP3    H227795   0.160   6.482   1.676  0.6878 -2.1254  1.2058
 2102TIP3   OH227796   3.771   3.204   0.505  0.4505 -0.1212 -0.4547
 2102TIP3    H127797   3.837   3.262   0.542 -1.0772 -0.3410  2.6954
 2102TIP3    H227798   3.761   3.235   0.414  2.6374  1.8553 -0.0736
 2103TIP3   OH227799   0.160   6.771   3.087 -0.0478  0.8451  0.0399
 2103TIP3    H127800   0.165   6.856   3.043  3.2500 -0.2080 -1.8481
 2103TIP3    H227801   0.193   6.788   3.176  2.4214  1.2617 -0.9033
 2104TIP3   OH227802   1.235   5.898   2.060 -0.1487  0.3592 -0.0211
 2104TIP3    H127803   1.324   5.905   2.095 -0.1143 -0.9484  0.1494
 2104TIP3    H227804   1.193   5.830   2.113 -0.4824 -0.7581 -1.7051
 2105TIP3   OH227805   5.262   4.504  16.235  0.1969 -0.3680 -0.2581
 2105TIP3    H127806   5.300   4.437  16.293 -1.9383 -0.4782  1.0687
 2105TIP3    H227807   5.274   4.468  16.147  0.5886 -1.7203  0.3249
 2106TIP3   OH227808   2.585   3.087   6.178  0.3719 -0.5891 -0.1968
 2106TIP3    H127809   2.606   3.048   6.262  0.1679 -1.6373 -0.6136
 2106TIP3    H227810   2.658   3.146   6.159  0.1711  0.0412  0.9381
 2107TIP3   OH227811   1.838   1.661   5.637 -0.1156 -0.2531 -0.6525
 2107TIP3    H127812   1.870   1.626   5.721 -1.3739 -0.5687 -0.2840
 2107TIP3    H227813   1.907   1.640   5.574  0.4164 -0.8819  0.1247
 2108TIP3   OH227814   1.896   6.369  13.662  0.2325  0.1326 -0.3030
 2108TIP3    H127815   1.873   6.461  13.670  0.7167  0.4748 -2.4731
 2108TIP3    H227816   1.981   6.369  13.617 -0.8316 -1.3939 -2.4389
 2109TIP3   OH227817   0.797   2.508   1.062 -0.1489  0.4820 -0.1530
 2109TIP3    H127818   0.869   2.446   1.071  0.2545  0.9537 -0.0900
 2109TIP3    H227819   0.825   2.584   1.114 -0.9062  0.4757  0.2695
 2110TIP3   OH227820   2.617   4.529   3.572  0.2227 -0.3722 -0.1371
 2110TIP3    H127821   2.659   4.473   3.638 -0.3723  0.6658  1.1657
 2110TIP3    H227822   2.640   4.618   3.599  0.1566  0.0591 -1.4806
 2111TIP3   OH227823   5.732   6.428   1.322 -0.5467  0.5932 -0.1691
 2111TIP3    H127824   5.787   6.477   1.262 -0.3421  1.0077  0.3463
 2111TIP3    H227825   5.755   6.462   1.409  1.2422 -1.9552  0.4350
 2112TIP3   OH227826   6.103   5.393   4.700 -0.0097 -0.1634 -0.4759
 2112TIP3    H127827   6.136   5.389   4.610 -0.2075  0.6324 -0.5870
 2112TIP3    H227828   6.031   5.456   4.697 -0.7316 -0.9556  0.0228
 2113TIP3   OH227829   4.914   6.012  12.749 -0.5666  0.2396 -0.0489
 2113TIP3    H127830   4.874   5.935  12.790 -1.4504  1.0046  0.5446
 2113TIP3    H227831   4.936   6.069  12.822  2.2435 -0.4235 -0.3011
 2114TIP3   OH227832   2.495   3.331   6.618  0.4821  0.0927 -0.2283
 2114TIP3    H127833   2.509   3.344   6.524  1.0739  0.8400 -0.0454
 2114TIP3    H227834   2.521   3.241   6.635  0.8723  0.1175 -0.6928
 2115TIP3   OH227835   3.681   4.816   0.005 -0.2536  0.1795  0.0337
 2115TIP3    H127836   3.656   4.875  -0.066 -0.5587  1.1484  0.9178
 2115TIP3    H227837   3.777   4.822   0.009 -0.3340  1.2154  0.6063
 2116TIP3   OH227838   2.236   3.184  13.791  0.7603  0.4050  0.0661
 2116TIP3    H127839   2.208   3.144  13.873  0.1856 -0.9896 -0.7970
 2116TIP3    H227840   2.285   3.262  13.818  0.7420 -0.1398  1.7274
 2117TIP3   OH227841   2.902   5.939   3.566 -0.0696  0.2632  0.0395
 2117TIP3    H127842   2.975   5.943   3.505 -0.6155 -0.9837 -0.7210
 2117TIP3    H227843   2.829   5.978   3.519  0.3911  2.7024  1.2724
 2118TIP3   OH227844   1.587   1.913  16.952 -0.1875  0.8593  0.1730
 2118TIP3    H127845   1.575   1.972  16.878 -2.0599  0.1025 -0.1600
 2118TIP3    H227846   1.679   1.886  16.946  0.1779  2.2278 -0.7760
 2119TIP3   OH227847   1.582   5.833  14.513  0.1185  0.6981 -0.1698
 2119TIP3    H127848   1.665   5.860  14.551  1.0479 -1.4913 -0.5917
 2119TIP3    H227849   1.564   5.748  14.552 -1.5634  0.8172 -0.6474
 2120TIP3   OH227850   1.403   4.752  12.122 -0.2694 -0.1618 -0.0125
 2120TIP3    H127851   1.454   4.713  12.193 -1.0407 -1.9192 -0.3973
 2120TIP3    H227852   1.469   4.781  12.058  0.3982  0.8861  1.1469
 2121TIP3   OH227853   0.666   0.961  12.765  0.7076  0.4944 -0.0867
 2121TIP3    H127854   0.698   0.966  12.675 -1.3481 -2.4314 -1.0712
 2121TIP3    H227855   0.573   0.985  12.759  0.3302 -0.5887  1.0803
 2122TIP3   OH227856   4.759   5.520   3.938  0.1562 -0.1567 -0.0101
 2122TIP3    H127857   4.821   5.454   3.907  3.3295  2.3801  0.6374
 2122TIP3    H227858   4.714   5.550   3.859  0.7740 -1.0503 -0.7039
 2123TIP3   OH227859   3.569   1.221   4.107 -0.1280  0.0248  0.0955
 2123TIP3    H127860   3.535   1.215   4.196 -0.8264 -2.0195 -0.2749
 2123TIP3    H227861   3.495   1.250   4.054 -0.4627 -1.4002 -0.2309
 2124TIP3   OH227862   1.695   2.109  15.696  0.9839  0.1250 -0.6819
 2124TIP3    H127863   1.686   2.016  15.679  0.0770 -0.0617  0.7907
 2124TIP3    H227864   1.670   2.151  15.613 -0.1026 -0.8798 -0.8730
 2125TIP3   OH227865   1.478   2.066   2.643  0.2219  0.6069  0.1354
 2125TIP3    H127866   1.561   2.112   2.648  0.3878  0.0712  3.5404
 2125TIP3    H227867   1.499   1.980   2.606  0.5321  1.8178 -2.5610
 2126TIP3   OH227868   2.477   2.149  16.607 -0.3664 -0.5832 -0.4398
 2126TIP3    H127869   2.486   2.055  16.624  0.9437 -0.1815  1.2762
 2126TIP3    H227870   2.525   2.190  16.678 -1.5783  1.4246 -0.7565
 2127TIP3   OH227871   5.640   5.446  11.573 -0.8845  0.0759 -0.2028
 2127TIP3    H127872   5.715   5.423  11.626  0.8303 -0.1169 -2.6267
 2127TIP3    H227873   5.638   5.542  11.573  0.2262  0.1070 -1.2802
 2128TIP3   OH227874   5.821   4.317   3.277  0.0661  0.5655  0.2836
 2128TIP3    H127875   5.896   4.330   3.336 -0.8055  0.4550  1.4531
 2128TIP3    H227876   5.782   4.235   3.307 -0.2662  0.4039 -0.6039
 2129TIP3   OH227877   1.041   5.114  15.112 -0.3868 -0.5579  0.2024
 2129TIP3    H127878   1.000   5.072  15.187 -0.6644  1.4453  1.1932
 2129TIP3    H227879   1.134   5.118  15.134 -0.3205 -0.8918 -0.0129
 2130TIP3   OH227880   1.043   2.455  12.374  0.0956 -0.2708 -0.1670
 2130TIP3    H127881   1.105   2.527  12.368  0.7466 -0.7702  0.4196
 2130TIP3    H227882   1.097   2.376  12.367 -0.7614 -0.7091 -2.2633
 2131TIP3   OH227883   4.628   3.831  13.290  0.3465 -0.3185  0.0736
 2131TIP3    H127884   4.674   3.863  13.212 -0.5206 -0.6612 -0.5841
 2131TIP3    H227885   4.657   3.889  13.360  2.0149 -0.7125 -0.2663
 2132TIP3   OH227886   1.042   5.888  13.923 -0.1640 -0.2496  0.0597
 2132TIP3    H127887   1.025   5.967  13.975  2.5051 -0.2481  0.9800
 2132TIP3    H227888   1.027   5.917  13.832 -2.2980  0.4299  0.5826
 2133TIP3   OH227889   6.603   3.224  13.424  0.8180  0.1567 -0.0092
 2133TIP3    H127890   6.539   3.237  13.494  0.1587 -0.3238 -0.5128
 2133TIP3    H227891   6.688   3.240  13.465  0.3864  0.6353  0.7066
 2134TIP3   OH227892   3.574   6.305  14.724 -0.3888 -0.4390 -0.0396
 2134TIP3    H127893   3.513   6.379  14.727 -0.8958 -0.8552 -0.0457
 2134TIP3    H227894   3.659   6.345  14.705 -0.6088  0.1742  0.2429
 2135TIP3   OH227895   5.470   6.361  12.238  0.4264  0.3198  0.7407
 2135TIP3    H127896   5.544   6.420  12.251  1.0104 -0.0717 -0.7716
 2135TIP3    H227897   5.507   6.273  12.244 -0.0942  0.1078  0.9408
 2136TIP3   OH227898   5.556   5.102   1.155 -0.3005  0.1114 -0.1925
 2136TIP3    H127899   5.553   5.102   1.059  1.2536 -0.1042 -0.2534
 2136TIP3    H227900   5.546   5.194   1.179 -0.7197  0.1620 -0.5631
 2137TIP3   OH227901   1.057   6.003   2.513  0.0341 -0.4164  0.4124
 2137TIP3    H127902   1.013   6.007   2.428  0.2856 -1.4198  0.2177
 2137TIP3    H227903   1.051   5.910   2.537  1.4603 -0.4447  0.6820
 2138TIP3   OH227904   0.639   2.309  11.995  0.1379  0.5006 -0.0485
 2138TIP3    H127905   0.579   2.235  11.983 -1.0174  1.5314 -0.7504
 2138TIP3    H227906   0.634   2.328  12.089 -0.3759  0.3493 -0.0406
 2139TIP3   OH227907   0.837   1.016   2.979  0.0310 -0.1171 -0.6787
 2139TIP3    H127908   0.815   1.105   2.953 -1.1422 -0.4031 -0.6844
 2139TIP3    H227909   0.851   0.970   2.896 -0.5841 -0.2447 -0.7119
 2140TIP3   OH227910   3.423   6.529   3.317 -0.6078 -0.8079 -0.2071
 2140TIP3    H127911   3.396   6.538   3.225 -1.0852  0.3996  0.0384
 2140TIP3    H227912   3.393   6.443   3.343 -0.8433 -0.9924 -1.0612
 2141TIP3   OH227913   5.313   4.761   1.514  0.6741 -0.3715 -0.3461
 2141TIP3    H127914   5.348   4.810   1.440 -0.6575  0.3317 -0.5352
 2141TIP3    H227915   5.317   4.821   1.588 -2.2167  0.5821 -0.8716
 2142TIP3   OH227916   5.092   5.626  13.548 -0.6985  0.0934 -0.2152
 2142TIP3    H127917   5.084   5.573  13.627 -0.4359  0.5466  0.1196
 2142TIP3    H227918   5.172   5.595  13.506  0.1104  1.0387  0.6076
 2143TIP3   OH227919   0.005   4.991   3.578 -0.1229  0.4067  0.0378
 2143TIP3    H127920  -0.001   5.049   3.502  0.6543  2.3386  1.4028
 2143TIP3    H227921   0.058   5.040   3.641  1.2715 -2.1612  0.9221
 2144TIP3   OH227922   0.099   1.568   3.867  0.0214  0.7954 -0.1202
 2144TIP3    H127923   0.170   1.505   3.854 -0.7042  0.0820 -0.6504
 2144TIP3    H227924   0.116   1.637   3.803  1.2083  1.4903  0.9334
 2145TIP3   OH227925   5.168   1.566  12.283  0.1915  0.3660  0.1792
 2145TIP3    H127926   5.263   1.576  12.279  0.0977  0.5351 -1.9676
 2145TIP3    H227927   5.148   1.502  12.216 -1.2609  0.6509  0.3324
 2146TIP3   OH227928   0.663   1.270  13.125  0.3081  0.3967 -0.1983
 2146TIP3    H127929   0.691   1.187  13.087 -0.7420  0.6553 -1.5591
 2146TIP3    H227930   0.732   1.332  13.100  1.1044 -0.0410  0.8390
 2147TIP3   OH227931   1.259   5.538  15.098 -0.1157 -0.4201  0.5853
 2147TIP3    H127932   1.267   5.446  15.124 -2.3830 -0.1099  2.5767
 2147TIP3    H227933   1.212   5.579  15.171  1.9480  2.5917  0.2859
 2148TIP3   OH227934   5.051   4.500  15.771  0.1587 -0.1415 -0.0035
 2148TIP3    H127935   5.075   4.413  15.739 -0.7154  0.0616 -1.2385
 2148TIP3    H227936   5.031   4.486  15.863 -0.3244 -1.3206 -0.2733
 2149TIP3   OH227937   2.300   5.863   1.570  0.7846 -0.4485 -0.6213
 2149TIP3    H127938   2.243   5.870   1.493 -1.2922  4.3899  1.1657
 2149TIP3    H227939   2.253   5.804   1.629 -0.6602  0.6708 -0.6231
 2150TIP3   OH227940   2.800   6.633   0.157 -0.6746  0.6353  0.5298
 2150TIP3    H127941   2.802   6.547   0.115 -1.5814  0.8375  0.0488
 2150TIP3    H227942   2.879   6.677   0.124 -0.4124  0.1244  0.4738
 2151TIP3   OH227943   1.721   0.812   5.986 -0.3889 -0.7433 -0.7617
 2151TIP3    H127944   1.801   0.763   5.966 -0.8977 -1.9350  0.0180
 2151TIP3    H227945   1.721   0.821   6.081  0.0599  1.4356 -0.9655
 2152TIP3   OH227946   5.120   1.233  16.405 -0.2877  0.1886 -0.2171
 2152TIP3    H127947   5.070   1.308  16.434 -1.3530 -0.6741  0.2016
 2152TIP3    H227948   5.056   1.175  16.364  0.6750 -0.0684 -1.3959
 2153TIP3   OH227949   3.038   2.639   4.194 -0.6431 -0.5370  0.1209
 2153TIP3    H127950   2.981   2.715   4.180  0.6531  0.1995 -1.2658
 2153TIP3    H227951   2.984   2.564   4.167 -0.9132  0.1635 -1.3612
 2154TIP3   OH227952   3.341   5.526  15.558  0.5431 -0.0584  0.5074
 2154TIP3    H127953   3.322   5.527  15.464 -0.8557 -0.3077  0.7809
 2154TIP3    H227954   3.255   5.521  15.600  1.2182 -1.4128  1.7702
 2155TIP3   OH227955   2.596   6.511   2.588 -0.2921 -0.1480  0.3404
 2155TIP3    H127956   2.593   6.482   2.679  1.5296 -0.1795  0.3945
 2155TIP3    H227957   2.504   6.529   2.566 -0.8490 -0.9940  1.8952
 2156TIP3   OH227958   1.130   2.256  14.021  0.1872 -0.6831 -0.2311
 2156TIP3    H127959   1.088   2.240  14.105  0.6277 -1.9515 -0.2474
 2156TIP3    H227960   1.192   2.327  14.038 -0.9803  0.2764  0.0968
 2157TIP3   OH227961   3.981   1.645   1.809 -0.2602 -0.5059 -0.2803
 2157TIP3    H127962   3.892   1.647   1.845 -0.5931  0.3973 -1.1239
 2157TIP3    H227963   4.037   1.631   1.885 -1.1327 -1.1476  0.2510
 2158TIP3   OH227964   5.377   0.552   5.815 -0.3807 -0.3613 -0.7974
 2158TIP3    H127965   5.289   0.542   5.778 -0.5907 -0.5130 -0.2636
 2158TIP3    H227966   5.392   0.646   5.817 -0.4000 -0.3525 -1.2041
 2159TIP3   OH227967   0.054   0.349   5.545  0.1584  0.3750  0.0619
 2159TIP3    H127968  -0.024   0.303   5.576  0.4402 -0.0710  0.1139
 2159TIP3    H227969   0.125   0.313   5.598  0.6704 -0.5080 -1.1893
 2160TIP3   OH227970   4.597   2.465  16.814 -0.7480  0.7129  0.4119
 2160TIP3    H127971   4.681   2.441  16.854 -0.5478  1.8350  0.6920
 2160TIP3    H227972   4.617   2.477  16.721 -1.2813 -2.2331 -0.1284
 2161TIP3   OH227973   2.892   3.533   3.570  0.9003  0.0948  0.0417
 2161TIP3    H127974   2.927   3.479   3.641  0.5164 -0.5950 -0.2904
 2161TIP3    H227975   2.811   3.489   3.544  0.1008  1.3430  0.3802
 2162TIP3   OH227976   5.518   6.085   4.926  0.3170 -0.1725 -0.2790
 2162TIP3    H127977   5.596   6.058   4.878  0.9471 -0.0198  0.6476
 2162TIP3    H227978   5.514   6.025   5.001 -0.0678  0.2629  0.0501
 2163TIP3   OH227979   4.571   5.254   4.982  0.2867  0.2336  0.3659
 2163TIP3    H127980   4.512   5.327   4.966 -0.2873 -0.5784 -1.3929
 2163TIP3    H227981   4.604   5.230   4.895  1.3693 -0.8398  1.0452
 2164TIP3   OH227982   0.912   4.593  16.980  0.4040  0.1052  0.4528
 2164TIP3    H127983   0.829   4.615  17.022  0.6515 -0.1597  1.0844
 2164TIP3    H227984   0.920   4.656  16.909 -1.9900 -1.9417 -1.7475
 2165TIP3   OH227985   4.236   5.823  15.183  0.1127  0.0870  0.0807
 2165TIP3    H127986   4.201   5.830  15.272  2.3002 -0.4563  0.9967
 2165TIP3    H227987   4.216   5.733  15.157 -0.9805  0.3970 -0.1952
 2166TIP3   OH227988   2.291   1.201   3.774  0.2577 -0.7514 -0.3014
 2166TIP3    H127989   2.377   1.240   3.788 -0.1083 -0.2414  0.5578
 2166TIP3    H227990   2.270   1.223   3.683 -0.1242  1.4552  0.2887
 2167TIP3   OH227991   4.724   4.972  14.815  0.1474 -0.0607 -0.6914
 2167TIP3    H127992   4.671   4.896  14.841  2.0379 -1.0907  0.2105
 2167TIP3    H227993   4.804   4.935  14.779  0.8810  1.5136 -0.7189
 2168TIP3   OH227994   0.748   0.931  16.654  0.0065 -0.3194  0.2514
 2168TIP3    H127995   0.687   0.860  16.633  0.8793 -0.9454 -0.1906
 2168TIP3    H227996   0.809   0.932  16.581  0.7573  0.0526  0.8785
 2169TIP3   OH227997   4.424   4.955   5.989 -0.0892  0.8362  0.5689
 2169TIP3    H127998   4.513   4.980   5.962 -0.4882  1.2883 -0.3868
 2169TIP3    H227999   4.376   5.038   5.992 -0.5844  0.5502  0.6503
 2170TIP3   OH228000   5.629   2.630  15.327  0.6938  0.3347 -0.5109
 2170TIP3    H128001   5.683   2.643  15.405 -1.5219 -0.0098  1.1199
 2170TIP3    H228002   5.586   2.546  15.340 -0.1065  0.5137 -1.8559
 2171TIP3   OH228003   4.121   3.775   1.554 -0.4277 -0.0430 -0.0168
 2171TIP3    H128004   4.077   3.847   1.599 -4.1546 -1.9317 -0.4136
 2171TIP3    H228005   4.050   3.724   1.514  2.2257 -2.6677 -1.6703
 2172TIP3   OH228006   6.018   2.031   3.262  0.8073 -0.5518 -0.0899
 2172TIP3    H128007   5.953   2.007   3.328  1.6300 -2.5981  0.0083
 2172TIP3    H228008   6.037   1.949   3.215  1.9331  0.3962 -1.3413
 2173TIP3   OH228009   2.439   5.848  14.499  0.7562  0.4208  0.2086
 2173TIP3    H128010   2.463   5.818  14.412 -0.6859  0.3057 -0.1635
 2173TIP3    H228011   2.353   5.889  14.487  0.8274  0.9496  1.4605
 2174TIP3   OH228012   3.662   2.178   3.947  0.1586  0.0855 -0.1684
 2174TIP3    H128013   3.665   2.271   3.972  2.7136  0.3089 -1.1218
 2174TIP3    H228014   3.647   2.180   3.852 -1.4109 -0.5481  0.0514
 2175TIP3   OH228015   2.070   0.762  16.948 -0.0296  0.2151 -0.1927
 2175TIP3    H128016   2.017   0.840  16.934 -1.8962 -0.7109  1.5237
 2175TIP3    H228017   2.113   0.777  17.032  2.4222  0.9094 -1.5103
 2176TIP3   OH228018   2.206   5.451   2.600 -0.4245  0.2375 -0.8559
 2176TIP3    H128019   2.148   5.386   2.559 -2.2453  0.0101  1.9672
 2176TIP3    H228020   2.226   5.513   2.530 -1.4203 -1.4927 -2.7140
 2177TIP3   OH228021   0.838   4.164   1.347  0.0699  0.2313 -0.0653
 2177TIP3    H128022   0.819   4.104   1.275  0.5773 -1.0018  0.8138
 2177TIP3    H228023   0.924   4.136   1.379 -0.1685  0.7480  1.0266
 2178TIP3   OH228024   5.720   0.887   2.796  0.1118  0.1771 -0.5004
 2178TIP3    H128025   5.782   0.847   2.857 -0.1612 -0.1199 -0.4225
 2178TIP3    H228026   5.678   0.957   2.847  1.2781  1.1993 -0.9142
 2179TIP3   OH228027   0.148   1.540  15.915 -0.0082  0.0608  0.3385
 2179TIP3    H128028   0.158   1.445  15.907 -0.8183 -0.0297  0.4099
 2179TIP3    H228029   0.054   1.554  15.922 -0.0801  1.0530 -2.1784
 2180TIP3   OH228030   3.674   6.686   1.300  0.1595  0.6337 -0.1617
 2180TIP3    H128031   3.601   6.644   1.255 -1.9135  2.9068  0.9451
 2180TIP3    H228032   3.744   6.690   1.235 -1.8627  1.4373 -2.3519
 2181TIP3   OH228033   0.350   5.145   2.496  0.4956  0.3880  0.2177
 2181TIP3    H128034   0.314   5.217   2.445  1.3360 -0.3902 -1.5430
 2181TIP3    H228035   0.428   5.118   2.447  2.0953  0.4559  2.6273
 2182TIP3   OH228036   0.187   4.587  15.726  0.0016  0.2904 -0.3546
 2182TIP3    H128037   0.198   4.613  15.635  0.2963  1.1107 -0.0868
 2182TIP3    H228038   0.276   4.588  15.762 -0.1673  0.4540  0.0705
 2183TIP3   OH228039   3.353   6.121   5.184  0.3794 -0.3460  0.3285
 2183TIP3    H128040   3.423   6.181   5.157  0.5169 -0.4482  0.4569
 2183TIP3    H228041   3.398   6.052   5.233  0.2146 -0.5285  0.2242
 2184TIP3   OH228042   1.531   2.923  17.211 -0.2314 -0.1150  0.1461
 2184TIP3    H128043   1.495   2.838  17.236  1.2173  0.3021  4.0069
 2184TIP3    H228044   1.617   2.903  17.173 -1.4294 -0.5757 -2.4436
 2185TIP3   OH228045   2.678   6.493   1.873 -0.1428 -0.2820  0.0594
 2185TIP3    H128046   2.661   6.555   1.944  1.6516  0.1156  0.1738
 2185TIP3    H228047   2.735   6.427   1.912  0.7040 -0.1571 -0.9463
 2186TIP3   OH228048   4.092   1.252   2.309  0.1775 -0.5237 -0.5803
 2186TIP3    H128049   4.176   1.217   2.279  1.7304  1.1278  1.6742
 2186TIP3    H228050   4.092   1.343   2.279 -0.2501 -0.1704  0.4713
 2187TIP3   OH228051   3.119   4.023  13.287 -0.0633  0.0938 -0.6671
 2187TIP3    H128052   3.034   4.040  13.328 -0.4633 -1.4072 -0.8583
 2187TIP3    H228053   3.174   3.991  13.358 -0.6017 -2.0004 -1.1620
 2188TIP3   OH228054   2.637   1.550  13.724  0.5613 -0.1831  0.2245
 2188TIP3    H128055   2.568   1.604  13.761  0.0031  0.0180 -1.1140
 2188TIP3    H228056   2.686   1.608  13.666 -0.1485 -1.1363 -1.3546
 2189TIP3   OH228057   6.233   2.279   6.073  0.4115  0.1250  0.8045
 2189TIP3    H128058   6.254   2.286   5.980 -0.3188  1.7443  0.7408
 2189TIP3    H228059   6.205   2.367   6.098 -0.1988 -0.4879  2.3632
 2190TIP3   OH228060   3.302   4.730   2.416  0.1749 -0.2511  0.3444
 2190TIP3    H128061   3.256   4.657   2.377  1.3599 -1.5021  1.2447
 2190TIP3    H228062   3.387   4.732   2.371 -0.6428  1.9501 -1.2170
 2191TIP3   OH228063   2.983   4.380   1.513 -0.2563 -0.5495 -0.1324
 2191TIP3    H128064   2.979   4.414   1.424  0.2926  1.1742  0.4956
 2191TIP3    H228065   3.016   4.290   1.503 -1.1837 -0.7235 -1.7409
 2192TIP3   OH228066   4.312   3.360  17.124 -0.0813  0.2520  0.2434
 2192TIP3    H128067   4.374   3.434  17.124 -0.7927  0.8499 -0.6060
 2192TIP3    H228068   4.226   3.401  17.127 -0.4821 -0.5531 -0.1153
 2193TIP3   OH228069   4.423   0.663   0.008 -0.5348 -0.3595  0.1336
 2193TIP3    H128070   4.395   0.754   0.001 -0.9945 -0.4831  0.3374
 2193TIP3    H228071   4.511   0.662  -0.030  0.1074  0.4784  1.5618
 2194TIP3   OH228072   6.447   5.467   4.709 -0.4714  0.0340  0.6391
 2194TIP3    H128073   6.408   5.517   4.780  0.8479 -1.8793  2.7713
 2194TIP3    H228074   6.427   5.518   4.630 -1.5447  2.4371  2.4003
 2195TIP3   OH228075   0.928   5.391   3.503  0.7631 -0.4780  0.0858
 2195TIP3    H128076   0.869   5.367   3.575  1.1260 -1.5850  0.0301
 2195TIP3    H228077   0.886   5.467   3.462 -0.5089 -1.0960  0.1979
 2196TIP3   OH228078   4.651   4.915   1.224 -0.0517  0.5095 -0.4211
 2196TIP3    H128079   4.747   4.920   1.224  0.0411 -0.9951 -1.3764
 2196TIP3    H228080   4.624   4.956   1.142 -0.1559 -0.1013 -0.6962
 2197TIP3   OH228081   3.568   4.849   1.859  0.3631 -0.8824 -0.7810
 2197TIP3    H128082   3.509   4.892   1.797  0.1225  0.7742  0.5642
 2197TIP3    H228083   3.655   4.858   1.819  0.0196 -1.2798 -1.6479
 2198TIP3   OH228084   0.398   3.686   2.333  0.5156  0.3807 -0.2416
 2198TIP3    H128085   0.304   3.697   2.316  0.5295  0.8144 -0.0314
 2198TIP3    H228086   0.434   3.656   2.249  0.2957  0.8170 -0.4907
 2199TIP3   OH228087   2.463   2.654  14.798 -0.0080 -0.3785 -0.5290
 2199TIP3    H128088   2.531   2.608  14.847 -0.4515 -1.6579 -1.1077
 2199TIP3    H228089   2.511   2.723  14.752  0.5087  0.4038  1.1356
 2200TIP3   OH228090   6.462   6.256  16.182 -0.1144  0.4441  0.6487
 2200TIP3    H128091   6.461   6.351  16.186 -1.2593  0.4234  0.9711
 2200TIP3    H228092   6.381   6.233  16.137 -0.0565 -0.4049  0.9681
 2201TIP3   OH228093   1.733   5.389   5.467  0.6784 -0.3047  0.3083
 2201TIP3    H128094   1.693   5.379   5.553  0.1067  0.4636  0.1391
 2201TIP3    H228095   1.801   5.322   5.464  0.4290 -0.6034  1.1980
 2202TIP3   OH228096   3.513   3.203  16.755 -0.6898 -0.7079 -0.4780
 2202TIP3    H128097   3.531   3.274  16.817  0.6824 -2.6068  1.3603
 2202TIP3    H228098   3.429   3.227  16.715 -0.0466  2.1523 -0.2276
 2203TIP3   OH228099   1.229   0.145  11.623  0.4493 -0.1243 -0.1281
 2203TIP3    H128100   1.316   0.129  11.586  0.6345  0.5404  0.0107
 2203TIP3    H228101   1.242   0.140  11.718  0.8837  2.5871 -0.0068
 2204TIP3   OH228102   5.469   2.416   2.357  0.1264 -0.1461  0.1340
 2204TIP3    H128103   5.483   2.511   2.356 -0.8919  0.0674  2.1627
 2204TIP3    H228104   5.394   2.402   2.300 -1.5075  0.6332  2.0387
 2205TIP3   OH228105   3.958   2.790  15.419  0.4407  0.1482  0.7324
 2205TIP3    H128106   3.966   2.856  15.351 -1.1615 -1.4665 -1.0645
 2205TIP3    H228107   3.864   2.786  15.438  0.5377 -1.5613  0.8854
 2206TIP3   OH228108   1.593   6.561   5.292  0.1865  0.2042  0.7226
 2206TIP3    H128109   1.617   6.633   5.233  0.1140  0.3893  0.9169
 2206TIP3    H228110   1.652   6.490   5.269 -0.6168 -0.1157 -0.3648
 2207TIP3   OH228111   4.959   4.051  16.703 -0.5016  0.4530 -0.8382
 2207TIP3    H128112   4.864   4.043  16.710 -0.4515 -2.8038 -2.6497
 2207TIP3    H228113   4.980   4.009  16.619  2.5193  1.2161 -0.5219
 2208TIP3   OH228114   3.000   4.253  15.929 -0.3881  0.7754 -0.8445
 2208TIP3    H128115   3.088   4.218  15.918 -0.9630 -0.6161 -1.1495
 2208TIP3    H228116   2.999   4.334  15.878  0.5911  0.6046 -1.1391
 2209TIP3   OH228117   2.848   2.767   3.105  0.0364 -0.1435 -0.0233
 2209TIP3    H128118   2.806   2.703   3.048 -0.4068 -0.6917  0.9083
 2209TIP3    H228119   2.942   2.758   3.085 -0.1874  0.2842 -1.2795
 2210TIP3   OH228120   5.856   5.161   0.315  0.4083  0.1938  0.1090
 2210TIP3    H128121   5.925   5.097   0.299  0.2051 -0.0894  0.3921
 2210TIP3    H228122   5.777   5.121   0.280  0.2088  0.1302  0.6305
 2211TIP3   OH228123   4.166   0.626   5.102  0.0458  0.1176 -0.1717
 2211TIP3    H128124   4.091   0.621   5.043 -0.9361  1.5027  0.9345
 2211TIP3    H228125   4.143   0.695   5.164  2.5548  1.0751 -0.2615
 2212TIP3   OH228126   1.027   5.197   4.136 -0.1519 -0.1428  0.2486
 2212TIP3    H128127   1.057   5.138   4.204  0.0276 -2.2068 -1.5791
 2212TIP3    H228128   1.086   5.180   4.062  0.6699  3.1552  0.0450
 2213TIP3   OH228129   4.572   3.223   1.994  0.2429 -0.4060  0.2653
 2213TIP3    H128130   4.584   3.235   2.088 -3.0936  1.0178  0.5983
 2213TIP3    H228131   4.483   3.256   1.977 -0.4794 -3.5930 -2.8107
 2214TIP3   OH228132   5.587   6.087  15.023 -0.2205 -0.7594 -0.4733
 2214TIP3    H128133   5.572   6.181  15.014  0.5726 -0.5496  0.2473
 2214TIP3    H228134   5.675   6.081  15.061  0.0520 -1.8129 -1.2404
 2215TIP3   OH228135   0.937   2.133   5.674  0.1429 -0.1411 -0.0832
 2215TIP3    H128136   0.972   2.208   5.722 -1.6156  0.6288  0.0373
 2215TIP3    H228137   0.868   2.098   5.730 -0.6286 -0.4076 -1.1701
 2216TIP3   OH228138   0.726   3.724  16.652 -0.0231  0.0327  0.6577
 2216TIP3    H128139   0.684   3.805  16.623  0.3352  0.2516  0.7468
 2216TIP3    H228140   0.738   3.736  16.746 -2.0753 -1.0777  1.0942
 2217TIP3   OH228141   1.237   2.410   1.442 -0.4277  0.0568 -0.2444
 2217TIP3    H128142   1.205   2.413   1.532 -0.8949 -2.7773 -0.2919
 2217TIP3    H228143   1.325   2.447   1.446 -1.3096  2.1048  0.9478
 2218TIP3   OH228144   6.385   6.754   3.918  0.0323 -0.1896  0.6768
 2218TIP3    H128145   6.467   6.777   3.873 -0.2303 -1.7184 -0.6118
 2218TIP3    H228146   6.320   6.746   3.848 -0.9566 -0.1040  1.5798
 2219TIP3   OH228147   2.555   4.937  12.120  0.8914  0.2031 -0.3234
 2219TIP3    H128148   2.571   5.029  12.142 -2.2981  0.7626 -0.0643
 2219TIP3    H228149   2.500   4.904  12.191 -1.3832 -0.7206 -2.4209
 2220TIP3   OH228150   4.076   5.762   0.410  0.2916  0.5420  0.4651
 2220TIP3    H128151   4.023   5.830   0.370 -0.9911 -1.5177 -1.4502
 2220TIP3    H228152   4.159   5.764   0.361  0.4543  1.0605  0.7592
 2221TIP3   OH228153   2.612   5.157  15.130  0.5331  0.1153  0.0246
 2221TIP3    H128154   2.672   5.086  15.151  0.3873  0.1017  0.3968
 2221TIP3    H228155   2.658   5.209  15.063  0.2985 -0.7952 -0.8501
 2222TIP3   OH228156   5.230   1.356  13.968 -0.4142 -0.5784 -0.0479
 2222TIP3    H128157   5.210   1.413  13.894  0.3166 -0.4017 -0.1180
 2222TIP3    H228158   5.319   1.381  13.993 -1.3671  0.7238  2.1370
 2223TIP3   OH228159   0.678   2.361   5.583  0.3077 -0.0619 -0.3000
 2223TIP3    H128160   0.692   2.301   5.509  2.1551 -0.1983  0.1342
 2223TIP3    H228161   0.588   2.343   5.611 -0.3706 -0.1345 -2.3918
 2224TIP3   OH228162   5.549   0.343  16.685  0.1480 -0.1903 -0.2094
 2224TIP3    H128163   5.595   0.262  16.664  0.5779 -0.1000  0.3685
 2224TIP3    H228164   5.556   0.396  16.606 -1.4715 -1.3148 -1.1470
 2225TIP3   OH228165   2.581   1.740   3.871 -0.7259 -0.5835  0.1944
 2225TIP3    H128166   2.651   1.680   3.897 -2.1461 -1.2301  2.7544
 2225TIP3    H228167   2.618   1.827   3.883  0.3768 -0.9132 -0.7013
 2226TIP3   OH228168   2.394   6.448  17.082  0.4129 -0.2678 -0.4829
 2226TIP3    H128169   2.480   6.476  17.050 -0.1296  2.0222 -0.0246
 2226TIP3    H228170   2.335   6.519  17.057 -1.1749 -1.3951  0.0244
 2227TIP3   OH228171   0.220   4.496   2.273  0.5450  0.6040  0.1326
 2227TIP3    H128172   0.240   4.554   2.346  0.6219  0.4246  0.2555
 2227TIP3    H228173   0.285   4.518   2.206  1.7209 -0.5933  0.8664
 2228TIP3   OH228174   1.702   3.327   1.535  0.1980  0.1912 -0.0827
 2228TIP3    H128175   1.781   3.378   1.548  0.7436 -0.8629  0.8294
 2228TIP3    H228176   1.716   3.247   1.585  0.1519 -1.7045 -2.9700
 2229TIP3   OH228177   0.685   5.832  15.766  0.5226  0.1658  0.3182
 2229TIP3    H128178   0.604   5.847  15.717  2.1401  0.2216 -2.4605
 2229TIP3    H228179   0.665   5.859  15.855 -2.4313  0.4163 -0.3791
 2230TIP3   OH228180   2.515   5.003   4.354 -0.4505 -0.5802  0.6001
 2230TIP3    H128181   2.506   5.091   4.319 -1.5854 -0.7278  0.5099
 2230TIP3    H228182   2.447   4.952   4.310 -0.1152 -1.3878  1.0033
 2231TIP3   OH228183   2.529   2.115  12.248 -0.1757  0.6329  0.0266
 2231TIP3    H128184   2.524   2.209  12.266  0.4435  0.8252 -0.7504
 2231TIP3    H228185   2.548   2.075  12.332 -0.9362  1.1597  0.4517
 2232TIP3   OH228186   2.465   5.886  16.196 -0.0349 -0.2550 -0.3957
 2232TIP3    H128187   2.487   5.972  16.233 -0.3356 -0.8505  1.2375
 2232TIP3    H228188   2.455   5.902  16.103  2.4746  0.9803 -0.4944
 2233TIP3   OH228189   3.500   4.229  14.053 -0.1374 -0.9568  0.1800
 2233TIP3    H128190   3.519   4.199  13.964 -0.2549 -3.4729  0.9788
 2233TIP3    H228191   3.481   4.323  14.043 -0.1205 -1.1988 -2.4305
 2234TIP3   OH228192   6.227   3.630  16.791  1.3446  0.2647  0.4965
 2234TIP3    H128193   6.296   3.631  16.725  2.1289 -0.3632  1.2965
 2234TIP3    H228194   6.204   3.538  16.800  0.1948  0.4933  0.0367
 2235TIP3   OH228195   3.211   6.490  13.759 -0.4948  0.2512  0.4569
 2235TIP3    H128196   3.287   6.547  13.766 -0.8811  0.5828  2.0840
 2235TIP3    H228197   3.212   6.460  13.668  1.6180  0.1874  0.4799
 2236TIP3   OH228198   6.391   3.196  13.629 -1.0617  0.1574  0.4878
 2236TIP3    H128199   6.323   3.229  13.688  0.2780 -0.2850  2.3018
 2236TIP3    H228200   6.347   3.127  13.578 -1.9131 -0.2598  1.7669
 2237TIP3   OH228201   6.595   1.809  14.980  0.0018  0.0407  0.2287
 2237TIP3    H128202   6.577   1.857  15.061 -2.4882 -0.0595 -0.2284
 2237TIP3    H228203   6.546   1.857  14.913 -1.4887 -2.3738 -0.4613
 2238TIP3   OH228204   1.494   5.934   2.148  0.5351 -0.0903  0.0104
 2238TIP3    H128205   1.501   5.875   2.073  2.3885 -0.2710  0.2919
 2238TIP3    H228206   1.501   5.876   2.224 -0.6649  0.1649  0.3197
 2239TIP3   OH228207   2.672   3.751   5.665  0.0121 -0.3136  0.1925
 2239TIP3    H128208   2.609   3.808   5.621 -0.5064 -0.2402  1.0114
 2239TIP3    H228209   2.754   3.799   5.661  0.1091 -0.5905 -1.2401
 2240TIP3   OH228210   6.672   1.018   3.955 -0.0709  0.2580  0.4731
 2240TIP3    H128211   6.673   1.107   3.919 -1.9108 -0.6641 -2.0585
 2240TIP3    H228212   6.713   0.965   3.886 -1.0761 -1.1675  0.9688
 2241TIP3   OH228213   1.065   2.158  13.568  0.2202 -0.0512 -0.4073
 2241TIP3    H128214   1.019   2.137  13.649  0.1134  0.5127 -0.3165
 2241TIP3    H228215   1.033   2.245  13.544  1.2594  0.3655 -0.3244
 2242TIP3   OH228216   2.140   6.197  14.682 -0.2211 -0.3274 -0.1153
 2242TIP3    H128217   2.149   6.171  14.590 -0.8637 -0.5332 -0.1224
 2242TIP3    H228218   2.148   6.292  14.681  1.6098 -0.4711 -0.1532
 2243TIP3   OH228219   4.056   3.382  15.061  0.2146 -0.1222 -0.2666
 2243TIP3    H128220   4.150   3.403  15.060  0.0946  0.4090 -1.3027
 2243TIP3    H228221   4.013   3.467  15.061 -0.2765 -0.3511 -2.2118
 2244TIP3   OH228222   2.517   0.343   2.119 -0.1645 -0.2436 -0.1620
 2244TIP3    H128223   2.539   0.301   2.202  1.1044 -1.3405 -1.0394
 2244TIP3    H228224   2.585   0.409   2.107 -1.6253  1.4722  0.7539
 2245TIP3   OH228225   4.175   0.845  11.185 -0.0003 -0.2084  0.3447
 2245TIP3    H128226   4.125   0.765  11.203 -0.7195  0.2886  0.5760
 2245TIP3    H228227   4.145   0.908  11.251  2.5947 -0.5888  1.9733
 2246TIP3   OH228228   2.562   0.750  11.226 -0.3154  0.2854 -0.0910
 2246TIP3    H128229   2.584   0.800  11.305  1.2307  0.9262 -0.8954
 2246TIP3    H228230   2.513   0.674  11.258  1.7645 -0.3772  1.6596
 2247TIP3   OH228231   4.916   4.939   3.408 -0.8034  0.6986  0.0351
 2247TIP3    H128232   4.980   4.922   3.340 -0.7697 -1.2131  0.5126
 2247TIP3    H228233   4.958   5.003   3.466  0.2700  0.1866 -0.1791
 2248TIP3   OH228234   0.917   5.171  11.728  0.3875  0.8864 -0.2617
 2248TIP3    H128235   0.880   5.106  11.669 -0.9586 -0.1016  1.6161
 2248TIP3    H228236   1.012   5.155  11.725  0.3475  0.9332 -2.1902
 2249TIP3   OH228237   1.857   4.183  15.427 -0.4361  0.2113  0.0137
 2249TIP3    H128238   1.912   4.143  15.359 -0.4272 -0.5678  0.4671
 2249TIP3    H228239   1.877   4.276  15.423  1.4134 -0.1347  0.6006
 2250TIP3   OH228240   5.195   6.703  12.557 -0.2260 -0.7626 -0.1892
 2250TIP3    H128241   5.117   6.724  12.608  0.3823  0.2517  0.3424
 2250TIP3    H228242   5.215   6.784  12.510  0.1270 -1.2150 -0.8172
 2251TIP3   OH228243   2.109   2.212   4.529 -0.3908  0.3629 -0.2472
 2251TIP3    H128244   2.020   2.183   4.509 -0.3306 -0.4009  0.5194
 2251TIP3    H228245   2.098   2.292   4.580 -0.5871  1.2513 -1.6729
 2252TIP3   OH228246   1.323   1.530   0.371  0.3422 -0.3306 -0.0296
 2252TIP3    H128247   1.361   1.589   0.307  1.3103 -2.4246 -1.4547
 2252TIP3    H228248   1.292   1.455   0.320 -0.9943 -0.9912  1.6988
 2253TIP3   OH228249   6.373   3.524   3.101 -0.2926  0.2066 -0.0068
 2253TIP3    H128250   6.332   3.498   3.018 -3.0004  2.5238  0.5360
 2253TIP3    H228251   6.466   3.533   3.079 -0.8632  0.1984 -2.6663
 2254TIP3   OH228252   6.459   6.104   5.158  0.2120 -0.0558 -0.3252
 2254TIP3    H128253   6.415   6.076   5.078 -1.2986 -3.1891  1.5402
 2254TIP3    H228254   6.514   6.030   5.183  1.1907  1.1427  1.2310
 2255TIP3   OH228255   4.752   6.262  11.796 -0.0293 -0.0439 -0.1795
 2255TIP3    H128256   4.842   6.289  11.780 -0.0006 -0.1333 -0.1751
 2255TIP3    H228257   4.747   6.173  11.760 -0.2654  0.1694 -0.6669
 2256TIP3   OH228258   2.931   1.411  13.997  0.6563 -0.1303  0.0635
 2256TIP3    H128259   2.948   1.503  13.978  0.3947 -0.2422 -0.6945
 2256TIP3    H228260   3.016   1.368  13.986  0.9538  0.1350  1.1735
 2257TIP3   OH228261   5.685   4.723  11.170 -0.0299 -0.0768 -0.1459
 2257TIP3    H128262   5.675   4.817  11.190 -1.1600 -0.8979  3.6052
 2257TIP3    H228263   5.609   4.702  11.116 -1.3247  0.6288  1.3381
 2258TIP3   OH228264   0.791   2.232   2.747  0.0237 -0.7241  0.1160
 2258TIP3    H128265   0.874   2.249   2.791 -0.7707  0.3805  1.2448
 2258TIP3    H228266   0.779   2.307   2.688  0.4599 -1.5535 -1.0528
 2259TIP3   OH228267   2.753   1.490   6.342 -0.0453 -0.5204  0.0588
 2259TIP3    H128268   2.658   1.488   6.330 -0.1550  0.3516  0.6949
 2259TIP3    H228269   2.768   1.441   6.423 -0.0718  0.3312  0.5867
 2260TIP3   OH228270   5.023   2.082   2.610 -0.0523  0.1220 -0.4054
 2260TIP3    H128271   4.998   2.066   2.700  2.1447  3.4464  0.9024
 2260TIP3    H228272   5.105   2.034   2.599  0.3835  0.8065 -0.1854
 2261TIP3   OH228273   6.723   3.067  17.107  0.1190  0.1014 -0.3781
 2261TIP3    H128274   6.747   3.137  17.168  0.1265 -0.3072  0.0930
 2261TIP3    H228275   6.646   3.100  17.062  0.9136  0.9702 -1.1181
 2262TIP3   OH228276   4.279   5.115   4.887  0.1951  0.0510  0.1219
 2262TIP3    H128277   4.230   5.042   4.924 -0.1441  0.1298 -0.1637
 2262TIP3    H228278   4.369   5.100   4.914 -0.0082 -0.0182  0.7765
 2263TIP3   OH228279   3.214   1.382  14.239  0.0237 -0.0383 -0.5764
 2263TIP3    H128280   3.292   1.385  14.183 -0.7459 -2.0036 -1.7837
 2263TIP3    H228281   3.186   1.291  14.237 -0.1376 -0.1321  2.8964
 2264TIP3   OH228282   0.393   5.369   0.042 -0.2854 -0.1387 -0.1555
 2264TIP3    H128283   0.363   5.282   0.019  4.1183 -1.3383 -1.9588
 2264TIP3    H228284   0.393   5.417  -0.041  0.0838  0.6809  0.3082
 2265TIP3   OH228285   3.026   5.737   0.951  0.1724  0.2507 -0.2455
 2265TIP3    H128286   2.982   5.821   0.966  2.8721  1.5391  1.0117
 2265TIP3    H228287   3.086   5.755   0.879  2.5076  0.1536  1.6090
 2266TIP3   OH228288   2.301   0.086  11.059  0.4061  0.8951 -0.0112
 2266TIP3    H128289   2.320   0.006  11.011  0.9708  1.3655 -0.5658
 2266TIP3    H228290   2.302   0.059  11.151 -2.4633 -0.3976 -0.2854
 2267TIP3   OH228291   1.906   6.147   5.104 -0.7176 -0.5820 -0.0257
 2267TIP3    H128292   1.930   6.235   5.131  0.5729 -0.3623 -1.7919
 2267TIP3    H228293   1.858   6.111   5.178  0.1028  1.0485  1.3176
 2268TIP3   OH228294   4.373   1.001  11.785 -0.0030  0.0023 -0.7103
 2268TIP3    H128295   4.396   1.093  11.794 -0.9784  0.2029 -0.2611
 2268TIP3    H228296   4.373   0.986  11.690  1.2414  0.1802 -0.7431
 2269TIP3   OH228297   3.540   6.357  15.590  0.1257  0.4068  0.5317
 2269TIP3    H128298   3.527   6.269  15.624 -0.3427  0.3136  0.1127
 2269TIP3    H228299   3.614   6.348  15.529  0.5911  0.4630  1.0775
 2270TIP3   OH228300   4.819   0.237   6.177  0.3272 -0.1505  0.8373
 2270TIP3    H128301   4.796   0.211   6.088  0.5817  0.5317  0.5646
 2270TIP3    H228302   4.782   0.169   6.233  2.5712 -2.0679  0.0403
 2271TIP3   OH228303   3.213   3.178  16.028 -0.0418  0.1310 -0.7023
 2271TIP3    H128304   3.305   3.178  16.054 -0.0975 -1.2616 -0.4420
 2271TIP3    H228305   3.172   3.114  16.086 -1.6409  2.3705  0.7330
 2272TIP3   OH228306   4.899   4.931  12.370  0.5278 -0.3959 -0.7594
 2272TIP3    H128307   4.975   4.877  12.393 -1.9641 -3.1045  1.7145
 2272TIP3    H228308   4.882   4.982  12.449 -1.6520 -1.6956 -0.3390
 2273TIP3   OH228309   6.290   5.340  12.138  0.4073  0.2173  0.2805
 2273TIP3    H128310   6.297   5.258  12.186 -1.3065  0.6835  1.3612
 2273TIP3    H228311   6.266   5.314  12.049 -0.0013 -0.4622  0.5896
 2274TIP3   OH228312   5.796   2.205  16.409  1.1995  0.0280 -0.1875
 2274TIP3    H128313   5.869   2.143  16.412 -0.4169 -1.9212 -0.1518
 2274TIP3    H228314   5.769   2.205  16.317  2.0827  1.8008 -0.4784
 2275TIP3   OH228315   0.800   0.232   3.998 -0.5053 -0.0495  0.2413
 2275TIP3    H128316   0.815   0.326   3.988 -0.5949 -0.0758 -0.1632
 2275TIP3    H228317   0.834   0.194   3.917  0.2402 -0.4479  0.7368
 2276TIP3   OH228318   2.440   5.222  15.748 -0.4717  0.2134 -0.0988
 2276TIP3    H128319   2.383   5.222  15.671  0.7975  0.7904 -1.0670
 2276TIP3    H228320   2.437   5.133  15.781 -1.4758  0.1008 -0.4826
 2277TIP3   OH228321   0.736   2.072   6.200  0.3593 -0.5041  0.1152
 2277TIP3    H128322   0.658   2.054   6.148 -1.7476 -1.2887  3.4298
 2277TIP3    H228323   0.724   2.162   6.231  1.9650  0.2264 -1.2467
 2278TIP3   OH228324   0.053   5.214   0.248  0.0544 -0.1530 -1.0900
 2278TIP3    H128325   0.074   5.272   0.321 -1.8343  0.4754 -1.0200
 2278TIP3    H228326   0.082   5.127   0.278 -1.1860  0.0120  0.6365
 2279TIP3   OH228327   6.649   2.704  12.327 -0.1373 -0.4110 -0.0931
 2279TIP3    H128328   6.670   2.768  12.395  1.5169 -0.7322 -0.2728
 2279TIP3    H228329   6.624   2.757  12.251 -3.9645 -0.0770  1.3228
 2280TIP3   OH228330   4.417   0.158   5.870  0.2359 -0.4675  0.3481
 2280TIP3    H128331   4.456   0.219   5.807 -1.3681  0.3706  0.1465
 2280TIP3    H228332   4.484   0.090   5.882  1.9609  1.2051  0.4115
 2281TIP3   OH228333   6.292   3.503  13.588  0.2828 -0.1742  0.0536
 2281TIP3    H128334   6.213   3.454  13.612 -0.0580  0.2065 -0.2690
 2281TIP3    H228335   6.276   3.530  13.498  0.6091  0.2458  0.1223
 2282TIP3   OH228336   3.474   1.695   5.981 -0.0820 -0.5105 -0.0458
 2282TIP3    H128337   3.379   1.694   5.997  0.2826  0.4390  2.2726
 2282TIP3    H228338   3.490   1.612   5.936 -1.9498 -0.9173 -0.0393
 2283TIP3   OH228339   4.618   3.599  15.630  0.4957  0.2795 -0.1555
 2283TIP3    H128340   4.617   3.549  15.548 -0.4071  1.5170 -0.9212
 2283TIP3    H228341   4.629   3.533  15.698 -0.3256 -0.9237 -1.1669
 2284TIP3   OH228342   3.399   5.159  14.116  0.0602 -0.3057  0.0665
 2284TIP3    H128343   3.382   5.252  14.127  1.6069 -0.1865  1.7402
 2284TIP3    H228344   3.314   5.122  14.092 -1.6021  0.9155  3.5752
 2285TIP3   OH228345   0.457   1.634  12.993 -0.2711 -0.0217  0.1794
 2285TIP3    H128346   0.414   1.718  12.974  0.5027  0.4671  0.5380
 2285TIP3    H228347   0.547   1.646  12.961 -0.4774 -1.1380 -0.8433
 2286TIP3   OH228348   2.615   4.726   1.767  0.1844  0.1291  0.2174
 2286TIP3    H128349   2.595   4.799   1.709  2.0325  1.0965  0.7686
 2286TIP3    H228350   2.688   4.681   1.725  1.4802  0.7844  1.7211
 2287TIP3   OH228351   6.527   0.835  12.863  0.6504 -0.6172 -0.0769
 2287TIP3    H128352   6.615   0.820  12.831  0.4355 -0.0145 -0.9874
 2287TIP3    H228353   6.491   0.748  12.878  0.9388 -0.8958 -0.9889
 2288TIP3   OH228354   2.360   1.164   3.302 -0.0022 -0.4709  0.0377
 2288TIP3    H128355   2.303   1.183   3.227  3.1776  1.4747 -2.0351
 2288TIP3    H228356   2.315   1.202   3.377 -2.6493 -1.3235 -1.0539
 2289TIP3   OH228357   6.366   3.921  12.710 -0.0586 -0.2612 -0.5194
 2289TIP3    H128358   6.365   3.845  12.768 -1.9314 -0.8038 -1.2212
 2289TIP3    H228359   6.315   3.988  12.757 -2.4683 -1.0455 -1.9332
 2290TIP3   OH228360   5.205   4.119  13.873 -0.3200  0.2095 -0.2219
 2290TIP3    H128361   5.237   4.187  13.932  0.1913 -0.2103 -0.0121
 2290TIP3    H228362   5.226   4.150  13.785 -1.0786  0.8356 -0.1884
 2291TIP3   OH228363   0.576   1.897  11.477 -0.7395 -0.4916 -0.0259
 2291TIP3    H128364   0.551   1.937  11.394  1.0266 -1.6929 -1.1500
 2291TIP3    H228365   0.669   1.914  11.485 -0.8431 -0.6322  1.5922
 2292TIP3   OH228366   5.057   1.479   4.759  0.3220 -0.0574 -0.1012
 2292TIP3    H128367   5.105   1.406   4.720 -0.2544  0.0388 -1.0097
 2292TIP3    H228368   5.067   1.551   4.696  0.7161  0.5929  0.6898
 2293TIP3   OH228369   0.893   1.241   1.857 -0.1795  0.7892 -0.4736
 2293TIP3    H128370   0.926   1.261   1.770 -1.4383  1.5067 -0.8015
 2293TIP3    H228371   0.836   1.166   1.845  0.8683 -0.0905 -0.0044
 2294TIP3   OH228372   2.215   0.836  13.190 -0.7905 -0.1941  0.1493
 2294TIP3    H128373   2.255   0.768  13.244 -1.2007 -1.0842 -0.6507
 2294TIP3    H228374   2.229   0.917  13.239  0.2798 -0.7587  0.8037
 2295TIP3   OH228375   3.540   0.317  17.134 -0.1706  0.2841  0.1721
 2295TIP3    H128376   3.518   0.338  17.225  0.6405 -0.6821  0.6030
 2295TIP3    H228377   3.529   0.222  17.128  0.1315  0.2960 -0.6427
 2296TIP3   OH228378   3.874   5.370   0.243  0.1366  0.4356 -0.0154
 2296TIP3    H128379   3.887   5.302   0.176  1.1858 -0.0105  0.6252
 2296TIP3    H228380   3.784   5.357   0.273 -0.0552  0.0809 -0.7307
 2297TIP3   OH228381   2.482   1.194   0.519 -0.1557 -0.2770 -0.0914
 2297TIP3    H128382   2.535   1.260   0.474  2.2510 -0.5522  2.2257
 2297TIP3    H228383   2.410   1.244   0.557  0.5479  0.7236 -0.0376
 2298TIP3   OH228384   3.923   4.981  11.686 -0.0894  1.0337  0.2734
 2298TIP3    H128385   4.011   4.987  11.648 -0.4442  2.1127 -0.4234
 2298TIP3    H228386   3.912   5.064  11.734 -0.7728  0.9649  0.2432
 2299TIP3   OH228387   2.873   2.865   2.630 -0.7270  0.2879 -0.4297
 2299TIP3    H128388   2.919   2.872   2.546 -2.5247  1.8934 -1.3226
 2299TIP3    H228389   2.858   2.772   2.642  0.5822 -0.0517 -1.2971
 2300TIP3   OH228390   4.276   4.326  14.877 -0.0596  0.2179 -0.4754
 2300TIP3    H128391   4.273   4.403  14.933 -0.4960  0.9028 -1.4306
 2300TIP3    H228392   4.275   4.252  14.938  2.7962  0.9734  0.5502
 2301TIP3   OH228393   1.260   0.217   1.070 -0.2667 -0.3721  0.0789
 2301TIP3    H128394   1.290   0.188   0.984 -0.7941 -2.1861  0.4872
 2301TIP3    H228395   1.338   0.256   1.111  0.0626  0.1993 -1.0856
 2302TIP3   OH228396   5.625   4.624  12.313 -0.1085  0.0188 -0.1578
 2302TIP3    H128397   5.711   4.605  12.277  0.6537 -0.7298  1.9462
 2302TIP3    H228398   5.620   4.571  12.393 -2.1469  0.7527  0.2440
 2303TIP3   OH228399   0.089   1.716  14.485  0.0999 -0.1417  0.2665
 2303TIP3    H128400   0.169   1.705  14.536  0.9101  1.8529 -0.5144
 2303TIP3    H228401   0.057   1.803  14.510 -0.7306 -0.1103 -0.8977
 2304TIP3   OH228402   0.297   3.884   1.543 -0.2304 -0.1553 -0.4894
 2304TIP3    H128403   0.232   3.946   1.509 -0.7741 -0.4926 -0.0696
 2304TIP3    H228404   0.278   3.878   1.636 -0.1404 -0.9033 -0.5174
 2305TIP3   OH228405   0.823   6.629  14.742 -0.4081  0.0435 -0.0030
 2305TIP3    H128406   0.765   6.553  14.747 -1.3297  0.6600 -1.1205
 2305TIP3    H228407   0.767   6.700  14.711  0.3712  1.2768  1.3260
 2306TIP3   OH228408   1.004   5.912   4.913 -0.6144  0.3605  0.4552
 2306TIP3    H128409   1.077   5.910   4.975  0.0646  1.1452 -0.3098
 2306TIP3    H228410   1.033   5.856   4.840 -0.9971  0.2459  0.3900
 2307TIP3   OH228411   0.881   5.943  11.870 -0.0749  0.2095  0.0990
 2307TIP3    H128412   0.834   5.860  11.870  0.3425 -0.0691  2.4051
 2307TIP3    H228413   0.903   5.958  11.962  1.2711  2.0700 -0.4918
 2308TIP3   OH228414   5.442   0.229   6.255 -0.3426 -0.4434 -0.1411
 2308TIP3    H128415   5.513   0.290   6.275 -0.8568  0.1636 -0.1763
 2308TIP3    H228416   5.386   0.230   6.333  0.8399 -2.5678  0.7947
 2309TIP3   OH228417   3.808   0.638   5.256  0.3675 -0.1193  0.1870
 2309TIP3    H128418   3.884   0.580   5.266 -0.3596 -0.8474  1.5651
 2309TIP3    H228419   3.761   0.602   5.181  0.2171 -0.9862  0.6911
 2310TIP3   OH228420   5.513   3.064   1.350  0.3316 -0.1404  0.4194
 2310TIP3    H128421   5.605   3.045   1.365  0.5651 -0.9568 -1.8412
 2310TIP3    H228422   5.514   3.146   1.300 -0.1206 -0.4424 -0.0974
 2311TIP3   OH228423   1.263   4.700  11.179 -0.7262 -0.1039 -0.4902
 2311TIP3    H128424   1.192   4.681  11.241  0.3045  0.9370  1.0611
 2311TIP3    H228425   1.220   4.744  11.106 -1.9222 -1.0531 -0.3796
 2312TIP3   OH228426   1.437   6.138   0.327  0.0958 -0.5133  0.0297
 2312TIP3    H128427   1.431   6.219   0.276 -1.4472 -1.2182 -0.9358
 2312TIP3    H228428   1.486   6.163   0.405 -0.0228  1.2731 -0.4465
 2313TIP3   OH228429   4.918   6.436   6.616  0.2933 -0.7104  0.0243
 2313TIP3    H128430   4.967   6.384   6.552 -1.3518 -1.7626 -0.4177
 2313TIP3    H228431   4.847   6.378   6.644 -1.8451  1.4166 -0.8135
 2314TIP3   OH228432   1.603   3.570  14.841 -0.4358 -0.1810  0.2194
 2314TIP3    H128433   1.551   3.648  14.864 -0.1656  0.3043 -0.7714
 2314TIP3    H228434   1.669   3.603  14.780 -0.1985 -1.1560 -0.0555
 2315TIP3   OH228435   1.354   4.133  16.613  0.7133 -0.0573  0.6319
 2315TIP3    H128436   1.261   4.117  16.631  0.0597  1.9647 -0.7315
 2315TIP3    H228437   1.385   4.053  16.572 -0.8571 -0.1454 -0.3963
 2316TIP3   OH228438   4.255   3.754  12.471 -0.0322 -0.2963  0.1747
 2316TIP3    H128439   4.283   3.799  12.391  0.9269 -1.3341 -0.0924
 2316TIP3    H228440   4.166   3.725  12.452  0.5237 -1.3512 -0.8900
 2317TIP3   OH228441   4.821   4.071   2.503  0.4876  0.0285  0.6994
 2317TIP3    H128442   4.791   4.154   2.466 -2.1290 -1.1518  0.0645
 2317TIP3    H228443   4.750   4.044   2.561  0.1907 -2.9805 -0.9993
 2318TIP3   OH228444   0.265   2.503  17.241 -0.1004 -0.1281  0.6424
 2318TIP3    H128445   0.227   2.546  17.317 -0.2362  0.1095  0.4423
 2318TIP3    H228446   0.251   2.410  17.256 -0.9987 -0.0343  0.4509
 2319TIP3   OH228447   6.387   5.031  11.550  0.0051  0.0289  0.1184
 2319TIP3    H128448   6.294   5.039  11.573  0.1321 -1.6497  1.3415
 2319TIP3    H228449   6.431   5.014  11.634  1.4628  1.0540 -0.4074
 2320TIP3   OH228450   4.649   0.296   0.922  0.1888 -0.6664 -0.1798
 2320TIP3    H128451   4.644   0.239   0.844 -0.8012 -0.4550 -0.2803
 2320TIP3    H228452   4.720   0.356   0.902  1.5566 -2.1506  0.1198
 2321TIP3   OH228453   2.987   5.311   4.844  0.5061 -0.2610  0.4322
 2321TIP3    H128454   2.922   5.256   4.801  1.7416 -2.7536  1.6714
 2321TIP3    H228455   3.029   5.360   4.773  0.7165 -2.3565 -0.9057
 2322TIP3   OH228456   3.317   5.141   2.940  0.6920  0.3779  0.0965
 2322TIP3    H128457   3.392   5.133   2.880 -0.7602  1.6210 -1.9633
 2322TIP3    H228458   3.249   5.086   2.901  0.7234 -1.3057  2.3260
 2323TIP3   OH228459   2.761   5.797  16.916  0.2158  0.2746  0.2177
 2323TIP3    H128460   2.809   5.719  16.943 -0.8299 -0.1416  0.9110
 2323TIP3    H228461   2.689   5.804  16.978  0.0210  1.5315 -0.1196
 2324TIP3   OH228462   3.326   6.728   2.077  0.3395 -0.6595  0.2766
 2324TIP3    H128463   3.271   6.655   2.049  0.7942 -0.6631 -0.6234
 2324TIP3    H228464   3.268   6.804   2.074  0.3433 -0.6813 -0.5677
 2325TIP3   OH228465   4.949   3.948  13.635 -0.0026  0.6573  0.3467
 2325TIP3    H128466   5.039   3.948  13.667 -0.5232  2.1215  1.8427
 2325TIP3    H228467   4.911   3.866  13.669  0.6843  0.1460 -0.1065
 2326TIP3   OH228468   4.281   1.336   0.952  0.1982 -0.4313  0.5581
 2326TIP3    H128469   4.313   1.260   0.904 -1.5070 -1.8304  1.6095
 2326TIP3    H228470   4.330   1.334   1.035 -1.0137 -1.3107  1.2542
 2327TIP3   OH228471   4.159   3.254  16.877  0.2614 -0.1027 -0.4286
 2327TIP3    H128472   4.098   3.198  16.925  0.1839 -0.8948 -1.4227
 2327TIP3    H228473   4.219   3.288  16.943 -0.5112 -0.3039  0.3738
 2328TIP3   OH228474   0.494   6.319  15.959  0.0711  0.4048 -0.1554
 2328TIP3    H128475   0.552   6.357  16.024 -0.0664 -1.3789  1.0484
 2328TIP3    H228476   0.415   6.294  16.007  0.2283 -1.5405 -0.8322
 2329TIP3   OH228477   0.060   3.180   0.736 -0.3806  0.0799  0.6864
 2329TIP3    H128478   0.095   3.211   0.820 -0.6941  0.8600  0.5353
 2329TIP3    H228479   0.002   3.250   0.706 -3.2043 -1.7978  1.5901
 2330TIP3   OH228480   4.767   4.266  10.888 -0.0797 -0.4428 -0.1075
 2330TIP3    H128481   4.842   4.232  10.937 -0.5391 -0.8484  0.3219
 2330TIP3    H228482   4.796   4.351  10.855  0.6158 -0.6593 -0.0571
 2331TIP3   OH228483   2.549   3.286   0.892 -0.1346  0.0116 -0.2395
 2331TIP3    H128484   2.569   3.358   0.832  0.5132 -1.1271 -1.3875
 2331TIP3    H228485   2.630   3.273   0.942  0.2503 -0.9603 -1.1136
 2332TIP3   OH228486   5.995   0.973   4.170 -0.9850 -0.0014 -0.2684
 2332TIP3    H128487   5.991   0.977   4.075 -0.8279 -0.6974 -0.3037
 2332TIP3    H228488   6.053   0.900   4.189 -2.6403 -1.1809  0.3702
 2333TIP3   OH228489   3.822   0.784  13.408 -0.0443 -0.4638 -0.5177
 2333TIP3    H128490   3.814   0.879  13.420 -1.0332 -0.5746 -0.2416
 2333TIP3    H228491   3.732   0.753  13.400  0.2971 -1.3279 -1.0551
 2334TIP3   OH228492   6.664   6.169   0.736  0.2818 -0.1704  0.3317
 2334TIP3    H128493   6.689   6.174   0.828  1.3199  2.6528 -0.0546
 2334TIP3    H228494   6.571   6.145   0.738  0.0145  0.9306  2.1511
 2335TIP3   OH228495   6.268   6.190   4.356  0.0954 -0.2689  0.0288
 2335TIP3    H128496   6.345   6.161   4.406 -1.9719 -0.9389  2.9468
 2335TIP3    H228497   6.254   6.120   4.292  0.5629 -1.2606  0.9870
 2336TIP3   OH228498   2.038   0.672   2.687 -0.4520  0.1178 -0.0232
 2336TIP3    H128499   2.000   0.587   2.712 -1.4024 -0.2206 -2.4625
 2336TIP3    H228500   1.989   0.736   2.739 -1.0036 -0.6970  0.4858
 2337TIP3   OH228501   5.159   4.794  17.142 -0.2009  0.2308  0.5814
 2337TIP3    H128502   5.189   4.793  17.233 -1.5533 -0.3984  1.0439
 2337TIP3    H228503   5.224   4.743  17.094 -0.0939 -0.4297  1.4191
 2338TIP3   OH228504   5.194   6.748   5.743 -0.2815  0.1329 -0.0388
 2338TIP3    H128505   5.141   6.823   5.718  1.4928  1.6824  0.7034
 2338TIP3    H228506   5.178   6.738   5.837  0.2750  0.2417  0.0696
 2339TIP3   OH228507   4.216   0.320   1.395 -0.1563 -0.5174  0.2924
 2339TIP3    H128508   4.167   0.350   1.471 -0.1363 -0.7205  0.3852
 2339TIP3    H228509   4.176   0.236   1.372 -1.0492  0.1708 -0.7300
 2340TIP3   OH228510   0.725   4.865   2.570 -0.7548  0.3531  0.7532
 2340TIP3    H128511   0.658   4.849   2.504  0.5751  1.3348 -0.8731
 2340TIP3    H228512   0.741   4.959   2.567  0.7384  0.1249  1.0800
 2341TIP3   OH228513   2.427   3.552   5.868  0.1213  0.1541 -0.1229
 2341TIP3    H128514   2.471   3.467   5.876 -0.7020 -0.3207 -0.5471
 2341TIP3    H228515   2.464   3.604   5.940 -0.8851 -1.2511  1.4681
 2342TIP3   OH228516   2.374   5.703  13.907 -0.1615  0.5831  0.4933
 2342TIP3    H128517   2.294   5.709  13.959  0.6957  0.2759  1.8889
 2342TIP3    H228518   2.356   5.634  13.842 -0.8733  0.2097  1.0817
 2343TIP3   OH228519   1.396   2.791   3.439 -0.4073  0.0100 -0.2846
 2343TIP3    H128520   1.325   2.732   3.465 -0.0489 -1.4287 -2.4751
 2343TIP3    H228521   1.467   2.733   3.412  0.1965  1.4254 -1.8552
 2344TIP3   OH228522   3.036   2.441  16.862  0.5769 -0.0815 -0.2319
 2344TIP3    H128523   3.033   2.433  16.766 -3.8906 -0.4936 -0.1840
 2344TIP3    H228524   3.032   2.350  16.894  1.8134  0.0667  0.3839
 2345TIP3   OH228525   3.061   0.229  12.447 -0.3351 -0.1474  0.2177
 2345TIP3    H128526   2.995   0.281  12.403 -0.7127 -0.8058 -0.0060
 2345TIP3    H228527   3.131   0.291  12.467 -0.2196  0.2001 -1.1749
 2346TIP3   OH228528   0.179   3.829  11.621  0.3657 -0.7103 -0.0064
 2346TIP3    H128529   0.170   3.758  11.685 -0.8349 -0.7762 -0.2357
 2346TIP3    H228530   0.116   3.895  11.649  0.8106 -0.1407 -0.3344
 2347TIP3   OH228531   5.532   5.214   2.313  0.2487  0.0334  0.0961
 2347TIP3    H128532   5.577   5.288   2.272  2.5590  0.0283  2.4905
 2347TIP3    H228533   5.480   5.253   2.384  0.5169 -0.5047  0.5952
 2348TIP3   OH228534   3.562   1.699   4.544  0.1213  0.1284  0.1307
 2348TIP3    H128535   3.472   1.726   4.565 -0.2196 -1.3221  0.5876
 2348TIP3    H228536   3.556   1.605   4.532  1.5202  0.0850 -0.2544
 2349TIP3   OH228537   2.166   4.170   5.339 -0.0142  0.2561 -0.2136
 2349TIP3    H128538   2.192   4.091   5.387  0.3445  0.5172  0.0257
 2349TIP3    H228539   2.207   4.162   5.253  0.1346  0.2464 -0.1416
 2350TIP3   OH228540   3.847   0.771   4.691  0.1901  0.8822  0.4201
 2350TIP3    H128541   3.763   0.788   4.648  0.0433  0.1699  0.4213
 2350TIP3    H228542   3.907   0.834   4.651 -0.1164  0.7237 -0.3041
 2351TIP3   OH228543   3.668   4.936  14.977 -0.3574  0.3792 -0.3571
 2351TIP3    H128544   3.576   4.932  14.950 -0.9624 -1.0113  1.8026
 2351TIP3    H228545   3.703   4.849  14.956  0.4685  0.8768 -1.0920
 2352TIP3   OH228546   3.006   5.670   5.689 -0.4584  0.3533 -1.1810
 2352TIP3    H128547   2.962   5.747   5.652 -0.9344  0.1002 -1.1440
 2352TIP3    H228548   3.096   5.699   5.704 -0.3459  0.5630 -2.2269
 2353TIP3   OH228549   1.967   3.088   3.956 -0.3874 -0.7558 -0.0252
 2353TIP3    H128550   2.052   3.079   3.997 -0.0640 -1.2771 -0.7897
 2353TIP3    H228551   1.930   3.168   3.993 -0.1660 -1.2994  1.3729
 2354TIP3   OH228552   4.548   3.148  12.981  0.2238 -0.0185  0.1516
 2354TIP3    H128553   4.570   3.143  12.888  1.9952  1.1197  0.4981
 2354TIP3    H228554   4.628   3.178  13.024 -1.1250  1.3276  1.8099
 2355TIP3   OH228555   6.220   2.191  15.181 -1.0075 -0.4558 -0.0012
 2355TIP3    H128556   6.249   2.181  15.090 -0.9099  2.3140 -0.3411
 2355TIP3    H228557   6.301   2.194  15.232 -1.0381 -1.4179  0.0982
 2356TIP3   OH228558   1.718   0.870   0.630 -0.0925  0.8365 -0.7891
 2356TIP3    H128559   1.654   0.823   0.684  0.8434  0.6164  0.1486
 2356TIP3    H228560   1.734   0.813   0.556  0.6153 -0.0830  0.0633
 2357TIP3   OH228561   2.698   1.312   5.027 -0.8501 -0.1562 -0.2133
 2357TIP3    H128562   2.787   1.327   5.060 -0.6677  1.4493 -1.3945
 2357TIP3    H228563   2.707   1.241   4.963 -0.3637  0.2507 -0.5946
 2358TIP3   OH228564   4.042   2.426  16.840  0.0373 -0.1572 -0.0590
 2358TIP3    H128565   4.095   2.412  16.761  0.8731 -0.7603  0.5975
 2358TIP3    H228566   3.966   2.475  16.809  1.9619  2.5536 -0.6830
 2359TIP3   OH228567   3.899   5.023   3.131  0.1855 -0.5580 -0.3687
 2359TIP3    H128568   3.920   5.104   3.178 -0.9159 -1.5562  1.9216
 2359TIP3    H228569   3.979   4.970   3.137 -0.6500 -1.5809  2.3770
 2360TIP3   OH228570   5.267   5.127  13.891  0.0949 -0.0172  0.3100
 2360TIP3    H128571   5.307   5.199  13.843 -1.1821  1.5827  1.5958
 2360TIP3    H228572   5.245   5.062  13.823 -0.1213  1.4419 -1.0407
 2361TIP3   OH228573   4.550   3.387  15.477  0.5077 -0.1527 -0.4838
 2361TIP3    H128574   4.501   3.313  15.514  0.2501  1.2476  2.0723
 2361TIP3    H228575   4.485   3.438  15.430  0.4248 -0.8129 -1.0906
 2362TIP3   OH228576   5.668   5.819  10.888  0.4726 -0.1699  0.1710
 2362TIP3    H128577   5.613   5.893  10.866 -1.3291 -0.7984  2.3676
 2362TIP3    H228578   5.727   5.852  10.956  0.3842 -0.4650  0.3918
 2363TIP3   OH228579   5.497   2.055   4.682 -0.4015 -0.6412  0.3952
 2363TIP3    H128580   5.465   2.076   4.595 -1.7774 -5.2003 -0.2883
 2363TIP3    H228581   5.446   2.111   4.740 -2.5711 -0.6713 -1.4307
 2364TIP3   OH228582   1.462   4.561  11.291  0.2877 -0.0536  0.2747
 2364TIP3    H128583   1.385   4.596  11.245  1.3481  0.9660 -0.7753
 2364TIP3    H228584   1.512   4.516  11.222  0.4530 -1.0129  1.0178
 2365TIP3   OH228585   2.098   1.292   4.981  0.4030 -0.5014  0.7894
 2365TIP3    H128586   2.027   1.326   5.036  0.1611 -2.4644  1.7325
 2365TIP3    H228587   2.116   1.363   4.919 -2.0373  0.2405  0.8629
 2366TIP3   OH228588   5.117   4.532  11.543 -0.1372 -0.0623  0.3645
 2366TIP3    H128589   5.089   4.608  11.491 -1.9245 -0.3831  0.8011
 2366TIP3    H228590   5.211   4.543  11.554 -0.1495  1.3393 -0.7929
 2367TIP3   OH228591   6.014   2.751  10.881  0.5738 -0.2742  0.1380
 2367TIP3    H128592   5.969   2.698  10.816 -1.5707  2.1338 -0.3958
 2367TIP3    H228593   6.106   2.749  10.855  0.2051 -1.9394 -1.0869
 2368TIP3   OH228594   6.748   3.854   0.286  0.0809 -0.1184  0.0358
 2368TIP3    H128595   6.722   3.889   0.201 -0.3323 -2.8740 -1.0284
 2368TIP3    H228596   6.844   3.852   0.283  0.0187 -1.9735 -1.1335
 2369TIP3   OH228597   3.812   2.870  13.689 -0.0000  0.3148  0.3144
 2369TIP3    H128598   3.787   2.946  13.741 -0.0663  1.0492 -0.7786
 2369TIP3    H228599   3.896   2.842  13.726  0.5576  1.5702  0.0325
 2370TIP3   OH228600   1.795   6.719   6.819  0.0785  0.1605 -0.3565
 2370TIP3    H128601   1.863   6.766   6.869  0.6877  1.9984 -2.8096
 2370TIP3    H228602   1.834   6.634   6.800  0.4701  0.0449  0.8987
 2371TIP3   OH228603   6.456   5.284   4.111 -0.2737 -0.8715 -0.5696
 2371TIP3    H128604   6.486   5.356   4.056  0.0277 -0.3918  0.2109
 2371TIP3    H228605   6.534   5.256   4.159 -0.3795 -1.7528 -0.9114
 2372TIP3   OH228606   3.395   2.842  11.227 -1.0286 -0.3245  0.3454
 2372TIP3    H128607   3.322   2.864  11.169 -1.9500 -1.1546  1.1706
 2372TIP3    H228608   3.447   2.779  11.177 -0.9238  0.1809 -0.1973
 2373TIP3   OH228609   6.029   1.668   3.337  0.1956 -0.0109 -0.1016
 2373TIP3    H128610   6.005   1.585   3.377  1.1749 -0.0035  0.5322
 2373TIP3    H228611   6.025   1.652   3.243  0.6991 -0.8772  0.0211
 2374TIP3   OH228612   3.833   2.508  10.498 -0.6949 -0.6494 -0.0800
 2374TIP3    H128613   3.844   2.483  10.589 -0.5469 -0.9797 -0.1890
 2374TIP3    H228614   3.817   2.426  10.452 -0.8315 -0.4780 -0.3428
 2375TIP3   OH228615   6.052   3.945   1.620 -0.7623 -0.0757  0.2330
 2375TIP3    H128616   5.999   3.918   1.544 -1.7011  0.6304  0.6350
 2375TIP3    H228617   6.078   3.862   1.660 -3.3158 -0.4559  1.2298
 2376TIP3   OH228618   1.780   0.821  17.201  0.2673  0.1751  0.0030
 2376TIP3    H128619   1.875   0.813  17.193  0.6414  0.8952  3.0668
 2376TIP3    H228620   1.765   0.912  17.227 -1.0438 -0.4935  1.7456
 2377TIP3   OH228621   6.102   1.226   4.236  0.2446 -0.2601  0.0309
 2377TIP3    H128622   6.174   1.216   4.299 -0.9901 -2.3231  1.1521
 2377TIP3    H228623   6.068   1.138   4.225 -1.3028  0.5130 -1.4742
 2378TIP3   OH228624   0.371   4.541   2.569  0.1393  0.8296  0.1553
 2378TIP3    H128625   0.329   4.495   2.640  1.1787 -2.2688 -1.1695
 2378TIP3    H228626   0.314   4.616   2.551 -1.0665  0.6303  2.9700
 2379TIP3   OH228627   4.092   2.431   6.170 -0.1506  0.1794 -0.3385
 2379TIP3    H128628   4.076   2.337   6.156  1.3499 -0.0573 -0.5887
 2379TIP3    H228629   4.150   2.456   6.098  0.7703  0.9313  0.6598
 2380TIP3   OH228630   5.775   1.032   0.254  0.3782 -0.0387 -0.0156
 2380TIP3    H128631   5.800   0.969   0.322 -1.6495  0.3497  1.1343
 2380TIP3    H228632   5.856   1.079   0.235  0.7594  0.6724  3.0413
 2381TIP3   OH228633   3.025   6.780  14.617 -0.7178 -0.3151  0.3715
 2381TIP3    H128634   3.020   6.750  14.708 -1.2962  0.3197  0.5526
 2381TIP3    H228635   2.945   6.747  14.577  0.5726 -2.5000 -0.4986
 2382TIP3   OH228636   1.140   4.411   5.596  0.1406  0.5091  0.5125
 2382TIP3    H128637   1.049   4.404   5.627 -0.0781  3.3122  0.6241
 2382TIP3    H228638   1.135   4.391   5.503 -0.3240 -0.8783  0.8167
 2383TIP3   OH228639   3.539   6.298  12.811 -0.6739 -0.2235  0.3784
 2383TIP3    H128640   3.503   6.244  12.881  0.2666  0.3475  1.3284
 2383TIP3    H228641   3.594   6.239  12.760 -1.3811 -0.6460  0.1030
 2384TIP3   OH228642   5.361   3.514  12.077 -0.2485 -0.2808  0.2035
 2384TIP3    H128643   5.306   3.456  12.025  0.3326 -1.1183  0.5221
 2384TIP3    H228644   5.325   3.510  12.165  0.8995 -1.6023  0.6365
 2385TIP3   OH228645   1.350   1.487   1.989  0.1774 -0.2395 -0.4669
 2385TIP3    H128646   1.379   1.498   2.080  0.0876  1.4167 -0.6340
 2385TIP3    H228647   1.428   1.505   1.937 -0.0806  0.0225 -0.7646
 2386TIP3   OH228648   6.147   2.457   4.346  0.7071 -0.1969  0.0255
 2386TIP3    H128649   6.197   2.534   4.318  0.0610  0.4531  0.6386
 2386TIP3    H228650   6.067   2.461   4.294  0.7551 -0.5708 -0.0803
 2387TIP3   OH228651   3.070   6.048  17.211 -1.1277 -0.6237  0.0907
 2387TIP3    H128652   3.164   6.063  17.223 -1.0840  0.1008 -1.1093
 2387TIP3    H228653   3.047   6.099  17.134 -2.5256 -0.7671  0.4006
 2388TIP3   OH228654   4.331   2.856  16.295  0.5458 -0.7227 -0.4455
 2388TIP3    H128655   4.283   2.936  16.316 -0.6761 -1.6072  0.2097
 2388TIP3    H228656   4.316   2.843  16.201  1.6360  0.3771 -0.7905
 2389TIP3   OH228657   4.270   1.256   4.260 -0.2990  0.0122  0.2723
 2389TIP3    H128658   4.217   1.272   4.338 -1.3784  1.6648 -0.7743
 2389TIP3    H228659   4.241   1.322   4.197  0.9178 -0.9645 -1.3528
 2390TIP3   OH228660   5.370   2.198   4.927 -0.4558  1.1182  0.1179
 2390TIP3    H128661   5.459   2.227   4.948  0.1580 -0.4056 -0.2915
 2390TIP3    H228662   5.357   2.121   4.982  0.6121 -2.0494 -3.7564
 2391TIP3   OH228663   4.330   6.332   5.668  0.3826  0.4078  0.1821
 2391TIP3    H128664   4.269   6.314   5.740  0.1684 -1.3458 -0.4158
 2391TIP3    H228665   4.392   6.395   5.705 -0.1341  0.0697  1.6825
 2392TIP3   OH228666   1.364   0.200  15.502 -0.1613 -0.6963  0.1164
 2392TIP3    H128667   1.453   0.203  15.536 -0.7115  0.1206  1.5682
 2392TIP3    H228668   1.311   0.173  15.577 -1.8198  4.1426  0.8926
 2393TIP3   OH228669   4.132   3.136  15.800  0.1795 -0.0613 -0.4697
 2393TIP3    H128670   4.039   3.127  15.780  0.0418  1.4670 -0.6019
 2393TIP3    H228671   4.166   3.192  15.730  1.2199 -0.6482 -0.4510
 2394TIP3   OH228672   2.184   1.055   2.393  0.4894 -0.1819 -0.5721
 2394TIP3    H128673   2.220   1.046   2.481 -0.7866 -1.6150 -0.1681
 2394TIP3    H228674   2.258   1.085   2.340  1.5299 -0.2885  0.7854
 2395TIP3   OH228675   1.672   4.999   3.261 -0.0629  0.2599 -0.4092
 2395TIP3    H128676   1.717   4.915   3.251  0.4115  0.0273  3.1177
 2395TIP3    H228677   1.579   4.978   3.248  0.3984 -0.0415 -3.4657
 2396TIP3   OH228678   4.940   3.017   4.702 -0.2269 -0.0232 -0.4192
 2396TIP3    H128679   4.924   3.111   4.712 -0.8722 -0.2519  0.7103
 2396TIP3    H228680   5.023   3.012   4.654  1.2596  1.1024  1.9658
 2397TIP3   OH228681   1.131   4.622  14.972 -0.5865 -0.0057  0.2466
 2397TIP3    H128682   1.058   4.635  15.033 -0.9631  0.8272 -0.3658
 2397TIP3    H228683   1.185   4.700  14.982  0.5412 -0.8780  1.1098
 2398TIP3   OH228684   5.685   0.311   4.428 -0.0845 -0.2710  0.3621
 2398TIP3    H128685   5.621   0.258   4.475  0.7782 -0.8589  0.8838
 2398TIP3    H228686   5.657   0.307   4.336  1.1389 -3.3822  0.0608
 2399TIP3   OH228687   5.227   4.430  14.420 -0.3480 -0.1726  0.3898
 2399TIP3    H128688   5.276   4.496  14.371 -0.0607  0.4427  1.4929
 2399TIP3    H228689   5.198   4.476  14.499  1.9533 -2.0195  2.3780
 2400TIP3   OH228690   2.105   5.380   6.013  0.2386 -0.7091  0.3784
 2400TIP3    H128691   2.143   5.451   6.063 -0.0097 -0.1048 -0.2790
 2400TIP3    H228692   2.010   5.397   6.015  0.2749 -0.2638 -0.8888
 2401TIP3   OH228693   6.800   1.682  17.198  0.2680  0.4551 -0.2309
 2401TIP3    H128694   6.721   1.679  17.252 -0.5569 -2.9783 -1.4748
 2401TIP3    H228695   6.850   1.755  17.233 -2.6962  1.6968  1.6510
 2402TIP3   OH228696   3.832   6.110  16.236 -0.3465  0.0560  0.8535
 2402TIP3    H128697   3.821   6.015  16.240 -1.4300 -0.0962 -3.4563
 2402TIP3    H228698   3.743   6.144  16.227  0.3044  1.1646 -1.6049
 2403TIP3   OH228699   5.407   6.789   3.351  0.7963 -0.2349  0.0632
 2403TIP3    H128700   5.315   6.771   3.369  0.2218  2.3421 -0.0314
 2403TIP3    H228701   5.438   6.837   3.428  2.6170 -2.6684  0.9251
 2404TIP3   OH228702   5.032   0.194   0.418 -0.1087  0.0633 -0.5641
 2404TIP3    H128703   5.098   0.194   0.487 -0.3565  1.8744 -0.3004
 2404TIP3    H228704   5.011   0.101   0.404  1.2203 -0.4125  0.5508
 2405TIP3   OH228705   1.539   3.920  13.860  0.4419 -0.0815  0.5316
 2405TIP3    H128706   1.551   3.959  13.947 -0.2623  0.9819  0.1609
 2405TIP3    H228707   1.625   3.884  13.838  0.4337 -1.0320  1.9808
 2406TIP3   OH228708   6.722   1.548  13.299 -0.0692 -0.4761  0.2542
 2406TIP3    H128709   6.753   1.525  13.387 -0.8111 -1.1767  0.3399
 2406TIP3    H228710   6.776   1.495  13.240 -0.1038 -0.5956  0.3294
 2407TIP3   OH228711   5.145   4.952   4.292 -0.4886 -0.6429 -0.3478
 2407TIP3    H128712   5.205   4.972   4.364 -0.3603  0.0371 -0.6466
 2407TIP3    H228713   5.202   4.921   4.222 -0.6273 -1.4490 -0.1088
 2408TIP3   OH228714   5.862   3.715  13.941  0.1237  0.2961  0.5193
 2408TIP3    H128715   5.795   3.756  13.886  0.2130  0.7830  0.7753
 2408TIP3    H228716   5.940   3.712  13.885 -0.5387 -1.7840 -0.3726
 2409TIP3   OH228717   5.504   2.896   5.578  0.4303 -0.1774  0.4625
 2409TIP3    H128718   5.454   2.895   5.496  0.9021 -0.6112  0.1827
 2409TIP3    H228719   5.437   2.888   5.646  0.0809 -0.3327  0.1022
 2410TIP3   OH228720   1.360   3.749   4.092 -0.2884  0.4100 -0.3870
 2410TIP3    H128721   1.406   3.800   4.026  0.3609 -0.4001 -0.5678
 2410TIP3    H228722   1.293   3.808   4.126  0.0229  1.1556 -1.0646
 2411TIP3   OH228723   3.949   1.864  16.333 -0.7858  0.0205 -0.3259
 2411TIP3    H128724   3.973   1.954  16.308  1.4040  0.3988  2.7799
 2411TIP3    H228725   4.029   1.813  16.318 -0.0928 -0.1688  3.3337
 2412TIP3   OH228726   3.680   4.372  15.244 -0.1461  0.3276  0.1186
 2412TIP3    H128727   3.703   4.291  15.289 -1.7891 -0.1358  0.1183
 2412TIP3    H228728   3.756   4.390  15.187  0.0964 -1.3445 -0.1030
 2413TIP3   OH228729   2.203   0.009   0.668 -0.3912  0.5802  0.0262
 2413TIP3    H128730   2.247  -0.030   0.593 -1.5544  0.5949 -0.6705
 2413TIP3    H228731   2.243  -0.035   0.744 -0.8187 -1.0869 -0.6867
 2414TIP3   OH228732   5.097   0.631  13.304 -0.1274  0.3734  0.1117
 2414TIP3    H128733   5.173   0.640  13.361 -1.2707 -1.9729  2.1047
 2414TIP3    H228734   5.024   0.670  13.353 -0.7480  0.1412 -0.6058
 2415TIP3   OH228735   1.745   1.263   2.214  0.9699 -0.3536  0.0417
 2415TIP3    H128736   1.800   1.187   2.237 -0.1523 -1.0777  0.3838
 2415TIP3    H228737   1.807   1.327   2.178  1.9931 -1.2775  0.1094
 2416TIP3   OH228738   3.641   1.260   4.941  0.1556  0.3013 -0.1170
 2416TIP3    H128739   3.597   1.186   4.983 -0.5482  0.3950 -0.6884
 2416TIP3    H228740   3.571   1.310   4.900  0.8225  0.2238 -1.3925
 2417TIP3   OH228741   5.737   5.570  12.968  0.7593  0.5000  0.1010
 2417TIP3    H128742   5.825   5.537  12.990  1.4885  0.8839 -2.1176
 2417TIP3    H228743   5.744   5.598  12.876 -1.0874  2.5735  0.5399
 2418TIP3   OH228744   4.786   5.354  17.169 -0.1986  0.0896 -0.3144
 2418TIP3    H128745   4.844   5.373  17.095 -0.1525 -0.9251 -0.5475
 2418TIP3    H228746   4.831   5.392  17.244  0.1222  0.4736 -0.6941
 2419TIP3   OH228747   5.183   6.280   3.811 -0.0066 -0.1349  0.6480
 2419TIP3    H128748   5.171   6.317   3.899  0.7236 -0.5683  0.9387
 2419TIP3    H228749   5.178   6.185   3.825  1.0013 -0.2399  0.3698
 2420TIP3   OH228750   4.934   1.744   2.089 -0.1726 -0.3602  0.1662
 2420TIP3    H128751   4.997   1.717   2.156  0.1665  1.6054  0.6582
 2420TIP3    H228752   4.988   1.759   2.011 -0.0931  0.7036  0.4152
 2421TIP3   OH228753   2.145   3.746   3.014  0.3473  0.1682  0.6135
 2421TIP3    H128754   2.054   3.733   3.042  0.4288  0.4111  1.0023
 2421TIP3    H228755   2.160   3.679   2.948 -0.7731  1.4818 -0.9885
 2422TIP3   OH228756   3.041   2.890   2.375 -0.6006  0.1196  0.4576
 2422TIP3    H128757   3.115   2.922   2.427 -0.9848 -1.5768  2.0924
 2422TIP3    H228758   3.060   2.921   2.286  0.6462  2.0985  1.3600
 2423TIP3   OH228759   5.951   2.690  12.584  0.0035  0.1349  0.6058
 2423TIP3    H128760   5.991   2.619  12.634 -0.0111  0.5280  1.1768
 2423TIP3    H228761   5.859   2.690  12.611  0.0206  0.4199  0.6750
 2424TIP3   OH228762   4.267   2.735  15.257  0.4366  0.0647 -0.1612
 2424TIP3    H128763   4.309   2.682  15.325 -0.6613 -1.1486 -0.4256
 2424TIP3    H228764   4.181   2.757  15.292  0.0481 -0.1618 -0.9594
 2425TIP3   OH228765   6.414   0.167  14.846 -0.0370 -0.0889  0.4356
 2425TIP3    H128766   6.440   0.133  14.932 -0.1098 -0.4188  0.3259
 2425TIP3    H228767   6.380   0.254  14.864 -1.1652 -0.6127  0.8928
 2426TIP3   OH228768   1.347   2.455   0.264 -0.2216 -0.5209  0.0925
 2426TIP3    H128769   1.361   2.416   0.350  1.1358 -1.0219 -0.3477
 2426TIP3    H228770   1.252   2.463   0.257 -0.3111  0.0607  1.8645
 2427TIP3   OH228771   2.672   5.580  15.195  0.2446 -0.2475 -0.3839
 2427TIP3    H128772   2.656   5.486  15.188  1.9734 -0.5085 -1.0264
 2427TIP3    H228773   2.737   5.588  15.265 -0.0393  0.4814 -0.1989
 2428TIP3   OH228774   0.869   5.894   1.465  0.3430  0.1690  0.3479
 2428TIP3    H128775   0.919   5.966   1.504  3.6957 -2.2334  0.6009
 2428TIP3    H228776   0.854   5.833   1.537  2.1910 -1.8922 -0.9508
 2429TIP3   OH228777   6.708   3.516   3.256  0.3104  0.3521  0.0841
 2429TIP3    H128778   6.680   3.501   3.166 -0.4808  0.1164  0.3703
 2429TIP3    H228779   6.743   3.431   3.285  0.7949  0.4935 -0.0824
 2430TIP3   OH228780   3.987   4.511  11.783 -0.7158 -0.1173  0.0598
 2430TIP3    H128781   4.028   4.584  11.738  0.1788 -1.4119 -1.2830
 2430TIP3    H228782   3.913   4.550  11.831  0.9067  1.9250  0.9603
 2431TIP3   OH228783   2.707   2.378  14.604  0.3817 -0.1804  0.0115
 2431TIP3    H128784   2.618   2.403  14.580  0.3291  0.2341  0.6187
 2431TIP3    H228785   2.714   2.286  14.579 -0.8110 -0.7305  1.6171
 2432TIP3   OH228786   4.222   6.689  11.780  0.2957 -0.2325 -0.6781
 2432TIP3    H128787   4.310   6.685  11.743  0.1621 -0.3486 -0.9865
 2432TIP3    H228788   4.232   6.738  11.862  0.9659 -1.8467  0.2338
 2433TIP3   OH228789   4.660   3.309  11.864 -0.3165 -0.8367 -0.1483
 2433TIP3    H128790   4.672   3.325  11.958  0.1605  0.9543 -0.5021
 2433TIP3    H228791   4.638   3.216  11.858 -0.3089 -0.9715  1.7343
 2434TIP3   OH228792   5.444   1.637   5.782 -0.7461  0.9523  0.0471
 2434TIP3    H128793   5.408   1.620   5.695 -0.5911  1.8154 -0.1919
 2434TIP3    H228794   5.521   1.580   5.788 -1.3692  0.0981  0.0382
 2435TIP3   OH228795   0.466   1.225   0.573 -0.3591  0.0625  0.4622
 2435TIP3    H128796   0.400   1.285   0.539  0.0164 -0.1890 -0.7461
 2435TIP3    H228797   0.416   1.158   0.620 -0.7665  1.4537  2.0679
 2436TIP3   OH228798   6.430   3.072  15.016 -0.4368  0.0419  0.3143
 2436TIP3    H128799   6.498   3.006  15.032  0.9390  0.2706 -4.0539
 2436TIP3    H228800   6.459   3.149  15.066  0.1239 -1.3119  2.1054
 2437TIP3   OH228801   1.841   1.482   3.384  0.2161  0.5557  0.2730
 2437TIP3    H128802   1.848   1.479   3.289  1.0573  0.5787  0.3314
 2437TIP3    H228803   1.833   1.575   3.406 -3.2833  0.3842  0.0133
 2438TIP3   OH228804   2.042   6.196  13.232 -0.1515  0.5472  0.4800
 2438TIP3    H128805   1.991   6.171  13.155 -0.7919 -0.1833  1.1411
 2438TIP3    H228806   2.129   6.216  13.197 -0.0022 -1.2878 -0.2458
 2439TIP3   OH228807   1.788   5.547   2.790 -0.2763 -0.0158 -0.1578
 2439TIP3    H128808   1.710   5.575   2.837  0.1317  1.0998 -0.1434
 2439TIP3    H228809   1.816   5.467   2.835 -0.4274  0.5232  0.8994
 2440TIP3   OH228810   1.587   3.314   4.151 -0.3064  0.0636 -0.5006
 2440TIP3    H128811   1.593   3.387   4.090  1.0528  0.0942 -0.3564
 2440TIP3    H228812   1.495   3.312   4.178 -0.3882  1.6268 -0.6064
 2441TIP3   OH228813   0.383   2.622   3.842 -0.1896 -0.1944  0.3713
 2441TIP3    H128814   0.363   2.704   3.887 -1.9340  0.4323 -1.4463
 2441TIP3    H228815   0.462   2.641   3.792  1.2758 -0.6407  2.4456
 2442TIP3   OH228816   4.368   2.396  14.358 -0.3970  0.1362  0.6297
 2442TIP3    H128817   4.431   2.466  14.379 -0.0774 -0.2843  1.0794
 2442TIP3    H228818   4.366   2.342  14.436 -0.6813 -0.3354  0.2958
 2443TIP3   OH228819   0.304   3.755   3.637 -0.2729  0.1512 -0.4258
 2443TIP3    H128820   0.325   3.848   3.627 -1.1444  0.5182  0.9332
 2443TIP3    H228821   0.216   3.754   3.675  0.7618 -1.1564  2.0871
 2444TIP3   OH228822   6.012   3.999  11.872  0.8780 -0.0239  0.7608
 2444TIP3    H128823   5.918   4.007  11.888  0.4456  1.2608 -2.0898
 2444TIP3    H228824   6.051   4.076  11.914  0.3512  0.7228 -0.1030
 2445TIP3   OH228825   1.051   0.715   6.562  0.2647 -0.1671  0.5790
 2445TIP3    H128826   1.059   0.761   6.478  0.9959 -0.8305  0.2751
 2445TIP3    H228827   1.016   0.629   6.539  1.1995 -0.6290  0.8591
 2446TIP3   OH228828   6.216   3.051  16.859 -0.2740  0.2891  0.4007
 2446TIP3    H128829   6.206   2.960  16.831  1.6624  0.1546  0.0878
 2446TIP3    H228830   6.149   3.099  16.810 -3.0103 -1.2997  2.4163
 2447TIP3   OH228831   4.147   5.295   2.154  0.5040  0.0749  0.3830
 2447TIP3    H128832   4.120   5.386   2.163 -0.6510 -0.3487  1.4248
 2447TIP3    H228833   4.239   5.299   2.127 -0.3589  1.5511 -2.5438
 2448TIP3   OH228834   6.111   6.347   2.472 -0.0473 -0.0797  0.2924
 2448TIP3    H128835   6.036   6.339   2.412 -0.9995  2.8666  1.0053
 2448TIP3    H228836   6.078   6.316   2.556 -0.3783  0.8974  0.5278
 2449TIP3   OH228837   1.298   5.140  13.199 -0.0633 -0.2329  1.0458
 2449TIP3    H128838   1.321   5.160  13.108 -2.3701  1.5438  0.8219
 2449TIP3    H228839   1.351   5.063  13.220 -0.2039 -1.2871 -2.1247
 2450TIP3   OH228840   3.353   5.737   5.861 -0.2098 -0.1613  0.4481
 2450TIP3    H128841   3.335   5.644   5.846  0.3628 -0.0559 -0.9173
 2450TIP3    H228842   3.282   5.766   5.918 -1.0675 -1.1497 -0.0991
 2451TIP3   OH228843   2.368   6.037  16.854  0.6295 -0.0704  0.0855
 2451TIP3    H128844   2.274   6.019  16.856  0.4723  0.8255  1.1463
 2451TIP3    H228845   2.390   6.059  16.944  1.4558  1.7627 -0.5464
 2452TIP3   OH228846   6.127   3.033   3.789  0.4299  0.5039 -0.1829
 2452TIP3    H128847   6.128   3.093   3.715  2.2220  0.0020 -0.5830
 2452TIP3    H228848   6.143   3.088   3.865 -0.3728  0.8700 -0.2717
 2453TIP3   OH228849   6.631   4.168   4.383  0.1748 -0.3472  0.1340
 2453TIP3    H128850   6.637   4.240   4.445  0.3578  1.2820 -1.7427
 2453TIP3    H228851   6.719   4.130   4.381  0.1494 -0.4498  0.9099
 2454TIP3   OH228852   1.671   1.399   2.643 -0.5725 -0.5308 -0.0435
 2454TIP3    H128853   1.742   1.424   2.701 -0.0265  1.3583 -1.4695
 2454TIP3    H228854   1.643   1.313   2.674  1.3365 -0.6335  1.4490
 2455TIP3   OH228855   3.927   5.038  14.289  0.1428 -0.1702  0.2675
 2455TIP3    H128856   3.932   4.978  14.215  2.0172 -0.3613  0.5299
 2455TIP3    H228857   3.959   5.122  14.255  0.5549 -0.1340  0.7363
 2456TIP3   OH228858   1.827   3.652   1.480  0.0227 -0.2723  0.0244
 2456TIP3    H128859   1.920   3.662   1.459  0.2642 -1.5073  0.4928
 2456TIP3    H228860   1.782   3.653   1.395  0.4845 -0.0001 -0.2167
 2457TIP3   OH228861   1.963   5.830  12.337 -0.0317  0.2715 -0.4908
 2457TIP3    H128862   1.936   5.743  12.308  0.3229 -0.0080  0.0107
 2457TIP3    H228863   1.893   5.858  12.396  0.4788 -0.2126  0.3544
 2458TIP3   OH228864   6.725   6.382  11.050 -0.4690  0.4471  0.0419
 2458TIP3    H128865   6.751   6.333  10.972 -1.4196 -0.2853  0.1677
 2458TIP3    H228866   6.803   6.430  11.076  1.0531 -2.3985  0.9574
 2459TIP3   OH228867   3.427   2.980   5.784  0.3715 -0.5609  0.2229
 2459TIP3    H128868   3.359   2.987   5.717  1.4733 -1.9090 -1.0843
 2459TIP3    H228869   3.398   2.908   5.840  0.3027 -0.5818  0.1609
 2460TIP3   OH228870   2.257   0.762   2.944  0.3869  0.1981 -0.0804
 2460TIP3    H128871   2.259   0.667   2.932  0.8842 -0.0299  1.6103
 2460TIP3    H228872   2.345   0.784   2.975 -0.5613  0.7656  2.4037
 2461TIP3   OH228873   0.899   4.536   0.017 -0.5120 -0.2816 -0.0320
 2461TIP3    H128874   0.914   4.456  -0.034 -0.5307 -0.2550 -0.0795
 2461TIP3    H228875   0.845   4.591  -0.039 -0.7669 -0.3673  0.1273
 2462TIP3   OH228876   5.262   4.829   1.964 -0.0201 -0.0439  0.1522
 2462TIP3    H128877   5.177   4.870   1.946  0.2095  1.5602  2.4644
 2462TIP3    H228878   5.325   4.901   1.958  0.8174 -0.6786  1.1366
 2463TIP3   OH228879   3.643   5.260  10.974  0.1834 -0.0265 -0.3234
 2463TIP3    H128880   3.735   5.245  10.955  0.8755  0.3745  2.4724
 2463TIP3    H228881   3.621   5.341  10.928  1.2304 -0.1349 -1.0080
 2464TIP3   OH228882   5.012   0.878   0.329  0.0338 -0.5756  0.3209
 2464TIP3    H128883   5.005   0.830   0.411 -2.2917 -2.4813 -0.9418
 2464TIP3    H228884   4.934   0.935   0.328  2.2492  2.6376  1.3572
 2465TIP3   OH228885   5.191   3.519   6.345 -0.0952  0.0053 -0.3743
 2465TIP3    H128886   5.201   3.495   6.437 -0.9681 -1.6751 -0.6951
 2465TIP3    H228887   5.186   3.435   6.299  1.3159  0.8228 -2.0730
 2466TIP3   OH228888   0.509   1.982   1.531  0.0889  0.0456 -0.0637
 2466TIP3    H128889   0.482   1.894   1.506 -0.8819  0.8008 -1.7044
 2466TIP3    H228890   0.585   2.001   1.475 -2.0017  1.6848 -2.4301
 2467TIP3   OH228891   1.573   6.431  12.096 -0.9317 -0.6720  0.7059
 2467TIP3    H128892   1.544   6.471  12.013  2.7468 -2.2565 -1.4397
 2467TIP3    H228893   1.619   6.502  12.141  0.3752 -0.8368 -0.3569
 2468TIP3   OH228894   0.197   1.998   3.630 -0.7267 -0.2278  0.6701
 2468TIP3    H128895   0.162   1.909   3.638  0.5646 -1.1986 -3.2281
 2468TIP3    H228896   0.283   1.994   3.671 -0.6672 -0.7857  0.4911
 2469TIP3   OH228897   2.098   3.364   0.028  0.2247  0.1188  0.1265
 2469TIP3    H128898   2.185   3.327   0.008 -0.1992  0.0823 -1.7159
 2469TIP3    H228899   2.052   3.293   0.072  1.1305  0.1573  1.1889
 2470TIP3   OH228900   2.108   3.776  17.076 -0.4986  0.4274 -0.0021
 2470TIP3    H128901   2.152   3.731  17.148 -1.8028  0.3217  0.7383
 2470TIP3    H228902   2.075   3.857  17.115  1.5898  1.9501 -1.2604
 2471TIP3   OH228903   3.855   6.646  15.616 -0.1304  0.3857 -0.1120
 2471TIP3    H128904   3.818   6.564  15.647 -0.6541  1.0942  1.1405
 2471TIP3    H228905   3.834   6.647  15.522 -1.6473 -0.0818  0.2137
 2472TIP3   OH228906   6.241   1.485   3.904 -0.2889  0.4028  0.2651
 2472TIP3    H128907   6.163   1.532   3.874  0.3725  1.3871  0.0417
 2472TIP3    H228908   6.270   1.534   3.981  1.5840  1.6171 -1.1608
 2473TIP3   OH228909   4.851   4.548  13.458 -0.3754 -0.3981  0.2343
 2473TIP3    H128910   4.800   4.521  13.535 -0.8861  0.2827  0.1438
 2473TIP3    H228911   4.785   4.584  13.398  0.1668  0.1278 -0.0444
 2474TIP3   OH228912   5.125   6.312  14.100  0.0777  0.1228  0.4949
 2474TIP3    H128913   5.110   6.246  14.169 -2.6615  0.4142  0.2267
 2474TIP3    H228914   5.105   6.266  14.018  0.2485  0.6840  0.1334
 2475TIP3   OH228915   3.661   3.795   4.726  0.2206 -0.1502 -0.6209
 2475TIP3    H128916   3.739   3.826   4.773  0.3104 -1.6140  0.2462
 2475TIP3    H228917   3.695   3.766   4.641  0.4143  0.4310 -0.7443
 2476TIP3   OH228918   0.017   3.109  16.706  0.8678 -0.2602 -0.5056
 2476TIP3    H128919   0.025   3.187  16.760 -0.4464 -0.8313  0.5451
 2476TIP3    H228920  -0.072   3.077  16.723  0.2698 -0.2274 -3.2981
 2477TIP3   OH228921   5.610   0.142   1.043 -0.1991 -0.1669 -0.1338
 2477TIP3    H128922   5.653   0.123   1.127 -0.7631 -0.0281  0.1844
 2477TIP3    H228923   5.619   0.061   0.993  1.2560  0.1580 -0.4169
 2478TIP3   OH228924   5.744   0.872   1.236 -0.5180 -0.4745 -0.6434
 2478TIP3    H128925   5.741   0.790   1.284  1.2713 -0.1693  0.0481
 2478TIP3    H228926   5.677   0.927   1.276  0.3175 -0.5608  0.8822
 2479TIP3   OH228927   5.376   4.407   4.912 -0.2892  0.6536 -0.0536
 2479TIP3    H128928   5.423   4.433   4.833  1.0932 -0.7413  0.2666
 2479TIP3    H228929   5.416   4.459   4.981  1.2238 -0.8922  0.2997
 2480TIP3   OH228930   2.916   3.070   3.498 -0.1701 -0.0026  0.2142
 2480TIP3    H128931   2.969   2.993   3.478  2.3894  1.5732  0.6149
 2480TIP3    H228932   2.877   3.050   3.583 -0.8436 -1.4975 -0.4301
 2481TIP3   OH228933   0.371   1.156   6.750 -0.0924 -0.0722 -0.0207
 2481TIP3    H128934   0.374   1.208   6.830 -0.4089 -1.3375  0.8320
 2481TIP3    H228935   0.279   1.157   6.724 -0.3681 -1.4484  0.8489
 2482TIP3   OH228936   2.828   1.541   0.496 -0.2266  0.0269  0.1533
 2482TIP3    H128937   2.771   1.469   0.468  1.0375 -1.0826  0.4164
 2482TIP3    H228938   2.858   1.516   0.582 -0.9952  1.6184  0.9170
 2483TIP3   OH228939   5.415   0.317   3.583 -0.1786  0.4118  0.4332
 2483TIP3    H128940   5.382   0.355   3.502 -2.4888 -1.6412  0.3593
 2483TIP3    H228941   5.360   0.355   3.652  0.8898  1.1158  0.9122
 2484TIP3   OH228942   0.956   0.020  13.428  0.6645 -0.1474 -0.4320
 2484TIP3    H128943   1.031   0.049  13.479  1.2885 -0.3516 -1.2142
 2484TIP3    H228944   0.994  -0.037  13.361  0.1593  2.1100 -2.6946
 2485TIP3   OH228945   5.166   2.149  13.590  0.1409 -0.1236  0.2643
 2485TIP3    H128946   5.213   2.204  13.528  1.2044 -1.2921  0.0184
 2485TIP3    H228947   5.180   2.060  13.559 -1.3231 -0.5671  0.8191
 2486TIP3   OH228948   4.099   4.103  11.193 -0.1752 -0.1714  0.7401
 2486TIP3    H128949   4.068   4.013  11.191 -3.6907  1.0194 -1.2341
 2486TIP3    H228950   4.069   4.137  11.278  0.7693 -0.6578  1.2888
 2487TIP3   OH228951   2.604   2.628  15.107 -0.1470 -0.3196  0.3183
 2487TIP3    H128952   2.604   2.535  15.086 -0.3457 -0.2487 -0.0105
 2487TIP3    H228953   2.695   2.655  15.098 -0.4334  0.0038 -1.8156
 2488TIP3   OH228954   2.019   5.037   4.882  0.2964  0.3643 -0.4606
 2488TIP3    H128955   2.067   5.056   4.801  0.8013  0.4103 -0.1507
 2488TIP3    H228956   1.948   4.979   4.854 -0.0777  1.1084 -1.0875
 2489TIP3   OH228957   0.871   2.590   2.903 -0.2776 -0.7747  0.1298
 2489TIP3    H128958   0.852   2.551   2.817  1.5257 -1.1995 -0.0837
 2489TIP3    H228959   0.952   2.549   2.931  1.5025  2.5333  0.0551
 2490TIP3   OH228960   2.014   3.995  12.457  0.6493  0.0454 -0.1751
 2490TIP3    H128961   2.036   3.925  12.396  2.1231  0.2679  0.0923
 2490TIP3    H228962   1.987   4.068  12.400  2.4122  0.3929 -0.6022
 2491TIP3   OH228963   1.790   4.528  17.149 -0.3646  0.9074  0.6616
 2491TIP3    H128964   1.763   4.501  17.061  0.8273 -2.5858  1.2632
 2491TIP3    H228965   1.886   4.532  17.145 -0.2596  0.0523  1.9461
 2492TIP3   OH228966   0.157   3.684  13.394 -0.8234  0.1880 -0.5827
 2492TIP3    H128967   0.190   3.604  13.434 -1.0885  0.7010  0.7138
 2492TIP3    H228968   0.220   3.704  13.324 -0.1149 -0.5174 -0.1588
 2493TIP3   OH228969   1.006   1.976   4.308 -0.2318 -0.7761 -0.0112
 2493TIP3    H128970   0.999   1.964   4.403 -1.0326 -0.8168 -0.0737
 2493TIP3    H228971   0.938   2.041   4.287 -0.8994 -1.6997 -0.7376
 2494TIP3   OH228972   3.637   4.991  16.759  0.4232 -0.4045 -0.2697
 2494TIP3    H128973   3.686   4.936  16.698  0.7216 -0.6442  0.1803
 2494TIP3    H228974   3.683   5.074  16.760  0.8686 -0.6500  0.2006
 2495TIP3   OH228975   4.865   5.539   0.519  0.0858 -0.1514 -0.2373
 2495TIP3    H128976   4.912   5.559   0.600  0.0446  0.4290 -0.3536
 2495TIP3    H228977   4.773   5.557   0.540  0.2431  1.4405 -0.8514
 2496TIP3   OH228978   2.323   1.941   0.861 -0.2353 -0.5411 -0.1021
 2496TIP3    H128979   2.376   1.951   0.940 -0.9585 -2.1237  0.5984
 2496TIP3    H228980   2.371   1.879   0.807 -0.3999 -0.4703 -0.3326
 2497TIP3   OH228981   3.839   2.947  11.671 -0.3476  0.2453 -0.6234
 2497TIP3    H128982   3.757   2.958  11.622 -0.1443  1.5449 -0.6986
 2497TIP3    H228983   3.812   2.908  11.755 -0.7782 -1.3282 -1.4742
 2498TIP3   OH228984   0.528   0.569   4.147  0.2612  0.6626 -0.2031
 2498TIP3    H128985   0.537   0.555   4.242  0.6345 -1.2190 -0.4868
 2498TIP3    H228986   0.521   0.664   4.137  1.0030  0.9391  1.6538
 2499TIP3   OH228987   3.071   0.119   1.280  0.6609  0.3980  0.2863
 2499TIP3    H128988   3.165   0.134   1.268  0.4160  0.7376 -1.3894
 2499TIP3    H228989   3.066   0.030   1.317  1.7352  1.3934  2.9342
 2500TIP3   OH228990   3.333   1.171  16.366  0.9879  0.0250  0.3064
 2500TIP3    H128991   3.404   1.139  16.422  1.6518  2.4258  0.9134
 2500TIP3    H228992   3.377   1.205  16.288  0.4900  1.1032  0.4798
 2501TIP3   OH228993   1.143   5.051  14.293 -1.1553 -0.1838 -0.3610
 2501TIP3    H128994   1.219   5.031  14.349 -2.1651  1.4673  1.6375
 2501TIP3    H228995   1.128   4.970  14.245  1.2481 -0.8726 -0.0461
 2502TIP3   OH228996   1.553   6.456  13.294 -0.3525 -0.9389  0.7306
 2502TIP3    H128997   1.632   6.494  13.332 -0.0545 -0.9468  0.1324
 2502TIP3    H228998   1.561   6.362  13.310  1.0889 -1.2616 -1.7017
 2503TIP3   OH228999   4.011   3.447   2.044 -0.3685 -0.7524  0.1154
 2503TIP3    H129000   4.036   3.359   2.072 -3.0520 -1.9200 -0.9144
 2503TIP3    H229001   3.920   3.437   2.015 -0.1870  2.0265 -1.5422
 2504TIP3   OH229002   5.180   0.869  10.860  0.1297  0.3931 -0.1481
 2504TIP3    H129003   5.097   0.825  10.842  0.2488  0.8476 -1.8442
 2504TIP3    H229004   5.156   0.960  10.873  0.3541  0.5227 -0.6303
 2505TIP3   OH229005   3.084   5.692   3.171  0.2928 -0.4013 -0.3676
 2505TIP3    H129006   3.024   5.647   3.112 -0.0537  1.7899 -1.7076
 2505TIP3    H229007   3.079   5.642   3.253 -2.0068 -1.2757 -1.0138
 2506TIP3   OH229008   4.225   6.055   5.779  0.1478  0.0094  0.3116
 2506TIP3    H129009   4.283   5.982   5.803 -1.7776 -1.5249  0.4512
 2506TIP3    H229010   4.197   6.035   5.690 -0.0738  0.7980  0.2002
 2507TIP3   OH229011   3.779   3.607   0.715  0.3077  0.1957  0.0477
 2507TIP3    H129012   3.758   3.686   0.665  0.1876  0.9322  1.2497
 2507TIP3    H229013   3.826   3.639   0.791 -1.9523 -0.6270  1.8453
 2508TIP3   OH229014   1.364   4.450  16.467  0.0138  0.4298 -0.3484
 2508TIP3    H129015   1.273   4.425  16.483 -0.3203  2.3122  0.8782
 2508TIP3    H229016   1.359   4.524  16.406  0.7464  0.2178 -0.6752
 2509TIP3   OH229017   6.449   1.460  10.829 -0.0181 -0.1101 -0.1049
 2509TIP3    H129018   6.413   1.453  10.741 -0.2819  0.8145 -0.0676
 2509TIP3    H229019   6.483   1.549  10.835 -1.2903  0.2957  1.2205
 2510TIP3   OH229020   0.168   0.271   2.637  0.5704  0.1990  0.2176
 2510TIP3    H129021   0.218   0.189   2.640  0.8144  0.3830  1.2690
 2510TIP3    H229022   0.222   0.335   2.683  0.0783  0.7898 -0.0130
 2511TIP3   OH229023   6.217   0.699  12.320  0.6678  0.2324  0.0433
 2511TIP3    H129024   6.141   0.724  12.373  0.6520 -1.6079  0.9505
 2511TIP3    H229025   6.281   0.667  12.384  1.2804 -0.4795 -0.9084
 2512TIP3   OH229026   5.075   2.960  16.756 -0.1170  0.2152 -0.0088
 2512TIP3    H129027   5.022   2.951  16.677 -0.2256 -0.7747  0.1794
 2512TIP3    H229028   5.082   2.872  16.792 -0.6978  0.7618  1.5025
 2513TIP3   OH229029   6.608   1.430   2.562 -0.2173 -0.0709 -0.2562
 2513TIP3    H129030   6.667   1.495   2.599  0.9447 -1.4101  0.2735
 2513TIP3    H229031   6.665   1.361   2.528 -1.4813 -2.1429  1.6730
 2514TIP3   OH229032   1.308   1.035  15.214  0.3021 -0.3991  0.4458
 2514TIP3    H129033   1.276   0.950  15.183  0.8083 -0.5365  0.2917
 2514TIP3    H229034   1.237   1.069  15.268 -0.4468 -0.3212 -0.5741
 2515TIP3   OH229035   4.158   1.600   1.265  0.2852 -0.2445  0.1168
 2515TIP3    H129036   4.169   1.631   1.355  2.0344  1.8887 -0.7781
 2515TIP3    H229037   4.245   1.570   1.239  0.0488  0.1753 -1.2182
 2516TIP3   OH229038   1.495   1.280  14.857  0.5900  0.7472  0.4124
 2516TIP3    H129039   1.438   1.275  14.780  3.2780  4.2285 -1.9615
 2516TIP3    H229040   1.435   1.288  14.931 -2.0481  0.5811 -1.6322
 2517TIP3   OH229041   5.982   6.499  14.828  0.7139  0.2951 -0.0915
 2517TIP3    H129042   6.011   6.431  14.889 -3.1437 -0.7738  0.6888
 2517TIP3    H229043   5.910   6.459  14.781  0.0222  3.0372 -1.4206
 2518TIP3   OH229044   5.117   4.591   0.744 -0.2398  0.0542  0.0760
 2518TIP3    H129045   5.094   4.514   0.692 -0.5271 -0.1078  0.4359
 2518TIP3    H229046   5.055   4.658   0.716  0.0884  0.1870 -0.3235
 2519TIP3   OH229047   1.315   3.970  11.114 -0.2798 -0.3951 -0.0484
 2519TIP3    H129048   1.332   4.023  11.036  0.3341  1.6063  1.4014
 2519TIP3    H229049   1.396   3.923  11.129  0.5785  1.3509  0.9602
 2520TIP3   OH229050   2.440   6.739  13.545 -0.4045 -0.0736 -0.0392
 2520TIP3    H129051   2.444   6.659  13.597  0.6393 -0.0593 -0.0721
 2520TIP3    H229052   2.347   6.760  13.538 -0.5551 -0.1176  1.7477
 2521TIP3   OH229053   3.305   0.747  15.613 -0.0875 -0.0457  0.0960
 2521TIP3    H129054   3.210   0.734  15.618  0.0670 -0.9208  0.7554
 2521TIP3    H229055   3.336   0.673  15.560  0.3145 -0.1542  0.4868
 2522TIP3   OH229056   3.911   6.102   5.127  0.0963 -0.0470  0.1847
 2522TIP3    H129057   3.937   6.023   5.175 -0.1637 -0.1488  0.1589
 2522TIP3    H229058   3.990   6.128   5.080  0.4240  0.1775  0.8410
 2523TIP3   OH229059   5.967   5.044   4.740 -0.4059  0.4987 -0.6496
 2523TIP3    H129060   5.912   5.037   4.819  0.8613  0.8089  0.2816
 2523TIP3    H229061   5.999   5.134   4.741 -0.1481  0.4161 -1.3768
 2524TIP3   OH229062   1.451   3.535   3.486 -0.3714  0.1906  0.1233
 2524TIP3    H129063   1.514   3.522   3.415 -0.7899  3.5068 -0.9489
 2524TIP3    H229064   1.382   3.472   3.469  0.1097  0.1505 -1.7631
 2525TIP3   OH229065   5.513   2.303  13.214  0.4104  0.1877 -0.5183
 2525TIP3    H129066   5.604   2.316  13.191  0.4111  1.9582  0.3984
 2525TIP3    H229067   5.481   2.390  13.239 -0.8607 -0.8082  1.4923
 2526TIP3   OH229068   0.836   5.223   5.230  0.0998  0.4087  0.0131
 2526TIP3    H129069   0.776   5.148   5.233  1.0389 -0.2966  3.2309
 2526TIP3    H229070   0.803   5.282   5.298  1.6977  1.0744  0.2230
 2527TIP3   OH229071   4.247   4.956  13.082 -0.1718 -0.2817  0.0663
 2527TIP3    H129072   4.314   4.894  13.054 -0.5372 -0.3984 -0.5559
 2527TIP3    H229073   4.261   4.966  13.176  1.5697  0.7075 -0.2809
 2528TIP3   OH229074   0.472   5.643   0.177 -0.9773  0.3933 -0.5012
 2528TIP3    H129075   0.385   5.636   0.137 -0.9145  0.2284 -0.6086
 2528TIP3    H229076   0.457   5.691   0.258 -1.3086 -0.4465 -0.0596
 2529TIP3   OH229077   1.358   6.627   0.075  0.1210  0.3366  0.7450
 2529TIP3    H129078   1.376   6.571  -0.001  0.8949  1.4820  0.0606
 2529TIP3    H229079   1.434   6.686   0.079 -0.2442  0.7273  2.0038
 2530TIP3   OH229080   2.443   6.818  16.324 -0.2841 -0.3781 -0.2736
 2530TIP3    H129081   2.374   6.766  16.282 -0.7536 -0.4824  0.6248
 2530TIP3    H229082   2.449   6.897  16.270 -2.3721  0.4494  0.6651
 2531TIP3   OH229083   6.277   6.298  12.957 -0.1583  0.5316 -0.2502
 2531TIP3    H129084   6.236   6.244  12.889  1.8860 -0.2764 -0.8685
 2531TIP3    H229085   6.294   6.236  13.028  0.8144  0.6663 -0.3646
 2532TIP3   OH229086   1.237   5.948   1.801 -0.3484  0.3036  0.4737
 2532TIP3    H129087   1.329   5.975   1.799 -0.7001  1.4664 -0.7265
 2532TIP3    H229088   1.221   5.922   1.892  0.7222  1.6273  1.0450
 2533TIP3   OH229089   4.087   1.600  15.952 -0.1744  0.6260  0.1086
 2533TIP3    H129090   4.172   1.644  15.953 -0.4131  1.0958  1.0859
 2533TIP3    H229091   4.028   1.663  15.911 -0.2274  0.6550  0.2280
 2534TIP3   OH229092   0.998   3.817   5.285 -0.3813 -0.1689 -0.0375
 2534TIP3    H129093   0.964   3.875   5.353 -1.7707 -1.3619  0.3041
 2534TIP3    H229094   0.924   3.760   5.263  0.9765 -1.8815 -0.2784
 2535TIP3   OH229095   3.579   2.569   2.574 -0.2891  0.2662  0.7914
 2535TIP3    H129096   3.626   2.574   2.491  0.6705  0.3842  1.3427
 2535TIP3    H229097   3.602   2.483   2.609 -0.4224  0.3554  1.0984
 2536TIP3   OH229098   3.604   0.314  12.705  0.3441  0.2617 -0.5737
 2536TIP3    H129099   3.660   0.325  12.628  2.4761 -1.0757  0.7492
 2536TIP3    H229100   3.636   0.234  12.747 -1.4538  0.4176  1.1717
 2537TIP3   OH229101   4.221   6.432   5.366 -0.5354  0.6222  0.3315
 2537TIP3    H129102   4.284   6.413   5.436 -0.0492  1.1410  0.0431
 2537TIP3    H229103   4.175   6.510   5.397 -1.0339  0.2512  0.5353
 2538TIP3   OH229104   1.042   0.875  14.137 -0.3590  0.0711 -0.2340
 2538TIP3    H129105   0.994   0.800  14.171 -1.8884  0.7041 -0.9538
 2538TIP3    H229106   1.006   0.951  14.183  0.1015  0.5283 -0.6113
 2539TIP3   OH229107   6.271   4.385  12.067  0.0227  0.1143 -0.2241
 2539TIP3    H129108   6.227   4.429  12.140 -1.4644 -1.6727 -0.0109
 2539TIP3    H229109   6.338   4.331  12.109 -0.9424 -1.0434 -0.1290
 2540TIP3   OH229110   4.844   5.613  14.027 -0.0917 -0.1641  0.1200
 2540TIP3    H129111   4.805   5.528  14.007 -1.2926  0.0036  1.6730
 2540TIP3    H229112   4.857   5.611  14.122 -0.1620  1.3913  0.1683
 2541TIP3   OH229113   4.056   5.815   1.130  0.4099 -0.4561 -0.1385
 2541TIP3    H129114   4.139   5.777   1.100 -0.7239 -2.3588 -0.9254
 2541TIP3    H229115   4.046   5.895   1.078  1.7817 -0.1578  0.0348
 2542TIP3   OH229116   6.071   3.662  12.804  0.5378 -0.3799  0.0744
 2542TIP3    H129117   6.010   3.659  12.878 -0.1443 -1.9157 -0.5225
 2542TIP3    H229118   6.153   3.694  12.842 -0.2354  0.3471  1.1742
 2543TIP3   OH229119   6.672   2.943  13.109 -0.1453 -0.0587  0.1034
 2543TIP3    H129120   6.731   2.937  13.185 -1.7079 -0.2430  1.3302
 2543TIP3    H229121   6.726   2.918  13.035  2.2605  3.0261  0.7187
 2544TIP3   OH229122   1.768   0.550  15.439  0.3960  0.0085 -0.2070
 2544TIP3    H129123   1.750   0.546  15.533  0.1113 -0.6516 -0.2884
 2544TIP3    H229124   1.713   0.481  15.401  2.0428 -1.0960 -0.6248
 2545TIP3   OH229125   4.980   4.752  13.239 -0.6437 -0.4499  0.6133
 2545TIP3    H129126   4.918   4.817  13.204  0.7199 -0.0159 -1.0952
 2545TIP3    H229127   4.995   4.780  13.329 -1.4649  0.5738  0.4479
 2546TIP3   OH229128   3.382   2.050   3.198 -0.2045 -0.4917  0.0589
 2546TIP3    H129129   3.399   2.128   3.145  1.6735 -1.6301 -1.0854
 2546TIP3    H229130   3.345   2.083   3.280 -0.5663  1.4960 -0.8970
 2547TIP3   OH229131   5.686   0.645  13.483  0.4273 -0.2635  0.1824
 2547TIP3    H129132   5.670   0.581  13.552  0.4097 -2.1881 -1.5435
 2547TIP3    H229133   5.781   0.648  13.474  0.4343  0.0701  0.3595
 2548TIP3   OH229134   1.983   1.812   5.345 -0.3066  0.2465 -0.3423
 2548TIP3    H129135   2.017   1.782   5.260  0.7440 -0.1709  0.2084
 2548TIP3    H229136   1.891   1.787   5.344 -0.6669  1.5621 -1.9622
 2549TIP3   OH229137   5.701   1.817   1.837 -0.4357  0.3153 -0.0118
 2549TIP3    H129138   5.768   1.830   1.905 -1.4444 -1.2611  1.3375
 2549TIP3    H229139   5.740   1.754   1.777  0.2874  1.3732 -0.6732
 2550TIP3   OH229140   3.301   2.821  16.055 -0.0516 -0.2173  0.1409
 2550TIP3    H129141   3.295   2.870  16.138  0.5967  1.0121 -0.5296
 2550TIP3    H229142   3.249   2.742  16.071  0.1203 -0.0329  1.7485
 2551TIP3   OH229143   0.923   3.267  16.130  0.2085 -0.0972 -0.3771
 2551TIP3    H129144   0.941   3.352  16.171  2.0428 -0.2114 -0.9227
 2551TIP3    H229145   0.864   3.288  16.058  0.1389  0.6251 -0.1193
 2552TIP3   OH229146   3.667   5.702   4.070 -0.2269  0.1718  0.4832
 2552TIP3    H129147   3.620   5.627   4.033  1.9165 -0.9402 -0.0822
 2552TIP3    H229148   3.723   5.663   4.138 -1.9978  1.8015  2.9819
 2553TIP3   OH229149   5.694   3.148   0.295 -0.5254  0.4000  0.4419
 2553TIP3    H129150   5.689   3.053   0.309  0.3551  0.4124  0.8423
 2553TIP3    H229151   5.760   3.159   0.227  1.0546  0.8635  2.0115
 2554TIP3   OH229152   5.411   5.861   5.528  0.2642 -0.7197  0.2661
 2554TIP3    H129153   5.506   5.857   5.512  0.5041 -1.1672  1.7302
 2554TIP3    H229154   5.372   5.850   5.442  1.5596  0.2309 -0.4561
 2555TIP3   OH229155   1.192   2.260   6.653 -0.4275  0.0681  0.7711
 2555TIP3    H129156   1.262   2.221   6.706 -2.1944 -1.9324  1.7265
 2555TIP3    H229157   1.176   2.195   6.585  1.5485  2.4478 -2.0424
 2556TIP3   OH229158   3.087   5.266  13.047 -0.5077 -0.1825  0.1035
 2556TIP3    H129159   3.116   5.347  13.005 -0.8885  0.1980  0.5632
 2556TIP3    H229160   3.064   5.208  12.974 -1.3892  0.5578 -0.2246
 2557TIP3   OH229161   4.709   0.463  13.265 -0.5565  0.1502 -0.2046
 2557TIP3    H129162   4.658   0.501  13.337 -2.1793 -0.8041 -0.8302
 2557TIP3    H229163   4.660   0.485  13.186  0.2794 -0.3435 -0.8693
 2558TIP3   OH229164   0.803   6.587   3.926 -0.5349 -0.1742 -0.0588
 2558TIP3    H129165   0.825   6.518   3.864  1.4469 -0.1911  0.6258
 2558TIP3    H229166   0.780   6.662   3.871 -1.2649 -0.9404 -0.8055
 2559TIP3   OH229167   4.452   2.634  16.983  0.3570 -0.1057  0.1617
 2559TIP3    H129168   4.503   2.558  16.953  2.6048  1.2046  0.5056
 2559TIP3    H229169   4.504   2.710  16.955 -2.6368  1.3744 -1.5716
 2560TIP3   OH229170   0.833   5.659   2.507 -0.3067  0.6219  0.4070
 2560TIP3    H129171   0.785   5.690   2.583 -1.7734  1.4090 -0.8252
 2560TIP3    H229172   0.798   5.571   2.490 -0.3789  0.6710  0.3004
 2561TIP3   OH229173   3.457   1.609   1.135 -0.1790  0.7526 -0.1493
 2561TIP3    H129174   3.552   1.598   1.132 -0.0133  1.7617  1.1598
 2561TIP3    H229175   3.424   1.555   1.063  1.1815 -1.6421  0.9830
 2562TIP3   OH229176   0.364   1.622   0.894 -0.4392  0.7857 -0.7015
 2562TIP3    H129177   0.443   1.579   0.927  0.0691  0.4475 -2.3537
 2562TIP3    H229178   0.332   1.673   0.969 -1.1160 -2.4855  1.3150
 2563TIP3   OH229179   4.177   1.120  16.699 -0.1889 -0.2290 -0.5741
 2563TIP3    H129180   4.158   1.070  16.619  1.5254 -0.1797 -1.0173
 2563TIP3    H229181   4.235   1.191  16.670  0.7924 -0.4660  0.7786
 2564TIP3   OH229182   4.277   6.317   1.761 -0.3985  0.5377  0.1843
 2564TIP3    H129183   4.228   6.246   1.803 -0.0235  1.1655  1.7110
 2564TIP3    H229184   4.368   6.286   1.761 -0.5600  0.0191 -1.2898
 2565TIP3   OH229185   2.125   4.188  13.540 -0.0992 -0.0705 -0.0008
 2565TIP3    H129186   2.202   4.189  13.482  0.8865  0.0623  1.2776
 2565TIP3    H229187   2.059   4.237  13.492 -0.3341 -2.5663 -2.3565
 2566TIP3   OH229188   4.231   2.507   0.411 -0.8623 -0.4666 -0.4602
 2566TIP3    H129189   4.236   2.447   0.337 -0.5510 -0.9205 -0.0711
 2566TIP3    H229190   4.322   2.533   0.428 -1.0246  0.3784 -0.8411
 2567TIP3   OH229191   0.535   3.967  14.234 -0.1370  0.3660 -0.3199
 2567TIP3    H129192   0.622   3.983  14.269 -0.2843  0.0847  0.1869
 2567TIP3    H229193   0.550   3.928  14.148  0.2246  1.5252 -0.7866
 2568TIP3   OH229194   5.198   4.093  17.179 -0.0337  0.1450  0.7531
 2568TIP3    H129195   5.104   4.092  17.197 -0.0567 -0.3525  0.6056
 2568TIP3    H229196   5.217   4.006  17.146  0.6089  0.0147  1.4482
 2569TIP3   OH229197   0.156   1.452   0.215  1.0301  0.3645 -0.4491
 2569TIP3    H129198   0.172   1.476   0.124  0.8736  0.4722 -0.4503
 2569TIP3    H229199   0.186   1.528   0.266  0.4518  0.6082 -0.4583
 2570TIP3   OH229200   1.779   2.304   3.364 -0.0155  0.1497  0.1546
 2570TIP3    H129201   1.699   2.338   3.405  0.6228  0.0881  1.4874
 2570TIP3    H229202   1.755   2.216   3.335 -0.7708  0.5671 -0.4964
 2571TIP3   OH229203   6.567   6.165  10.644 -0.1509  0.0365 -0.5338
 2571TIP3    H129204   6.567   6.088  10.588 -0.6799  1.1117 -2.0519
 2571TIP3    H229205   6.484   6.209  10.625 -0.0482  0.7741  0.6168
 2572TIP3   OH229206   3.318   0.279   3.728 -0.2226  0.2054 -0.1870
 2572TIP3    H129207   3.230   0.257   3.697 -0.1787 -1.0017  0.5209
 2572TIP3    H229208   3.320   0.249   3.819  1.3624 -0.9997 -0.5928
 2573TIP3   OH229209   3.008   6.407   5.365 -0.8416 -0.1196  0.0381
 2573TIP3    H129210   3.000   6.498   5.395  0.9592  0.7336 -1.9442
 2573TIP3    H229211   2.918   6.373   5.365 -1.5335  1.6759  0.7517
 2574TIP3   OH229212   4.845   1.434  13.499  0.3521 -0.2217 -0.1716
 2574TIP3    H129213   4.861   1.357  13.553  0.0676 -0.5437 -0.5504
 2574TIP3    H229214   4.759   1.465  13.526  0.9913  0.6934  0.8644
 2575TIP3   OH229215   4.942   6.763   2.667  1.3404  0.2018  0.0336
 2575TIP3    H129216   5.001   6.702   2.711 -0.1076  0.3870  2.3204
 2575TIP3    H229217   4.884   6.707   2.615  0.2594 -0.3542  1.8258
 2576TIP3   OH229218   1.170   0.066  16.468  0.3285  0.0363 -0.3122
 2576TIP3    H129219   1.239   0.130  16.485  0.6460  0.0575 -1.6138
 2576TIP3    H229220   1.104   0.082  16.535  1.9044 -0.4392  1.3768
 2577TIP3   OH229221   6.005   2.808  13.081 -0.8650  0.5013 -0.4887
 2577TIP3    H129222   5.962   2.724  13.064 -0.9851  0.3814  0.3500
 2577TIP3    H229223   6.007   2.852  12.997 -0.9814 -0.2653 -0.8960
 2578TIP3   OH229224   5.462   3.586  14.403  0.5688  0.3391  0.6272
 2578TIP3    H129225   5.384   3.629  14.439 -1.2535 -1.7837 -0.6287
 2578TIP3    H229226   5.508   3.552  14.479 -1.8838 -1.8861  1.1859
 2579TIP3   OH229227   5.213   5.595   0.163 -0.3982 -0.0050 -0.6559
 2579TIP3    H129228   5.152   5.666   0.184  1.2860  1.2227  0.1820
 2579TIP3    H229229   5.274   5.594   0.237 -0.2313 -2.1463 -0.8036
 2580TIP3   OH229230   0.430   4.764   3.499 -0.0436  0.0303  0.3644
 2580TIP3    H129231   0.523   4.780   3.488 -0.0634  0.0563  0.2337
 2580TIP3    H229232   0.400   4.833   3.557  0.0672 -0.1237  0.6055
 2581TIP3   OH229233   0.368   2.076   4.569 -0.3665  0.0209 -0.8699
 2581TIP3    H129234   0.447   2.080   4.515  0.0243 -2.3280 -0.5390
 2581TIP3    H229235   0.323   1.996   4.540 -1.4525  0.1028  0.5253
 2582TIP3   OH229236   5.599   2.061  15.953  0.2834  0.0319 -0.4949
 2582TIP3    H129237   5.506   2.080  15.963  0.7473  0.4310  3.7924
 2582TIP3    H229238   5.602   1.969  15.926 -1.3144  0.0091 -0.6497
 2583TIP3   OH229239   0.193   1.130   4.417  0.4498 -0.4542 -0.5403
 2583TIP3    H129240   0.110   1.083   4.418 -0.0279  0.3715  1.8081
 2583TIP3    H229241   0.170   1.219   4.388  0.6208 -0.4154 -0.5591
 2584TIP3   OH229242   6.815   2.002   2.606 -0.1200 -0.7458  0.1256
 2584TIP3    H129243   6.762   1.922   2.602  0.6065 -1.3979  2.7456
 2584TIP3    H229244   6.762   2.068   2.562 -0.9848 -2.5116 -1.5733
 2585TIP3   OH229245   4.788   6.042   3.820 -0.0233  0.2013 -0.2244
 2585TIP3    H129246   4.825   6.023   3.906 -1.9323 -2.5180  0.0521
 2585TIP3    H229247   4.821   5.972   3.763 -1.5870 -0.0647 -0.8472
 2586TIP3   OH229248   0.004   4.323  10.380 -0.2501  0.2802 -0.2396
 2586TIP3    H129249  -0.082   4.343  10.344 -0.3394  0.4445  0.0680
 2586TIP3    H229250   0.036   4.406  10.414 -0.5204 -0.0478  0.8227
 2587TIP3   OH229251   4.358   3.366   0.985 -0.4008  0.3411  0.2744
 2587TIP3    H129252   4.403   3.288   0.953 -0.7116  0.9707 -1.7128
 2587TIP3    H229253   4.428   3.422   1.020 -0.1130 -0.5108  1.0950
 2588TIP3   OH229254   2.733   0.381   6.603 -0.1450 -0.1147  0.0269
 2588TIP3    H129255   2.730   0.457   6.661 -0.1376  1.1466 -1.5907
 2588TIP3    H229256   2.657   0.391   6.546  0.6159 -0.5833 -1.1010
 2589TIP3   OH229257   3.042   1.065  12.024  0.2515  0.5261  0.2789
 2589TIP3    H129258   3.012   0.974  12.028  1.9177 -0.0039  0.8701
 2589TIP3    H229259   3.084   1.072  11.938  1.6712  0.2322  0.9317
 2590TIP3   OH229260   3.918   6.135  12.835 -0.3040  0.2097 -0.4448
 2590TIP3    H129261   4.013   6.148  12.838 -0.3266  0.2644  0.1590
 2590TIP3    H229262   3.892   6.168  12.749  0.3657 -0.7614 -1.0245
 2591TIP3   OH229263   5.146   1.666   3.162 -0.3706 -1.2589 -0.3599
 2591TIP3    H129264   5.196   1.734   3.206  0.1359 -1.0461 -1.2368
 2591TIP3    H229265   5.056   1.699   3.162 -0.0446 -0.3271 -1.2525
 2592TIP3   OH229266   2.972   5.271  14.127 -0.5114 -0.1081 -0.0637
 2592TIP3    H129267   3.010   5.302  14.209 -0.9872  2.7834 -0.9099
 2592TIP3    H229268   2.879   5.293  14.134 -0.3838  1.0860 -1.7756
 2593TIP3   OH229269   2.322   2.967   2.111 -0.2460  0.1929  0.5472
 2593TIP3    H129270   2.373   2.998   2.185 -0.5676  1.8293  0.1123
 2593TIP3    H229271   2.343   2.874   2.104  1.3795  0.4764  1.4046
 2594TIP3   OH229272   5.895   0.757  15.720  0.4869 -0.6651 -0.1219
 2594TIP3    H129273   5.890   0.851  15.701  0.6943 -0.3425  1.3644
 2594TIP3    H229274   5.989   0.737  15.715  0.7234 -0.2305  2.0921
 2595TIP3   OH229275   4.353   3.972  16.704 -0.1850 -0.3213 -0.3228
 2595TIP3    H129276   4.379   3.888  16.744 -0.1508  0.0276  0.4012
 2595TIP3    H229277   4.390   3.970  16.616  0.2439 -0.8555 -0.1279
 2596TIP3   OH229278   1.650   4.676  16.371 -0.4449  0.0479 -0.0725
 2596TIP3    H129279   1.691   4.589  16.376 -0.9173 -0.1039  1.2685
 2596TIP3    H229280   1.716   4.736  16.406  0.7440  0.5667 -3.0024
 2597TIP3   OH229281   4.589   1.265   0.826 -0.2138  0.1982 -0.0720
 2597TIP3    H129282   4.604   1.295   0.736  1.4136  0.7655  0.3717
 2597TIP3    H229283   4.615   1.339   0.880  0.7624 -0.8493  0.9253
 2598TIP3   OH229284   2.633   2.858  13.405  0.0318  0.1714 -0.1672
 2598TIP3    H129285   2.724   2.868  13.377  0.6769  2.4031  2.5658
 2598TIP3    H229286   2.638   2.808  13.487 -1.0146  1.8805  0.9716
 2599TIP3   OH229287   1.511   5.692  12.614 -0.2135 -0.1887  0.2497
 2599TIP3    H129288   1.587   5.744  12.590  0.4564 -1.0707  0.4125
 2599TIP3    H229289   1.479   5.655  12.532 -0.8005  0.6307  0.1111
 2600TIP3   OH229290   2.855   1.430  11.430 -0.5715 -0.6815  0.1244
 2600TIP3    H129291   2.931   1.487  11.442 -0.8545 -0.5687  1.3628
 2600TIP3    H229292   2.829   1.445  11.339  2.2789 -2.4437 -1.0511
 2601TIP3   OH229293   6.700   0.464   3.948 -0.2613 -0.4968  0.4255
 2601TIP3    H129294   6.662   0.482   3.862 -1.8293 -2.5884  0.6427
 2601TIP3    H229295   6.711   0.551   3.988 -1.1084  0.3853 -1.2012
 2602TIP3   OH229296   1.382   3.287  15.103 -0.0337  0.6814  0.3546
 2602TIP3    H129297   1.326   3.212  15.120 -1.2460  1.2621 -1.0471
 2602TIP3    H229298   1.322   3.358  15.082  0.9363  2.7575  4.1004
 2603TIP3   OH229299   5.663   5.015   2.432 -0.0855 -0.6842  0.2991
 2603TIP3    H129300   5.615   5.072   2.372  0.1991  0.8912  1.5305
 2603TIP3    H229301   5.626   4.928   2.417 -2.3251  0.2430  0.1967
 2604TIP3   OH229302   1.539   5.425  15.089  0.0267  0.2138 -0.4607
 2604TIP3    H129303   1.493   5.501  15.054  0.0734  0.1937 -0.5653
 2604TIP3    H229304   1.603   5.402  15.022 -0.6135 -0.4803 -0.8266
 2605TIP3   OH229305   4.004   1.273   5.800 -0.0866 -0.2912  0.3559
 2605TIP3    H129306   4.077   1.301   5.856 -0.4909 -0.3581  0.9164
 2605TIP3    H229307   3.961   1.354   5.774 -0.1537 -0.2855  0.4853
 2606TIP3   OH229308   5.709   2.520   1.301  0.1171  0.0474 -0.3466
 2606TIP3    H129309   5.637   2.465   1.269  1.5568 -1.6202 -0.8167
 2606TIP3    H229310   5.767   2.530   1.226  1.1972 -0.0133  0.4638
 2607TIP3   OH229311   6.739   1.401   4.712  0.3649  0.0729 -0.2765
 2607TIP3    H129312   6.781   1.478   4.675  0.4146  1.6473  2.8908
 2607TIP3    H229313   6.648   1.427   4.726 -0.0552 -1.0529 -0.8093
 2608TIP3   OH229314   6.820   0.246   1.394 -0.7174  0.5837 -0.1008
 2608TIP3    H129315   6.766   0.288   1.327  0.9474  3.0644  0.0527
 2608TIP3    H229316   6.795   0.291   1.476 -0.2564 -0.0331  0.3808
 2609TIP3   OH229317   1.885   3.686   3.121 -0.0495  0.4546  0.3214
 2609TIP3    H129318   1.802   3.683   3.072 -1.0486  0.7871  1.9505
 2609TIP3    H229319   1.881   3.610   3.179  0.1477  1.2681  1.4118
 2610TIP3   OH229320   5.681   5.065  15.149 -0.2861 -0.0237 -0.1885
 2610TIP3    H129321   5.770   5.095  15.164 -0.8190  1.1226  0.7862
 2610TIP3    H229322   5.633   5.143  15.123 -1.1920 -0.4622  0.1206
 2611TIP3   OH229323   2.385   3.931   0.174 -0.1911  0.3835  0.0221
 2611TIP3    H129324   2.436   3.871   0.228  1.5057  0.3719 -1.5279
 2611TIP3    H229325   2.295   3.922   0.206  0.7136  0.1879  2.6251
 2612TIP3   OH229326   4.520   0.152  16.167  0.0745 -0.3948  0.2961
 2612TIP3    H129327   4.545   0.132  16.077  0.3120 -0.4563  0.3732
 2612TIP3    H229328   4.563   0.235  16.186 -0.9088  0.1856 -0.0222
 2613TIP3   OH229329   4.593   1.922   0.005 -0.1398 -0.0094  0.1138
 2613TIP3    H129330   4.536   1.952   0.075  0.2808  1.7528 -0.2695
 2613TIP3    H229331   4.554   1.959  -0.075  0.9458  0.3589 -0.2597
 2614TIP3   OH229332   4.357   0.757   0.307  0.2518  0.2891  0.7551
 2614TIP3    H129333   4.353   0.666   0.279 -0.0000  0.4682  0.2050
 2614TIP3    H229334   4.275   0.795   0.276  0.3102  0.6770  1.0765
 2615TIP3   OH229335   0.583   3.034  16.927 -0.9952 -0.0309 -0.2581
 2615TIP3    H129336   0.514   3.096  16.902  0.0022  0.8022 -1.0197
 2615TIP3    H229337   0.662   3.067  16.883 -0.8304 -2.9645 -2.3172
 2616TIP3   OH229338   6.784   4.488  11.641  0.7014  0.1445 -0.3409
 2616TIP3    H129339   6.789   4.411  11.584  0.2652  1.8189 -2.6982
 2616TIP3    H229340   6.858   4.543  11.615  0.4881  0.9475  0.7084
 2617TIP3   OH229341   6.357   3.081  17.286  0.2138  0.1018  0.1071
 2617TIP3    H129342   6.342   2.995  17.324 -1.8104  0.6726  0.6474
 2617TIP3    H229343   6.408   3.128  17.353  0.8947 -0.4915  0.0175
 2618TIP3   OH229344   1.630   4.611  11.885  0.2973  0.4425  0.2545
 2618TIP3    H129345   1.669   4.695  11.863 -0.5019  0.0307 -3.0391
 2618TIP3    H229346   1.656   4.552  11.814 -1.1113 -1.4675  1.2455
 2619TIP3   OH229347   6.803   1.375  16.216  0.3173  0.0329  0.2155
 2619TIP3    H129348   6.788   1.354  16.308 -0.7089  0.4050  0.1386
 2619TIP3    H229349   6.825   1.468  16.216 -0.2178  0.1624  0.0362
 2620TIP3   OH229350   0.487   1.923   3.669 -1.1298 -0.0288 -0.5118
 2620TIP3    H129351   0.482   1.926   3.573 -1.6442 -0.1514 -0.4915
 2620TIP3    H229352   0.570   1.878   3.688 -0.3303  1.2527 -0.8956
 2621TIP3   OH229353   4.872   0.957   1.808 -0.1153 -0.6481  0.0251
 2621TIP3    H129354   4.849   1.029   1.866 -0.2487 -1.0641  0.4919
 2621TIP3    H229355   4.965   0.968   1.791 -0.1206 -0.4097  0.1522
 2622TIP3   OH229356   3.206   2.639  14.145  0.0382  0.2402 -0.5813
 2622TIP3    H129357   3.175   2.548  14.144 -1.3261  0.6911 -0.7686
 2622TIP3    H229358   3.264   2.645  14.069 -2.1956  0.3019 -2.3201
 2623TIP3   OH229359   0.429   3.641  12.517  0.1836  0.0617 -0.3223
 2623TIP3    H129360   0.404   3.691  12.440  0.6573  0.6046 -0.1234
 2623TIP3    H229361   0.379   3.560  12.511  1.8753 -0.8765 -2.3759
 2624TIP3   OH229362   0.960   1.216   5.020 -0.0742  0.0016  0.2777
 2624TIP3    H129363   0.953   1.161   4.942 -1.2287 -2.0689  1.8129
 2624TIP3    H229364   0.870   1.237   5.043  0.3286  2.0775  0.0752
 2625TIP3   OH229365   2.704   6.169   5.605 -0.1539  0.4355  0.0136
 2625TIP3    H129366   2.638   6.217   5.656  0.5490  0.3043  1.0556
 2625TIP3    H229367   2.679   6.185   5.514 -1.9843 -0.0834  0.3904
 2626TIP3   OH229368   6.651   0.518  13.528 -0.5556  0.2648  0.0724
 2626TIP3    H129369   6.695   0.469  13.458 -0.4969 -0.7170  0.7995
 2626TIP3    H229370   6.700   0.495  13.607 -1.5366  0.2388  0.6701
 2627TIP3   OH229371   2.407   1.284   1.873 -0.2679  0.2355 -0.3925
 2627TIP3    H129372   2.428   1.371   1.838  0.3669  0.4593  0.5457
 2627TIP3    H229373   2.362   1.240   1.801 -0.7299  1.3920 -0.8312
 2628TIP3   OH229374   1.055   4.235   3.996 -0.3238  0.3361  0.5730
 2628TIP3    H129375   1.062   4.139   3.995 -0.7255  0.3113 -0.7378
 2628TIP3    H229376   0.962   4.252   4.008 -0.0396  0.5927  2.6392
 2629TIP3   OH229377   3.974   2.370   3.451 -0.9159  0.0425  0.1120
 2629TIP3    H129378   3.989   2.324   3.533 -1.5233  0.4442  0.4540
 2629TIP3    H229379   3.995   2.461   3.470 -0.2708 -0.0007 -0.4035
 2630TIP3   OH229380   0.994   4.496  13.085 -0.4686  0.2354  0.1087
 2630TIP3    H129381   1.055   4.503  13.012 -0.4796  0.1754  0.0927
 2630TIP3    H229382   1.005   4.578  13.134 -1.0727  0.6310 -0.4216
 2631TIP3   OH229383   6.234   3.128  15.669  0.1195 -0.3709  0.3395
 2631TIP3    H129384   6.259   3.168  15.752  0.6945  0.3671 -0.1850
 2631TIP3    H229385   6.247   3.034  15.684  1.2735 -0.1625  0.7381
 2632TIP3   OH229386   3.021   2.362   3.501  0.1322  0.1444 -0.0282
 2632TIP3    H129387   3.107   2.403   3.489  0.3898 -0.3133  0.2546
 2632TIP3    H229388   2.992   2.393   3.586 -0.0954  0.4995 -0.2344
 2633TIP3   OH229389   6.470   0.351  13.167 -0.6391 -0.7217 -0.5377
 2633TIP3    H129390   6.412   0.299  13.223 -0.6388  1.0201  1.1457
 2633TIP3    H229391   6.419   0.429  13.145  0.2634 -0.2116 -0.8732
 2634TIP3   OH229392   1.236   0.538  12.281  0.5889  0.1934 -0.1644
 2634TIP3    H129393   1.221   0.605  12.214  1.0855  1.6722  1.1706
 2634TIP3    H229394   1.328   0.513  12.268  0.7268  0.5821  0.0454
 2635TIP3   OH229395   1.499   0.330  14.437 -0.3364 -0.4144  0.2010
 2635TIP3    H129396   1.590   0.354  14.453  0.2616 -1.3311 -1.7233
 2635TIP3    H229397   1.502   0.239  14.410 -1.6508 -0.0343 -1.3219
 2636TIP3   OH229398   5.013   3.500  14.085  0.0191 -0.4831 -0.3336
 2636TIP3    H129399   4.966   3.576  14.117  3.9384  1.4823  1.1506
 2636TIP3    H229400   5.028   3.446  14.163  1.4249 -0.3448 -0.4853
 2637TIP3   OH229401   0.892   6.509   1.788  0.2110 -0.7857 -0.0512
 2637TIP3    H129402   0.823   6.443   1.796 -1.4346  1.2503  3.4118
 2637TIP3    H229403   0.848   6.587   1.755  1.2482 -0.0920  0.1840
 2638TIP3   OH229404   0.802   2.894   1.594  0.3759 -0.1018 -0.7776
 2638TIP3    H129405   0.798   2.986   1.618 -2.0804 -0.4349  0.2044
 2638TIP3    H229406   0.811   2.895   1.498  0.3991  1.1431 -0.7735
 2639TIP3   OH229407   2.828   6.314   2.000 -0.0720 -0.1102  0.4775
 2639TIP3    H129408   2.901   6.296   1.940 -0.3062  0.7428 -0.0777
 2639TIP3    H229409   2.794   6.228   2.023  1.8298 -0.5776  1.6364
 2640TIP3   OH229410   5.411   3.722  16.255  0.1352 -0.3857  0.5668
 2640TIP3    H129411   5.484   3.749  16.310  0.7311  1.2950 -0.9900
 2640TIP3    H229412   5.372   3.647  16.300  0.9643  0.5940  2.9458
 2641TIP3   OH229413   3.576   5.768   4.664 -0.5265  0.0767  0.0799
 2641TIP3    H129414   3.628   5.803   4.737 -0.1493 -1.1629  0.4304
 2641TIP3    H229415   3.636   5.710   4.617 -1.0700  0.0551 -0.5994
 2642TIP3   OH229416   2.417   0.516   4.312  0.1373  0.1525  0.0823
 2642TIP3    H129417   2.417   0.499   4.218  0.5889 -1.7520  0.3988
 2642TIP3    H229418   2.344   0.464   4.346  0.7684 -0.1798  0.9453
 2643TIP3   OH229419   1.792   6.312   3.817 -0.0143 -0.3234  0.3453
 2643TIP3    H129420   1.855   6.382   3.828  0.2023 -0.5158  0.3412
 2643TIP3    H229421   1.810   6.251   3.889 -2.4583  1.3047  2.4342
 2644TIP3   OH229422   2.084   1.767   6.037  0.1995  0.1913  0.1644
 2644TIP3    H129423   2.101   1.777   6.131  1.5388 -2.5054  0.2414
 2644TIP3    H229424   1.992   1.740   6.033 -0.1816  1.3888  0.6140
 2645TIP3   OH229425   0.160   0.695   0.161  0.1952  0.4486  0.0529
 2645TIP3    H129426   0.204   0.759   0.218 -1.7905  2.4107 -0.5458
 2645TIP3    H229427   0.071   0.690   0.195 -0.1984 -0.5961 -1.0900
 2646TIP3   OH229428   4.429   0.239  13.297  0.5100  0.5335  0.0879
 2646TIP3    H129429   4.432   0.145  13.316 -0.5331 -0.0688 -2.4637
 2646TIP3    H229430   4.500   0.276  13.348  2.6920 -2.0498 -0.9526
 2647TIP3   OH229431   0.610   6.769  14.608  0.4700  0.8162 -0.0310
 2647TIP3    H129432   0.626   6.808  14.522  0.6610  1.2488  0.1981
 2647TIP3    H229433   0.527   6.723  14.599  0.9600  0.0425 -0.7302
 2648TIP3   OH229434   2.075   2.993   4.988 -0.5633 -0.5040  0.2643
 2648TIP3    H129435   2.156   3.027   4.950 -1.1685 -0.6123 -1.1840
 2648TIP3    H229436   2.052   3.056   5.056  1.1390 -0.8949  1.2234
 2649TIP3   OH229437   4.091   3.792   2.484  0.7608 -0.2200  0.0529
 2649TIP3    H129438   4.135   3.717   2.444  0.2481 -0.6660  0.3246
 2649TIP3    H229439   4.129   3.798   2.572  0.4635 -0.4514  0.1982
 2650TIP3   OH229440   2.672   3.445  16.876  0.0363 -0.6722 -0.0555
 2650TIP3    H129441   2.759   3.408  16.891  0.7261  0.0516 -1.9858
 2650TIP3    H229442   2.652   3.421  16.785 -0.6984  1.2889 -0.4236
 2651TIP3   OH229443   1.353   3.324  15.444 -0.0898  0.2151  0.0735
 2651TIP3    H129444   1.265   3.312  15.409  0.2471 -0.9095 -0.4208
 2651TIP3    H229445   1.341   3.375  15.524 -1.1064  0.7480 -0.4140
 2652TIP3   OH229446   6.616   6.427   6.595  0.3904 -0.6136 -0.0540
 2652TIP3    H129447   6.569   6.493   6.646  2.3473  0.9943 -0.2821
 2652TIP3    H229448   6.547   6.367   6.565 -1.4540  1.3463  0.1219
 2653TIP3   OH229449   5.643   6.708   1.788 -0.2190 -0.2153  0.3967
 2653TIP3    H129450   5.632   6.619   1.756 -2.3096 -0.0448  0.5587
 2653TIP3    H229451   5.727   6.736   1.753 -1.1438 -0.9985 -2.6333
 2654TIP3   OH229452   2.075   0.697  15.393  0.1580 -0.2958  0.1265
 2654TIP3    H129453   2.157   0.739  15.366 -0.8300  1.3984 -0.3067
 2654TIP3    H229454   2.041   0.753  15.463  0.9045 -2.7108  2.4958
 2655TIP3   OH229455   5.421   3.254  13.707  0.3641  0.9719 -0.2123
 2655TIP3    H129456   5.470   3.257  13.790  0.8754  2.8728 -0.5565
 2655TIP3    H229457   5.335   3.219  13.731  1.7750 -2.2842  0.4294
 2656TIP3   OH229458   1.734   5.344  13.919 -0.0568  0.3196 -0.0594
 2656TIP3    H129459   1.784   5.280  13.868  2.0197 -0.1153  2.3887
 2656TIP3    H229460   1.767   5.429  13.889  1.3918  0.0629  0.7256
 2657TIP3   OH229461   4.181   5.202  14.456 -0.1156 -0.4290 -0.5611
 2657TIP3    H129462   4.107   5.239  14.504  0.6166 -0.7649  0.8345
 2657TIP3    H229463   4.186   5.255  14.376  0.1843  1.7244  0.8458
 2658TIP3   OH229464   5.755   6.771   3.102  0.0785  0.2022 -0.1669
 2658TIP3    H129465   5.755   6.819   3.185 -0.9705 -2.4602  1.4438
 2658TIP3    H229466   5.671   6.794   3.062 -0.5169 -0.4423  0.6978
 2659TIP3   OH229467   4.023   2.562  17.281  0.4061  0.3104 -0.6590
 2659TIP3    H129468   4.022   2.480  17.233  1.4907 -1.1785  1.7756
 2659TIP3    H229469   4.065   2.541  17.365  0.4662  3.2691  0.1296
 2660TIP3   OH229470   5.331   0.855   5.819 -0.4353 -0.1512  0.4756
 2660TIP3    H129471   5.243   0.873   5.784  0.3554 -0.7186 -1.8870
 2660TIP3    H229472   5.381   0.934   5.800  0.2990 -0.8865 -0.7384
 2661TIP3   OH229473   1.598   4.416   0.900 -0.5627  0.2291  0.6239
 2661TIP3    H129474   1.682   4.415   0.946  0.0720 -0.6767 -0.5441
 2661TIP3    H229475   1.622   4.418   0.807 -1.8372  0.6054  0.3026
 2662TIP3   OH229476   3.179   6.210  15.359  0.1269  0.7566 -0.2869
 2662TIP3    H129477   3.138   6.250  15.282  0.4852 -0.9068 -1.3667
 2662TIP3    H229478   3.170   6.115  15.344  3.0087  0.3878  0.1918
 2663TIP3   OH229479   0.876   4.406  12.078 -0.5649 -0.3979  0.0322
 2663TIP3    H129480   0.895   4.317  12.108 -0.2087 -0.1300  0.5963
 2663TIP3    H229481   0.943   4.460  12.118 -0.5459  0.0723 -0.6365
 2664TIP3   OH229482   0.022   6.279  16.598  0.2142  0.0623  0.5449
 2664TIP3    H129483   0.073   6.336  16.541  1.3009 -0.1479  1.2890
 2664TIP3    H229484   0.085   6.247  16.663 -0.4461 -1.6980  0.3525
 2665TIP3   OH229485   5.267   2.518  13.489 -0.1409  0.0784  0.1838
 2665TIP3    H129486   5.289   2.578  13.560 -1.6691 -1.0370  1.6636
 2665TIP3    H229487   5.324   2.442  13.503  2.4941  1.5248 -2.2652
 2666TIP3   OH229488   0.266   4.185  11.594  0.3995  0.2330  0.8652
 2666TIP3    H129489   0.196   4.139  11.641  0.1758  0.5128  0.8077
 2666TIP3    H229490   0.221   4.233  11.524  0.5239  1.2127  1.4380
 2667TIP3   OH229491   3.520   2.049   4.166 -0.2697  0.1807  0.1123
 2667TIP3    H129492   3.591   2.095   4.120 -0.2620  0.9266  0.8518
 2667TIP3    H229493   3.440   2.092   4.136 -0.3923 -0.4939 -0.5309
 2668TIP3   OH229494   1.034   0.053   0.762  0.0678 -0.1135  0.2584
 2668TIP3    H129495   1.118   0.054   0.806  1.8651  1.3841 -3.0481
 2668TIP3    H229496   1.028  -0.035   0.723  0.4287  0.0058 -0.0681
 2669TIP3   OH229497   3.852   1.069   2.008 -0.1088 -0.6454 -0.1310
 2669TIP3    H129498   3.810   1.125   1.942 -0.3577 -1.2345 -0.4871
 2669TIP3    H229499   3.945   1.072   1.986  0.3509  2.4339  2.0160
 2670TIP3   OH229500   2.245   3.686  11.151 -0.5086 -0.3705 -0.3402
 2670TIP3    H129501   2.279   3.744  11.083  0.9229 -0.8898 -0.0913
 2670TIP3    H229502   2.254   3.735  11.232 -2.0279  0.1711 -0.4880
 2671TIP3   OH229503   2.654   5.719  13.437  0.4211 -0.0286 -0.0269
 2671TIP3    H129504   2.728   5.750  13.384  0.3292 -1.7434 -1.2029
 2671TIP3    H229505   2.684   5.729  13.528  0.7172  2.6014 -0.3721
 2672TIP3   OH229506   3.775   0.237   2.902 -0.9383  0.4681  0.7327
 2672TIP3    H129507   3.806   0.188   2.826 -0.2890  1.4156  0.3834
 2672TIP3    H229508   3.840   0.306   2.915 -1.7116  1.0879  1.3725
 2673TIP3   OH229509   3.013   1.819   5.067  0.0284 -0.0886 -0.0143
 2673TIP3    H129510   2.949   1.885   5.096  2.0500  1.5165  0.9569
 2673TIP3    H229511   3.063   1.864   4.999  1.1702 -0.7558  0.3873
 2674TIP3   OH229512   4.907   4.008  14.114  0.0689 -0.0399  0.2558
 2674TIP3    H129513   4.885   4.092  14.153  0.3505 -0.5854  1.6230
 2674TIP3    H229514   4.823   3.966  14.098 -0.0327 -0.2307  1.2371
 2675TIP3   OH229515   5.427   1.585   0.165  0.0133 -0.2179 -0.0457
 2675TIP3    H129516   5.405   1.555   0.253 -0.3719  0.7558  0.1924
 2675TIP3    H229517   5.399   1.513   0.108 -0.7390 -0.3900  0.5265
 2676TIP3   OH229518   2.983   5.966  15.440  0.4048  0.0279  0.0381
 2676TIP3    H129519   2.959   5.894  15.382 -0.4299  0.6977 -0.4587
 2676TIP3    H229520   3.075   5.950  15.461  0.2875 -1.0654 -0.2332
 2677TIP3   OH229521   3.294   0.698  13.905  0.4068  0.5642  0.0063
 2677TIP3    H129522   3.224   0.666  13.848  1.2614 -0.5259 -0.4436
 2677TIP3    H229523   3.327   0.620  13.950  2.0618  0.8996 -0.5960
 2678TIP3   OH229524   1.491   2.097  16.097  0.0258 -0.3005 -0.4106
 2678TIP3    H129525   1.475   2.140  16.013  0.0298 -0.7560 -0.6497
 2678TIP3    H229526   1.578   2.057  16.087  0.1051 -0.1919 -0.1243
 2679TIP3   OH229527   4.736   0.557  14.340  0.3202  0.1324 -0.9685
 2679TIP3    H129528   4.663   0.616  14.321  1.1393  0.7206 -2.3554
 2679TIP3    H229529   4.808   0.615  14.366  0.9086 -0.2906 -1.6131
 2680TIP3   OH229530   1.194   0.899   4.369  0.0585  0.1456 -0.6192
 2680TIP3    H129531   1.222   0.914   4.279 -2.5173  0.4999 -1.3999
 2680TIP3    H229532   1.100   0.885   4.363 -0.1754  0.2844  2.0512
 2681TIP3   OH229533   2.128   6.559   0.801 -0.1456  0.3523  0.1273
 2681TIP3    H129534   2.222   6.575   0.797  0.0117 -0.7714 -0.6827
 2681TIP3    H229535   2.096   6.621   0.867  1.2204  0.4167  0.7318
 2682TIP3   OH229536   1.174   3.532  13.293  0.1981  0.3695  0.5683
 2682TIP3    H129537   1.206   3.527  13.383 -1.2606 -1.0383  1.0326
 2682TIP3    H229538   1.116   3.608  13.292 -0.8901 -0.4353  1.2015
 2683TIP3   OH229539   1.162   2.290  11.645  0.2330  0.2865 -0.1304
 2683TIP3    H129540   1.238   2.299  11.701 -0.8245  1.4098  1.1448
 2683TIP3    H229541   1.094   2.342  11.687 -1.2515 -0.7012 -1.2414
 2684TIP3   OH229542   3.248   5.668  11.568 -0.4449  0.6587 -0.2094
 2684TIP3    H129543   3.316   5.732  11.590 -0.4035  0.2931  0.7690
 2684TIP3    H229544   3.183   5.717  11.518 -0.0609  1.3049 -0.0699
 2685TIP3   OH229545   6.686   5.968  12.373  0.1244 -0.3663 -0.2317
 2685TIP3    H129546   6.748   5.899  12.394  0.4481 -0.6304 -1.9887
 2685TIP3    H229547   6.634   5.978  12.452  2.6669  0.1659  1.4485
 2686TIP3   OH229548   3.850   5.147   5.370 -0.4115  0.0525 -0.6009
 2686TIP3    H129549   3.823   5.234   5.400 -0.5874 -0.3082  0.3025
 2686TIP3    H229550   3.941   5.139   5.398 -0.6239 -0.3487 -0.0043
 2687TIP3   OH229551   6.811   3.792   3.504 -0.2625 -0.2313  0.5282
 2687TIP3    H129552   6.842   3.867   3.555 -0.1495 -0.3865  0.6901
 2687TIP3    H229553   6.828   3.717   3.560 -0.9238 -0.3219  0.6082
 2688TIP3   OH229554   6.499   5.625   1.153  0.1969 -0.1727  0.0607
 2688TIP3    H129555   6.584   5.596   1.185 -0.0612  0.4707  1.3254
 2688TIP3    H229556   6.520   5.693   1.088  0.6102  0.9362  1.3394
 2689TIP3   OH229557   5.124   0.892  11.899  0.3600 -0.0854 -0.3590
 2689TIP3    H129558   5.174   0.837  11.959  1.3178  1.5050  0.3505
 2689TIP3    H229559   5.190   0.928  11.839  0.0735  1.8945  0.4803
 2690TIP3   OH229560   5.763   3.233  15.773 -0.2147  0.3593 -0.2656
 2690TIP3    H129561   5.817   3.154  15.762 -1.9543 -0.9165  0.1828
 2690TIP3    H229562   5.736   3.256  15.684  0.1298  0.3418 -0.3765
 2691TIP3   OH229563   2.240   4.999  13.034 -0.3499 -0.1288 -0.0681
 2691TIP3    H129564   2.210   5.008  13.125 -0.7445 -0.5601 -0.1541
 2691TIP3    H229565   2.219   4.909  13.011  1.3760 -0.5675 -0.0125
 2692TIP3   OH229566   4.084   2.775   1.173 -0.0007 -0.5228  0.1588
 2692TIP3    H129567   4.085   2.700   1.233 -0.4646  0.7684  1.8045
 2692TIP3    H229568   4.093   2.735   1.086  1.8572 -2.3495  1.1207
 2693TIP3   OH229569   1.609   3.594  14.410  0.3580  0.1107  0.0535
 2693TIP3    H129570   1.609   3.667  14.472  0.1842 -0.7823  1.1119
 2693TIP3    H229571   1.679   3.536  14.440 -0.0228 -0.5545 -0.3219
 2694TIP3   OH229572   3.846   0.018   2.345 -0.2574 -0.0751  0.2800
 2694TIP3    H129573   3.907  -0.010   2.277 -1.7015  0.1920 -1.1447
 2694TIP3    H229574   3.780  -0.052   2.349 -0.9740  0.6022  0.3929
 2695TIP3   OH229575   2.824   3.811   0.344 -0.0572 -0.4081 -0.5875
 2695TIP3    H129576   2.887   3.853   0.402 -0.8222  1.1945 -0.8866
 2695TIP3    H229577   2.837   3.853   0.259 -1.9662  0.4498 -0.4975
 2696TIP3   OH229578   2.817   1.898  13.359  0.0303  0.3141  0.2568
 2696TIP3    H129579   2.840   1.845  13.283  2.6870 -0.1842  1.3458
 2696TIP3    H229580   2.763   1.969  13.324 -1.6398 -1.8185 -1.5553
 2697TIP3   OH229581   1.922   2.745   3.903  0.3845  0.5936 -0.4451
 2697TIP3    H129582   1.908   2.668   3.848 -0.8562  0.7360 -0.3388
 2697TIP3    H229583   1.927   2.818   3.842  1.2666  0.4775 -0.5230
 2698TIP3   OH229584   6.205   2.355  11.857  0.0358  0.0578  0.3467
 2698TIP3    H129585   6.228   2.265  11.881 -0.8614 -0.5973 -1.1794
 2698TIP3    H229586   6.133   2.378  11.916 -0.0772 -0.3960  0.3832
 2699TIP3   OH229587   1.286   0.785  10.380  0.2410  0.3234 -0.3822
 2699TIP3    H129588   1.347   0.711  10.389  1.2099  1.4064  2.6431
 2699TIP3    H229589   1.342   0.862  10.375 -0.7903  0.9573 -2.5333
 2700TIP3   OH229590   6.049   3.521  13.168  0.1099  0.3529  0.0183
 2700TIP3    H129591   6.112   3.475  13.223  0.2872  1.3421  0.6513
 2700TIP3    H229592   5.964   3.487  13.196  0.2638  0.1614  0.2568
 2701TIP3   OH229593   6.517   3.391   4.321 -0.4033  0.0422 -0.5152
 2701TIP3    H129594   6.446   3.431   4.373 -0.0751 -0.8802  0.6441
 2701TIP3    H229595   6.503   3.426   4.233 -2.2090  0.0160 -0.2693
 2702TIP3   OH229596   2.961   2.165   6.609  0.1345  0.2880  0.2528
 2702TIP3    H129597   2.937   2.238   6.552  0.4994  0.2006 -0.0197
 2702TIP3    H229598   3.037   2.196   6.657  1.2395 -0.4439 -0.9789
 2703TIP3   OH229599   4.473   4.026  14.722 -0.2512 -0.7222  0.2037
 2703TIP3    H129600   4.452   3.939  14.686 -0.4908 -0.7289  0.3605
 2703TIP3    H229601   4.560   4.014  14.762 -1.0222 -1.3394  1.7384
 2704TIP3   OH229602   3.711   5.883  16.026  0.0510  0.2398  0.2445
 2704TIP3    H129603   3.700   5.910  15.935  2.1930  0.2392 -0.0548
 2704TIP3    H229604   3.755   5.798  16.020 -0.2766 -0.0091  1.2765
 2705TIP3   OH229605   0.025   1.517  13.647  0.0907 -0.7562 -0.4510
 2705TIP3    H129606   0.097   1.577  13.626  0.5305 -0.8854  0.6484
 2705TIP3    H229607   0.069   1.435  13.670 -0.4348 -0.9907 -0.2923
 2706TIP3   OH229608   2.225   1.700  10.450  0.1117 -0.0078  0.4616
 2706TIP3    H129609   2.184   1.628  10.498 -1.5243 -0.1474 -1.1041
 2706TIP3    H229610   2.223   1.774  10.512 -2.1592 -0.1281  0.5839
 2707TIP3   OH229611   3.152   5.786  16.695  0.0543  0.0698  0.2505
 2707TIP3    H129612   3.074   5.841  16.689  0.1979  0.3063  0.5670
 2707TIP3    H229613   3.225   5.847  16.705  0.0050 -0.2162  2.7083
 2708TIP3   OH229614   3.573   2.327   4.287 -0.3717  0.1116 -0.2669
 2708TIP3    H129615   3.629   2.253   4.310  0.1477  0.4007 -0.5598
 2708TIP3    H229616   3.623   2.404   4.316  1.7070  0.6898 -4.8525
 2709TIP3   OH229617   4.984   4.699  14.137  0.0830 -0.2585  0.4874
 2709TIP3    H129618   4.967   4.742  14.053  2.0993  1.7486  1.0628
 2709TIP3    H229619   5.034   4.621  14.114  1.6787  0.9088 -0.1271
 2710TIP3   OH229620   0.572   0.245  15.680  0.3741  0.0534  0.0146
 2710TIP3    H129621   0.563   0.216  15.590  0.1731 -0.6989  0.2725
 2710TIP3    H229622   0.532   0.175  15.732  0.3618  0.5419  0.6774
 2711TIP3   OH229623   1.258   0.028   3.430 -0.1581  0.3720 -0.2773
 2711TIP3    H129624   1.238  -0.040   3.365 -1.2691 -0.3941  0.8541
 2711TIP3    H229625   1.263  -0.018   3.513  1.1450  1.3766  0.2224
 2712TIP3   OH229626   4.571   2.450  14.952  0.3464  0.2776  0.1203
 2712TIP3    H129627   4.618   2.481  15.030  0.9721  0.3267 -0.2744
 2712TIP3    H229628   4.479   2.451  14.978  0.5208  0.6439  0.7434
 2713TIP3   OH229629   1.609   0.947   3.177 -0.1032 -0.7320 -0.6621
 2713TIP3    H129630   1.654   0.869   3.208 -1.5138 -1.2371  0.1330
 2713TIP3    H229631   1.527   0.950   3.227  0.3341  1.7555 -0.0067
 2714TIP3   OH229632   3.834   3.233   2.217  0.2276  0.6034  0.6193
 2714TIP3    H129633   3.881   3.310   2.185  0.2950 -0.0146 -0.8142
 2714TIP3    H229634   3.742   3.253   2.205  0.3154 -0.7329 -2.6781
 2715TIP3   OH229635   5.816   0.174  15.884 -0.1059  0.4376 -0.2609
 2715TIP3    H129636   5.806   0.105  15.819 -0.0839  2.2548 -2.2752
 2715TIP3    H229637   5.726   0.205  15.900 -0.2707 -1.0712  1.7972
 2716TIP3   OH229638   1.039   6.408   1.991  0.1213 -0.1582 -0.5013
 2716TIP3    H129639   0.979   6.447   1.928  0.2096 -1.5353 -1.4702
 2716TIP3    H229640   1.053   6.319   1.958  1.0440 -0.5280  0.8596
 2717TIP3   OH229641   3.571   5.652  14.115  0.6515  0.3707 -0.5051
 2717TIP3    H129642   3.657   5.691  14.133  1.1227 -0.6442 -0.4531
 2717TIP3    H229643   3.592   5.571  14.068 -0.3982  1.2300 -2.4718
 2718TIP3   OH229644   3.052   6.668  11.735  0.1746 -0.4666 -0.3946
 2718TIP3    H129645   3.100   6.695  11.814 -1.2987 -0.0288  0.3708
 2718TIP3    H229646   3.012   6.748  11.703  0.2375 -0.7668 -1.2361
 2719TIP3   OH229647   5.465   6.600   5.786  0.5532 -0.1309 -0.2910
 2719TIP3    H129648   5.433   6.683   5.823 -0.8068  0.0914 -1.9094
 2719TIP3    H229649   5.427   6.533   5.843 -0.1594  0.2654 -0.2835
 2720TIP3   OH229650   0.735   1.244   1.431 -0.2962 -0.1360  0.5925
 2720TIP3    H129651   0.645   1.220   1.453  0.2629 -1.6448  1.3397
 2720TIP3    H229652   0.738   1.241   1.335 -1.3027  0.9533  0.5189
 2721TIP3   OH229653   4.385   5.284  11.059  0.5945  0.5238  0.6027
 2721TIP3    H129654   4.417   5.260  10.972  0.0177  1.2862  0.1743
 2721TIP3    H229655   4.397   5.205  11.111  1.7853  0.3343  0.0631
 2722TIP3   OH229656   2.048   0.525   4.679 -0.3429 -0.1557 -0.4371
 2722TIP3    H129657   1.992   0.533   4.756  0.9096 -1.3986  0.6207
 2722TIP3    H229658   2.099   0.607   4.678  0.4508 -0.6156  0.7316
 2723TIP3   OH229659   1.655   0.522   0.257 -0.0701  0.5671  0.1183
 2723TIP3    H129660   1.580   0.499   0.311  0.3243 -0.2529  0.3124
 2723TIP3    H229661   1.618   0.574   0.186 -0.9063 -0.3303 -0.1095
 2724TIP3   OH229662   1.495   4.979  12.697  0.1685 -0.6135  0.7624
 2724TIP3    H129663   1.588   4.999  12.696 -0.2506  1.4812 -1.5503
 2724TIP3    H229664   1.488   4.894  12.652  0.8243 -0.0215 -0.4855
 2725TIP3   OH229665   1.429   2.595  10.474  0.5165  0.3341  0.1668
 2725TIP3    H129666   1.488   2.665  10.446  0.4150  0.2903 -0.1626
 2725TIP3    H229667   1.483   2.517  10.476 -0.0605 -0.1898 -2.5147
 2726TIP3   OH229668   6.422   2.449   1.866  0.1623 -0.4460  0.3294
 2726TIP3    H129669   6.386   2.506   1.934 -1.3358  0.1534 -0.9210
 2726TIP3    H229670   6.387   2.485   1.784 -0.0292 -2.5742 -0.5558
 2727TIP3   OH229671   6.056   2.832  14.611  0.2315 -0.5895  0.0755
 2727TIP3    H129672   6.090   2.853  14.698 -3.1911  3.6778  0.5711
 2727TIP3    H229673   6.091   2.899  14.554 -0.6561 -1.0539 -1.0410
 2728TIP3   OH229674   0.372   0.167   2.904  1.2516 -0.2443  0.2678
 2728TIP3    H129675   0.289   0.189   2.947  1.4003 -0.9527  0.9134
 2728TIP3    H229676   0.349   0.098   2.842  1.0665  0.6686 -0.7146
 2729TIP3   OH229677   2.308   1.706  16.991  0.3959 -0.2041 -0.1493
 2729TIP3    H129678   2.285   1.616  16.970  2.7481 -0.8534 -0.1151
 2729TIP3    H229679   2.400   1.714  16.965  0.5267  1.8670  0.8176
 2730TIP3   OH229680   0.948   6.024  16.688  0.8502  0.0423 -0.5599
 2730TIP3    H129681   0.861   6.063  16.680  1.0888  0.7522  0.1890
 2730TIP3    H229682   0.973   6.002  16.599  0.4582  1.0798 -0.9340
 2731TIP3   OH229683   2.658   6.053   2.325 -0.3206 -0.1991 -0.5317
 2731TIP3    H129684   2.652   5.987   2.395  0.4733  0.1938 -0.0837
 2731TIP3    H229685   2.651   6.003   2.244  1.1578 -0.9449 -0.2086
 2732TIP3   OH229686   5.554   2.061   0.928 -0.4671 -0.1314  0.2444
 2732TIP3    H129687   5.566   1.967   0.942 -3.8052 -0.8253 -1.2130
 2732TIP3    H229688   5.565   2.100   1.015 -2.7576 -2.3124  1.5740
 2733TIP3   OH229689   1.008   2.778  12.518  0.4673 -0.0559 -0.1394
 2733TIP3    H129690   0.943   2.719  12.480  0.4011 -1.0539  1.4711
 2733TIP3    H229691   1.069   2.721  12.563 -0.3101  1.1548  2.5408
 2734TIP3   OH229692   0.075   3.652  17.077 -0.6506 -0.0295  0.0696
 2734TIP3    H129693   0.090   3.577  17.134  0.4977 -0.8661 -1.3213
 2734TIP3    H229694  -0.001   3.628  17.023  1.6445 -1.5484 -2.5925
 2735TIP3   OH229695   5.362   5.499  11.186  0.9932 -0.1865 -0.0299
 2735TIP3    H129696   5.367   5.407  11.158  0.5279 -0.2012 -0.0680
 2735TIP3    H229697   5.410   5.547  11.118 -0.2451 -0.2102 -0.9571
 2736TIP3   OH229698   2.687   4.789   5.213 -0.0625 -0.2496 -0.1401
 2736TIP3    H129699   2.643   4.745   5.286  0.6112 -1.0742 -0.2157
 2736TIP3    H229700   2.677   4.882   5.231 -1.5759 -0.4150 -0.0004
 2737TIP3   OH229701   3.913   3.947   1.639  0.4761 -0.1736 -0.1107
 2737TIP3    H129702   3.823   3.941   1.609  0.4337  0.7047 -0.1856
 2737TIP3    H229703   3.948   4.024   1.594  0.2985  1.4106  2.3313
 2738TIP3   OH229704   0.454   4.697  17.083 -0.8939  0.1180 -0.7352
 2738TIP3    H129705   0.392   4.683  17.154  0.0819 -1.5268 -0.1668
 2738TIP3    H229706   0.401   4.724  17.009 -1.8745  2.4958  0.7715
 2739TIP3   OH229707   4.677   0.083   2.281  0.4641  0.0079  0.3365
 2739TIP3    H129708   4.668  -0.012   2.285  1.6908 -0.2554 -2.2561
 2739TIP3    H229709   4.636   0.108   2.198 -3.5197  2.2700  2.7978
 2740TIP3   OH229710   4.547   0.422   4.021 -0.6188 -0.1716  0.2515
 2740TIP3    H129711   4.606   0.424   4.097 -1.0675  0.2795  0.5885
 2740TIP3    H229712   4.540   0.513   3.994 -0.9947 -0.2507  0.0784
 2741TIP3   OH229713   4.296   0.471   6.115  0.4633 -0.2172  0.0046
 2741TIP3    H129714   4.299   0.488   6.210 -0.0767 -0.1854  0.0192
 2741TIP3    H229715   4.243   0.392   6.106  0.1564  0.0178 -0.2965
 2742TIP3   OH229716   5.064   5.888  11.692 -0.0660 -0.2028  0.0847
 2742TIP3    H129717   5.132   5.828  11.662  0.8463  0.8273  0.0755
 2742TIP3    H229718   4.994   5.879  11.628  0.5693 -0.3622 -0.5879
 2743TIP3   OH229719   5.310   3.954   5.336 -0.0785  0.0235 -0.2950
 2743TIP3    H129720   5.360   4.007   5.398 -0.3585 -0.4808  0.3543
 2743TIP3    H229721   5.244   4.014   5.301 -0.3343  0.1295  0.3725
 2744TIP3   OH229722   0.229   1.027  12.001  0.4425  0.2356 -0.2221
 2744TIP3    H129723   0.134   1.012  12.000  0.1731  1.5810  1.6303
 2744TIP3    H229724   0.244   1.088  11.929 -0.1568  0.2997 -0.2965
 2745TIP3   OH229725   6.564   1.335  15.773  0.0959 -0.2923 -0.1232
 2745TIP3    H129726   6.476   1.336  15.735 -0.7977 -0.4070  1.9058
 2745TIP3    H229727   6.609   1.264  15.727 -0.5265  0.4322 -1.9049
 2746TIP3   OH229728   0.088   1.517  10.898  0.3820  0.5852 -0.3326
 2746TIP3    H129729   0.096   1.530  10.803 -1.5012  1.4341 -0.4034
 2746TIP3    H229730   0.135   1.591  10.937 -1.6022  2.0602 -0.6585
 2747TIP3   OH229731   0.545   6.695   3.972  0.5209  0.2779  0.5086
 2747TIP3    H129732   0.623   6.697   4.027  0.7726 -1.5202  0.2615
 2747TIP3    H229733   0.482   6.641   4.020  0.0510  0.2988 -0.0689
 2748TIP3   OH229734   0.309   6.445   5.611  0.2694 -0.2092  0.4259
 2748TIP3    H129735   0.340   6.533   5.591  1.4844 -0.6925  0.1230
 2748TIP3    H229736   0.387   6.390   5.606 -0.8700 -1.7152 -1.8436
 2749TIP3   OH229737   4.088   4.072  15.211  0.0353  0.5169  0.1827
 2749TIP3    H129738   4.151   4.087  15.281  0.1841  1.8756 -0.2389
 2749TIP3    H229739   4.075   4.157  15.170 -0.9416 -0.0308 -0.7019
 2750TIP3   OH229740   3.325   0.681  14.765 -0.5448  0.1594  0.2364
 2750TIP3    H129741   3.350   0.695  14.674 -0.6075  0.8532  0.3227
 2750TIP3    H229742   3.390   0.730  14.816  0.2942 -1.3249  0.6296
 2751TIP3   OH229743   3.126   0.850   5.642  0.0555 -0.1336 -0.4152
 2751TIP3    H129744   3.045   0.901   5.642 -0.4389 -0.9061  0.1631
 2751TIP3    H229745   3.195   0.915   5.629 -0.6284  0.5757 -0.5547
 2752TIP3   OH229746   4.385   3.779   1.507 -0.0632  0.2589 -0.0115
 2752TIP3    H129747   4.294   3.760   1.526  0.3805 -1.7634  0.1670
 2752TIP3    H229748   4.383   3.827   1.424 -1.2717  0.2329 -0.0017
 2753TIP3   OH229749   5.328   0.595  12.937  0.1058 -0.0165  0.0631
 2753TIP3    H129750   5.284   0.549  13.009  2.3597  2.3252  3.0833
 2753TIP3    H229751   5.414   0.555  12.931 -0.3026 -0.6654 -1.8856
 2754TIP3   OH229752   6.412   6.511  13.807 -0.2863  0.4963  0.6350
 2754TIP3    H129753   6.362   6.574  13.859 -0.2635  0.8144  0.2823
 2754TIP3    H229754   6.486   6.487  13.862 -0.6253  0.3142  1.0100
 2755TIP3   OH229755   2.489   3.558  15.413  0.3203 -0.3255 -0.1386
 2755TIP3    H129756   2.397   3.538  15.394 -0.3834  2.2639  0.3718
 2755TIP3    H229757   2.500   3.534  15.505 -0.4315  1.3111  0.3905
 2756TIP3   OH229758   2.082   4.649   5.304  0.4983  0.3026 -0.1024
 2756TIP3    H129759   2.057   4.592   5.231  1.1311  1.1603 -1.0175
 2756TIP3    H229760   2.106   4.589   5.374  2.5207 -0.6364 -1.5132
 2757TIP3   OH229761   4.707   0.010   0.435  0.3203 -0.1583 -0.2023
 2757TIP3    H129762   4.653   0.006   0.356  1.5517  1.3423 -1.1501
 2757TIP3    H229763   4.756  -0.072   0.435  0.5129 -0.0434 -1.1491
 2758TIP3   OH229764   2.453   5.640  15.903  0.1821 -0.6360 -0.4178
 2758TIP3    H129765   2.502   5.617  15.982  0.4123  1.6620  0.1261
 2758TIP3    H229766   2.374   5.585  15.907  1.7293 -2.9235 -0.3005
 2759TIP3   OH229767   4.611   5.521  14.289  0.0958 -0.1121 -0.0555
 2759TIP3    H129768   4.600   5.483  14.376 -1.2760  3.4671  1.4383
 2759TIP3    H229769   4.702   5.551  14.287  0.5115 -1.3842 -0.3704
 2760TIP3   OH229770   1.800   2.944  17.184  0.1490 -0.4143  0.3332
 2760TIP3    H129771   1.823   2.880  17.117 -1.4948  0.8510 -1.4889
 2760TIP3    H229772   1.850   3.023  17.161 -0.7152  0.1512  0.3780
 2761TIP3   OH229773   5.152   5.260   3.193 -0.0784 -0.0367  0.3741
 2761TIP3    H129774   5.243   5.240   3.171  0.0759  0.8249  0.2154
 2761TIP3    H229775   5.145   5.236   3.285 -0.0716 -1.3926  0.0371
 2762TIP3   OH229776   1.558   5.604  15.846  0.1857  0.0106 -0.1228
 2762TIP3    H129777   1.520   5.519  15.826 -1.1270  1.0053 -2.0900
 2762TIP3    H229778   1.651   5.594  15.825 -0.2160 -0.5618 -1.7307
 2763TIP3   OH229779   4.305   2.967   0.527  0.3319  0.1631 -0.1489
 2763TIP3    H129780   4.300   3.007   0.440  0.9260 -1.1697 -0.7959
 2763TIP3    H229781   4.271   2.879   0.515 -0.0535  0.1425  1.0816
 2764TIP3   OH229782   5.350   3.286   0.567 -0.7507 -0.2859 -0.4217
 2764TIP3    H129783   5.439   3.283   0.601 -0.6449 -1.2491 -0.7635
 2764TIP3    H229784   5.295   3.297   0.645 -0.3902 -0.6071 -0.1178
 2765TIP3   OH229785   4.702   3.985  13.520  0.2633 -0.2325  0.1650
 2765TIP3    H129786   4.657   4.047  13.578  0.2923  1.1888 -1.3076
 2765TIP3    H229787   4.776   3.953  13.572  0.4037  1.1769  0.8421
 2766TIP3   OH229788   5.680   1.762   4.252 -0.4575 -0.4511  0.1427
 2766TIP3    H129789   5.609   1.723   4.303  0.7331 -0.3145  1.9312
 2766TIP3    H229790   5.753   1.701   4.263  0.2962  0.4046 -0.0876
 2767TIP3   OH229791   2.506   2.577  11.584  0.3250  0.3289 -0.2387
 2767TIP3    H129792   2.529   2.668  11.568  1.1828 -0.0712 -1.3547
 2767TIP3    H229793   2.443   2.555  11.516  0.6238 -0.0975 -0.3792
 2768TIP3   OH229794   6.649   1.884   4.233 -0.5128  0.7378 -0.2644
 2768TIP3    H129795   6.612   1.826   4.300 -0.5952 -0.0311 -0.9793
 2768TIP3    H229796   6.651   1.832   4.154  2.4845  0.6672 -0.1627
 2769TIP3   OH229797   5.737   6.438  13.260  0.0170  0.3205  0.5147
 2769TIP3    H129798   5.769   6.495  13.189 -0.9297  2.2593  1.5966
 2769TIP3    H229799   5.809   6.437  13.323  0.2869 -0.2252  0.2046
 2770TIP3   OH229800   0.542   0.056   3.099  0.5378 -0.4873 -0.1849
 2770TIP3    H129801   0.485   0.072   3.023 -0.5476 -1.3071  0.4383
 2770TIP3    H229802   0.616   0.007   3.064  0.8810  0.5886 -1.0037
 2771TIP3   OH229803   4.518   1.707   3.131  0.1008 -0.2437  0.5713
 2771TIP3    H129804   4.459   1.640   3.165 -1.0424  0.9290  0.9577
 2771TIP3    H229805   4.538   1.679   3.042 -1.3436 -0.4820  0.3023
 2772TIP3   OH229806   6.592   4.073  15.127  0.6231  0.6945 -0.1911
 2772TIP3    H129807   6.647   3.996  15.136 -0.7602 -0.3011 -0.1420
 2772TIP3    H229808   6.535   4.071  15.204 -4.6379 -2.4943 -3.8628
 2773TIP3   OH229809   1.659   0.323   4.166  0.2430 -0.0726 -0.1147
 2773TIP3    H129810   1.574   0.328   4.209  0.2372 -0.0115 -0.1325
 2773TIP3    H229811   1.716   0.380   4.219  0.6506 -1.3004  0.7712
 2774TIP3   OH229812   6.688   3.798  16.667 -0.1816 -0.5944  0.1116
 2774TIP3    H129813   6.625   3.779  16.737 -1.3423  1.6222 -0.2851
 2774TIP3    H229814   6.739   3.872  16.701 -1.1062  0.8517 -1.5725
 2775TIP3   OH229815   5.577   0.500  13.910  0.1368 -0.0974  0.0292
 2775TIP3    H129816   5.595   0.413  13.945 -0.6410  0.2128  1.2178
 2775TIP3    H229817   5.517   0.540  13.973 -0.0758  1.0405 -0.8686
 2776TIP3   OH229818   6.748   2.194  11.613 -1.2180  0.6701 -0.4992
 2776TIP3    H129819   6.734   2.100  11.599  1.5329  0.0095  0.8008
 2776TIP3    H229820   6.773   2.227  11.527  1.1694 -0.4919 -0.2901
 2777TIP3   OH229821   3.445   0.348   1.015  0.7814 -0.5019 -0.8406
 2777TIP3    H129822   3.370   0.355   0.956 -0.4073 -1.1204  0.5580
 2777TIP3    H229823   3.450   0.434   1.058  0.8168 -0.4901 -0.8686
 2778TIP3   OH229824   2.852   0.991  13.088  0.1307 -0.2894  0.4145
 2778TIP3    H129825   2.900   0.919  13.128  1.5051 -0.0832 -0.8596
 2778TIP3    H229826   2.891   1.002  13.002 -0.2160  1.8358  0.5046
 2779TIP3   OH229827   0.260   2.315   0.648 -0.2151 -0.3341  0.7976
 2779TIP3    H129828   0.305   2.400   0.653 -1.0777  0.0745  1.7524
 2779TIP3    H229829   0.330   2.251   0.653  0.4128  0.3141  0.4946
 2780TIP3   OH229830   0.748   6.069   3.022 -0.5184  0.0925 -0.2408
 2780TIP3    H129831   0.668   6.026   2.992 -0.1004 -0.5813 -0.3788
 2780TIP3    H229832   0.725   6.162   3.024 -1.7602 -0.2107  1.1006
 2781TIP3   OH229833   0.441   5.237   4.335 -0.1360 -0.2101  0.4178
 2781TIP3    H129834   0.392   5.193   4.266 -0.5169 -0.9078  1.1175
 2781TIP3    H229835   0.428   5.330   4.319 -0.0517 -0.3667 -0.5687
 2782TIP3   OH229836   4.148   1.726  17.118  0.6135  0.5831  0.1201
 2782TIP3    H129837   4.063   1.685  17.102  0.7421  0.3309  0.0880
 2782TIP3    H229838   4.200   1.705  17.040  0.1641  2.1440 -0.6301
 2783TIP3   OH229839   2.674   0.989   2.964 -0.0449  0.3333  0.6890
 2783TIP3    H129840   2.607   0.938   3.009  0.3844 -0.3315  0.5923
 2783TIP3    H229841   2.757   0.953   2.996  0.2692 -0.4376 -0.9343
 2784TIP3   OH229842   0.819   6.102   4.891  0.2080 -0.0657 -0.1539
 2784TIP3    H129843   0.819   6.134   4.981  2.2172  0.7022 -0.4164
 2784TIP3    H229844   0.875   6.025   4.893 -1.4159 -1.2753 -0.3425
 2785TIP3   OH229845   6.306   5.868  16.646 -0.2945  0.0362  0.5203
 2785TIP3    H129846   6.220   5.825  16.655 -1.0201  1.5018  0.6692
 2785TIP3    H229847   6.288   5.949  16.598  1.5504 -1.2899 -2.5967
 2786TIP3   OH229848   3.593   4.197   4.927 -0.1383 -0.7572  0.4073
 2786TIP3    H129849   3.661   4.206   4.994 -1.1900 -0.0084  1.3878
 2786TIP3    H229850   3.550   4.114   4.947  0.9785 -1.6287 -0.6948
 2787TIP3   OH229851   5.337   0.324  13.318  0.1183 -0.3790 -0.6226
 2787TIP3    H129852   5.392   0.392  13.279  0.9830 -0.4398  0.4734
 2787TIP3    H229853   5.329   0.257  13.250 -0.3008  0.5649 -1.5236
 2788TIP3   OH229854   3.882   4.412  10.483 -0.3671 -0.3942  0.4691
 2788TIP3    H129855   3.878   4.508  10.483 -1.2895 -0.4237 -0.5891
 2788TIP3    H229856   3.825   4.386  10.411  2.8830 -1.6287 -1.7692
 2789TIP3   OH229857   2.749   4.061   0.800  0.0018 -0.2180  0.3376
 2789TIP3    H129858   2.841   4.045   0.820 -0.0766 -2.0268 -0.6806
 2789TIP3    H229859   2.744   4.155   0.785  1.4756  0.0532  1.3963
 2790TIP3   OH229860   3.067   4.113   1.560 -0.1967 -0.2236  0.2101
 2790TIP3    H129861   3.008   4.072   1.624 -1.2097 -1.0463 -1.2388
 2790TIP3    H229862   3.143   4.054   1.558  1.5367  1.7344  3.3630
 2791TIP3   OH229863   5.130   6.052   3.921  0.0638 -0.5278 -0.1796
 2791TIP3    H129864   5.130   6.115   3.992  1.4965 -0.4523 -0.2259
 2791TIP3    H229865   5.074   5.981   3.951  0.3676 -0.3296  0.8673
 2792TIP3   OH229866   3.325   4.326   1.060 -0.0833  0.3475 -1.1860
 2792TIP3    H129867   3.290   4.363   1.141 -0.1792  0.9042 -1.4775
 2792TIP3    H229868   3.264   4.354   0.992  0.7037  1.0018 -1.6396
 2793TIP3   OH229869   3.529   5.462   3.980  0.0870  0.1576  0.0427
 2793TIP3    H129870   3.448   5.416   4.002  0.0412  0.9306  1.5067
 2793TIP3    H229871   3.591   5.392   3.960 -0.4156 -0.4929  0.7413
 2794TIP3   OH229872   1.630   4.077  15.304  0.3306 -0.0941  0.1632
 2794TIP3    H129873   1.542   4.106  15.329  0.3234  1.2489 -1.3046
 2794TIP3    H229874   1.683   4.156  15.304  1.3166 -0.7387  0.0812
 2795TIP3   OH229875   1.306   0.715   1.333 -0.0456 -0.0019  0.2954
 2795TIP3    H129876   1.356   0.763   1.399  0.4551 -0.3535  0.1774
 2795TIP3    H229877   1.216   0.746   1.344  0.1754  0.5584  0.5830
 2796TIP3   OH229878   3.976   3.589   4.246  0.5141 -0.4924  0.0034
 2796TIP3    H129879   4.057   3.567   4.292  0.5427 -1.0859 -0.3337
 2796TIP3    H229880   3.923   3.510   4.250 -0.9502  0.5532  2.0819
 2797TIP3   OH229881   5.550   5.442   0.674  0.6754  0.0974 -0.1372
 2797TIP3    H129882   5.642   5.424   0.655  0.4992  0.6061 -1.5904
 2797TIP3    H229883   5.502   5.370   0.633  0.3454  0.6724 -0.7870
 2798TIP3   OH229884   5.111   2.830   0.241 -0.5149  0.1740 -0.0121
 2798TIP3    H129885   5.027   2.785   0.235 -0.0716 -0.8370  1.1572
 2798TIP3    H229886   5.112   2.869   0.329 -0.5474  1.7928 -0.7050
 2799TIP3   OH229887   1.127   6.378  11.475 -0.1636 -0.3631  0.0045
 2799TIP3    H129888   1.033   6.359  11.485 -0.0699 -0.6984  0.2414
 2799TIP3    H229889   1.154   6.412  11.560  0.1100 -1.0228  0.1847
 2800TIP3   OH229890   4.344   0.957   2.213 -0.1316  0.3159  0.1435
 2800TIP3    H129891   4.376   0.939   2.301 -0.7066  0.4394  0.3773
 2800TIP3    H229892   4.422   0.948   2.157  0.4752  1.3372  0.8029
 2801TIP3   OH229893   6.431   6.803  16.817  0.8548 -0.0571 -0.0393
 2801TIP3    H129894   6.378   6.751  16.876  0.3362 -0.6865 -1.0451
 2801TIP3    H229895   6.502   6.837  16.872  0.4237 -0.6875  0.9190
 2802TIP3   OH229896   0.314   6.628  13.731 -0.2489 -0.3893  0.4143
 2802TIP3    H129897   0.338   6.590  13.815  0.9857 -0.4743  0.0343
 2802TIP3    H229898   0.255   6.701  13.752  1.0855  0.4031  1.4182
 2803TIP3   OH229899   3.687   2.043  13.179  0.3858 -0.3383 -0.3865
 2803TIP3    H129900   3.660   2.123  13.225 -0.6380 -0.4913 -0.7004
 2803TIP3    H229901   3.780   2.055  13.162  0.8406 -0.4248  1.9896
 2804TIP3   OH229902   0.148   1.779   1.078  0.0526  0.3627  0.8684
 2804TIP3    H129903   0.167   1.832   1.001 -1.7264  0.5937  0.5721
 2804TIP3    H229904   0.108   1.840   1.140  0.3106 -0.0959  1.4923
 2805TIP3   OH229905   1.768   0.248  14.472  0.5384  0.2693 -0.6159
 2805TIP3    H129906   1.755   0.319  14.535  0.8942  1.8830 -2.2866
 2805TIP3    H229907   1.821   0.288  14.402  1.2788 -1.8335 -1.2916
 2806TIP3   OH229908   0.263   5.656   1.940 -0.1547  0.0923 -0.6815
 2806TIP3    H129909   0.354   5.654   1.971  0.4391  1.4187 -2.2694
 2806TIP3    H229910   0.221   5.724   1.994 -0.4995 -1.2429  0.7684
 2807TIP3   OH229911   3.182   5.404   0.571  0.1036 -0.4917  0.1181
 2807TIP3    H129912   3.117   5.403   0.641  0.4326 -3.8955  0.4562
 2807TIP3    H229913   3.136   5.439   0.495 -0.9439  0.9576  1.4023
 2808TIP3   OH229914   6.013   3.005  13.488 -0.2819 -0.9063  0.1032
 2808TIP3    H129915   5.940   2.966  13.440  1.4123 -2.8873 -0.9360
 2808TIP3    H229916   5.972   3.070  13.545 -2.7389 -1.2606 -1.1950
 2809TIP3   OH229917   0.842   0.598  16.778  0.3180  0.3987  0.0191
 2809TIP3    H129918   0.865   0.612  16.686  1.0992 -1.4017 -0.0916
 2809TIP3    H229919   0.887   0.669  16.825  1.0335  0.5380 -0.8534
 2810TIP3   OH229920   5.214   2.424  13.080 -0.1263 -0.0855  0.7144
 2810TIP3    H129921   5.276   2.483  13.122 -2.0116  1.5284  1.3443
 2810TIP3    H229922   5.146   2.410  13.146 -0.9644 -0.9365 -0.3086
 2811TIP3   OH229923   4.552   4.614  15.962 -0.3803  0.2671  0.5339
 2811TIP3    H129924   4.506   4.569  16.034 -0.1892  1.6847  1.5617
 2811TIP3    H229925   4.618   4.551  15.933 -2.6662 -1.6339 -0.6713
 2812TIP3   OH229926   1.101   6.818  12.184 -0.1132 -0.4557 -0.3456
 2812TIP3    H129927   1.134   6.906  12.166 -0.0651 -0.6095 -1.0137
 2812TIP3    H229928   1.054   6.793  12.104 -1.5570 -0.3814  0.4635
 2813TIP3   OH229929   2.039   5.103  15.142 -0.2726  0.2990  0.3188
 2813TIP3    H129930   2.063   5.177  15.087  1.1616 -0.3968 -0.0112
 2813TIP3    H229931   2.122   5.058  15.160 -1.3578 -2.5772 -1.4270
 2814TIP3   OH229932   6.503   1.963  16.898 -0.5084  0.0236 -0.0530
 2814TIP3    H129933   6.582   1.985  16.850 -0.5273  1.3635  0.5019
 2814TIP3    H229934   6.486   1.872  16.876  0.5506  0.0589 -1.0663
 2815TIP3   OH229935   4.683   1.076  13.972  0.1554  0.0402 -0.1155
 2815TIP3    H129936   4.695   1.106  13.881 -1.3419 -0.8981 -0.6410
 2815TIP3    H229937   4.589   1.079  13.986  0.2407 -1.3503  0.8852
 2816TIP3   OH229938   1.083   6.136   1.916 -0.4201  0.3282 -0.4062
 2816TIP3    H129939   1.140   6.087   1.857 -0.8594  0.0051 -0.5703
 2816TIP3    H229940   0.999   6.141   1.870 -0.6885  0.3074  0.0703
 2817TIP3   OH229941   3.669   3.915  17.100 -0.8966 -0.0740  0.7983
 2817TIP3    H129942   3.605   3.963  17.047 -2.5621 -1.5166  1.4695
 2817TIP3    H229943   3.631   3.914  17.188  1.4925  1.6576  1.9070
 2818TIP3   OH229944   2.073   3.583  16.348  0.1329 -0.1914  0.3137
 2818TIP3    H129945   2.070   3.576  16.252  1.4729  0.9070  0.1750
 2818TIP3    H229946   2.079   3.493  16.378 -2.3511 -0.6842 -0.5262
 2819TIP3   OH229947   3.925   5.230   1.143  0.6731 -0.1777  0.3199
 2819TIP3    H129948   3.949   5.284   1.218  1.1351  1.1983 -0.8049
 2819TIP3    H229949   3.832   5.212   1.155  0.1718  2.0728 -0.0266
 2820TIP3   OH229950   5.856   2.418  15.383  0.1733  0.1507 -0.4528
 2820TIP3    H129951   5.784   2.400  15.322  0.8488  3.2147 -2.3098
 2820TIP3    H229952   5.820   2.400  15.469 -3.2224  2.5903 -1.2527
 2821TIP3   OH229953   3.222   3.643  11.649 -0.1745  0.0011 -0.2139
 2821TIP3    H129954   3.307   3.616  11.613 -0.3120  0.2615 -0.7405
 2821TIP3    H229955   3.215   3.736  11.627  0.1887  0.4306  1.3661
 2822TIP3   OH229956   2.921   5.285   2.499 -0.4048  0.2280  0.2191
 2822TIP3    H129957   2.939   5.247   2.585 -0.8200  1.1853  0.7436
 2822TIP3    H229958   2.958   5.373   2.503 -3.4233  1.5314  0.6491
 2823TIP3   OH229959   6.764   1.115  12.885  0.0140 -0.2503  0.1929
 2823TIP3    H129960   6.765   1.059  12.962  2.0690 -0.8437 -0.2172
 2823TIP3    H229961   6.856   1.120  12.858 -0.2887  2.2715 -0.5444
 2824TIP3   OH229962   4.462   2.379   4.783 -0.0969  0.3784 -0.7243
 2824TIP3    H129963   4.402   2.436   4.735  0.1647  1.3744  0.1046
 2824TIP3    H229964   4.405   2.320   4.833 -0.4067  1.3831  0.1374
 2825TIP3   OH229965   5.803   2.708  11.452  0.3575 -0.0619  0.1040
 2825TIP3    H129966   5.770   2.759  11.526  1.0832 -0.4160  0.6902
 2825TIP3    H229967   5.754   2.626  11.455  0.7957 -0.3100  0.5509
 2826TIP3   OH229968   1.812   3.845  13.875 -0.4688  0.1269  1.1310
 2826TIP3    H129969   1.865   3.862  13.797  0.5478  1.6149  2.1231
 2826TIP3    H229970   1.871   3.798  13.934 -1.1354 -0.6983  1.1582
 2827TIP3   OH229971   4.948   6.221  15.759 -0.2539  0.5480  0.6976
 2827TIP3    H129972   4.985   6.300  15.720  1.3515 -1.2311 -1.4928
 2827TIP3    H229973   4.966   6.152  15.696 -2.0716 -1.5049  2.3361
 2828TIP3   OH229974   5.787   4.435   1.218  0.4984  0.0326 -0.5615
 2828TIP3    H129975   5.822   4.451   1.306 -0.9900  2.5993 -0.3654
 2828TIP3    H229976   5.855   4.466   1.159  0.4261  0.8080 -0.2502
 2829TIP3   OH229977   0.592   2.068   5.705 -0.1068  0.3781  0.3151
 2829TIP3    H129978   0.537   1.996   5.674  2.1703 -1.0778 -0.3922
 2829TIP3    H229979   0.542   2.147   5.683 -0.3722 -0.7743 -3.4849
 2830TIP3   OH229980   1.347   1.280   2.727 -0.4276  0.0489  0.3739
 2830TIP3    H129981   1.434   1.264   2.762 -0.0511 -0.3166 -0.7138
 2830TIP3    H229982   1.302   1.329   2.796  1.4576  2.5340 -0.0857
 2831TIP3   OH229983   5.983   0.231  16.110  0.0161 -0.2625  0.1321
 2831TIP3    H129984   5.965   0.146  16.150 -0.9535  0.3590  1.0424
 2831TIP3    H229985   5.925   0.235  16.034 -1.4742  0.4360  1.2775
 2832TIP3   OH229986   5.848   4.969   0.783  0.0943 -0.0678 -0.0954
 2832TIP3    H129987   5.843   5.055   0.826  3.1431  0.5369 -0.8230
 2832TIP3    H229988   5.896   4.914   0.845 -1.7437 -1.2476  0.3166
 2833TIP3   OH229989   3.714   1.199   5.768  0.4131 -0.1528 -0.9430
 2833TIP3    H129990   3.702   1.110   5.736  1.5643 -0.4126 -0.7031
 2833TIP3    H229991   3.809   1.210   5.774  0.2637 -0.1398  2.3939
 2834TIP3   OH229992   0.035   3.687  15.473 -0.3040  0.1210 -0.0466
 2834TIP3    H129993   0.119   3.675  15.518 -0.1051 -2.0948 -0.9815
 2834TIP3    H229994   0.056   3.686  15.380 -0.9512  2.9995 -0.2848
 2835TIP3   OH229995   1.586   4.711  10.495  0.3337 -0.5440 -0.4600
 2835TIP3    H129996   1.668   4.694  10.449  1.0742  1.3389  0.0912
 2835TIP3    H229997   1.571   4.805  10.482 -0.8664 -0.5425  0.8240
 2836TIP3   OH229998   5.304   6.580  12.234  0.5543 -0.3853 -0.2233
 2836TIP3    H129999   5.348   6.661  12.261  1.4639 -0.0263 -2.6046
 2836TIP3    H230000   5.361   6.510  12.266  0.5846 -0.0330  0.4927
 2837TIP3   OH230001   4.364   0.613  13.812 -0.1451 -0.5650 -0.6856
 2837TIP3    H130002   4.357   0.693  13.760 -2.4363 -0.5489 -0.3972
 2837TIP3    H230003   4.273   0.587  13.829  0.4864 -4.4132 -2.5775
 2838TIP3   OH230004   4.269   3.173  13.335 -0.1210  0.5013  0.0417
 2838TIP3    H130005   4.331   3.224  13.283  0.2015  1.7829  1.6665
 2838TIP3    H230006   4.320   3.142  13.410 -1.1873  0.7036  0.8624
 2839TIP3   OH230007   1.317   4.268  14.024 -0.6424  0.2380  0.2418
 2839TIP3    H130008   1.229   4.256  13.987 -0.0428 -2.0224 -0.5089
 2839TIP3    H230009   1.374   4.272  13.947 -0.1508  2.6017  0.6830
 2840TIP3   OH230010   2.195   2.584  15.173 -0.0793  0.9233  0.1438
 2840TIP3    H130011   2.238   2.606  15.256 -0.5844  0.4571  0.5352
 2840TIP3    H230012   2.224   2.652  15.113  2.1382 -0.0454  0.0767
 2841TIP3   OH230013   4.987   5.784  16.521 -0.2000 -0.3456 -0.3264
 2841TIP3    H130014   5.056   5.850  16.514  0.0190 -0.6695 -1.2340
 2841TIP3    H230015   5.032   5.704  16.547 -0.4503 -0.1768  0.6556
 2842TIP3   OH230016   3.514   6.121  14.206 -0.1291  0.2635  0.1316
 2842TIP3    H130017   3.531   6.199  14.258 -1.6477  1.8459 -1.6895
 2842TIP3    H230018   3.571   6.130  14.129  0.1402 -0.7351  0.2001
 2843TIP3   OH230019   0.643   2.600   0.534  0.4486  0.0321  0.1480
 2843TIP3    H130020   0.657   2.530   0.598 -1.2699 -0.8738 -0.4203
 2843TIP3    H230021   0.717   2.659   0.546  2.3130 -2.2454  0.1644
 2844TIP3   OH230022   2.173   4.862   4.649 -0.7669  0.3292 -0.1926
 2844TIP3    H130023   2.259   4.825   4.629  0.0511  0.4800  2.7996
 2844TIP3    H230024   2.178   4.952   4.617  0.5259  0.5887  0.6702
 2845TIP3   OH230025   4.058   5.247  13.924  0.8810 -0.4488 -0.4554
 2845TIP3    H130026   4.068   5.332  13.881 -0.8807 -0.4635 -0.9341
 2845TIP3    H230027   4.056   5.184  13.852  0.6074 -0.7431 -0.1900
 2846TIP3   OH230028   4.311   2.336   5.587  0.0368 -0.5659 -0.2044
 2846TIP3    H130029   4.315   2.290   5.503 -2.0333  2.1746 -1.8781
 2846TIP3    H230030   4.334   2.269   5.652 -0.5437 -3.3339 -2.7405
 2847TIP3   OH230031   6.449   4.243   1.592  0.2996 -0.0721  0.0502
 2847TIP3    H130032   6.394   4.319   1.571 -0.5645 -0.8186 -0.4674
 2847TIP3    H230033   6.399   4.168   1.558  1.9050 -0.7282 -0.9275
 2848TIP3   OH230034   1.367   5.760  11.049  0.3846  0.1052  0.3995
 2848TIP3    H130035   1.448   5.804  11.025  0.8333 -1.2515 -0.6469
 2848TIP3    H230036   1.395   5.680  11.092 -0.3967 -0.3590  0.0549
 2849TIP3   OH230037   3.632   6.047  14.832  0.2741 -0.3310  0.1264
 2849TIP3    H130038   3.604   6.120  14.776  0.0034 -0.2589  0.3517
 2849TIP3    H230039   3.562   5.982  14.823  0.2242 -0.3139  0.3918
 2850TIP3   OH230040   5.435   4.895  13.978 -0.9362  0.0184  0.1251
 2850TIP3    H130041   5.390   4.973  13.945 -1.0702  0.0799  0.4494
 2850TIP3    H230042   5.408   4.825  13.919  0.0125  0.4254 -0.8045
 2851TIP3   OH230043   4.580   0.582  12.577 -0.2000  0.2874 -0.1305
 2851TIP3    H130044   4.651   0.588  12.512  0.1672 -0.1008  0.2339
 2851TIP3    H230045   4.508   0.632  12.538 -0.7896 -1.8653 -1.8830
 2852TIP3   OH230046   3.194   3.214  10.958  0.0468 -0.4193 -0.7715
 2852TIP3    H130047   3.247   3.134  10.966  0.5729 -0.1329 -1.3632
 2852TIP3    H230048   3.104   3.183  10.962  0.2258 -1.2270 -2.4622
 2853TIP3   OH230049   5.696   0.926  13.224 -0.1702 -0.2631 -0.0761
 2853TIP3    H130050   5.623   0.890  13.173 -0.0239 -1.3161  0.4460
 2853TIP3    H230051   5.763   0.946  13.159 -0.6507  0.0558 -0.4833
 2854TIP3   OH230052   2.154   5.470  12.306  0.0863 -0.7842 -0.5467
 2854TIP3    H130053   2.101   5.395  12.334  0.3854 -0.7406  0.1435
 2854TIP3    H230054   2.233   5.465  12.359  0.2196 -0.1146 -0.6760
 2855TIP3   OH230055   0.773   0.802   3.165  0.3717 -0.1693  0.1957
 2855TIP3    H130056   0.820   0.724   3.135 -0.2434  0.0392 -1.3480
 2855TIP3    H230057   0.798   0.870   3.103 -0.7816  0.3215  0.2634
 2856TIP3   OH230058   2.052   3.406  16.775 -0.0578 -0.2839 -0.0531
 2856TIP3    H130059   2.049   3.482  16.717 -2.6491 -1.6882 -1.9055
 2856TIP3    H230060   2.029   3.439  16.861  0.9672  1.3719 -0.4010
 2857TIP3   OH230061   1.096   2.410   1.692  0.1281  0.1023 -0.1162
 2857TIP3    H130062   1.055   2.328   1.719  0.3610 -0.1509 -0.5165
 2857TIP3    H230063   1.066   2.475   1.756  0.4882 -0.4363  0.6034
 2858TIP3   OH230064   1.529   2.184   0.862 -0.3663  0.3037 -0.0315
 2858TIP3    H130065   1.553   2.115   0.924 -0.6190  0.6095  0.4144
 2858TIP3    H230066   1.465   2.143   0.804 -1.5155  0.5211  1.0527
 2859TIP3   OH230067   6.056   2.846   4.187  0.2907 -0.0763 -0.2384
 2859TIP3    H130068   5.963   2.829   4.203  0.3580  0.4080  0.7529
 2859TIP3    H230069   6.075   2.801   4.105 -0.2375 -2.3027  0.8087
 2860TIP3   OH230070   2.446   0.531  10.450 -0.2248  0.2142 -1.2165
 2860TIP3    H130071   2.383   0.600  10.472  0.0202  0.2854 -0.7323
 2860TIP3    H230072   2.509   0.574  10.392 -1.6864 -0.3419 -3.2898
 2861TIP3   OH230073   1.406   4.304  11.831 -0.1306  0.1626  0.0686
 2861TIP3    H130074   1.412   4.299  11.736 -0.6437  1.4104 -0.0442
 2861TIP3    H230075   1.481   4.357  11.857 -0.1959  0.1274  0.3296
 2862TIP3   OH230076   1.219   0.251  14.746  0.1719 -0.0006  0.6503
 2862TIP3    H130077   1.267   0.333  14.755 -0.3503  0.2208  1.3784
 2862TIP3    H230078   1.247   0.198  14.821 -0.2166 -0.1256  0.7081
 2863TIP3   OH230079   5.965   2.360  14.615 -0.1257  0.5692  0.7347
 2863TIP3    H130080   5.927   2.418  14.681 -0.5509  1.3954 -0.2225
 2863TIP3    H230081   5.899   2.354  14.546 -0.6019 -2.0566  1.3727
 2864TIP3   OH230082   3.266   5.827  12.882 -0.1701  0.2596  0.0396
 2864TIP3    H130083   3.280   5.735  12.903  0.5743  0.2831 -0.3417
 2864TIP3    H230084   3.179   5.846  12.917 -0.3799 -0.6170  0.0197
 2865TIP3   OH230085   5.768   6.518   5.548 -0.2404 -0.4994  0.8870
 2865TIP3    H130086   5.692   6.568   5.577 -0.2409 -0.9748  1.7265
 2865TIP3    H230087   5.748   6.428   5.572  0.2940 -0.7283  0.4866
 2866TIP3   OH230088   3.361   3.890   1.234  0.3337  0.3922  0.4245
 2866TIP3    H130089   3.382   3.944   1.310  0.3588  1.1035 -0.0850
 2866TIP3    H230090   3.435   3.830   1.226  0.0205 -0.1225  1.3562
 2867TIP3   OH230091   6.531   2.448  12.952 -0.3957 -0.6583  0.6356
 2867TIP3    H130092   6.618   2.486  12.951 -0.8189  0.4362 -3.7410
 2867TIP3    H230093   6.546   2.353  12.946  0.5291 -0.4101 -1.4456
 2868TIP3   OH230094   3.624   2.169   3.677  0.4699 -0.6529  0.2694
 2868TIP3    H130095   3.532   2.156   3.700  0.2856 -0.2232 -0.2168
 2868TIP3    H230096   3.641   2.104   3.609  0.3290 -0.2574 -0.1453
 2869TIP3   OH230097   1.993   0.053   1.488  0.4145 -0.0879  0.1231
 2869TIP3    H130098   1.950   0.018   1.566  1.3068 -2.0809 -0.2551
 2869TIP3    H230099   2.041  -0.021   1.451 -1.3821  0.3196 -3.2824
 2870TIP3   OH230100   1.033   0.549   4.337 -0.2543  0.2381 -0.7648
 2870TIP3    H130101   0.943   0.546   4.368  0.3050 -1.4133  0.8085
 2870TIP3    H230102   1.047   0.464   4.296  0.4042  0.7149 -1.5425
 2871TIP3   OH230103   2.357   2.903   1.797 -0.1004 -0.2660 -0.1941
 2871TIP3    H130104   2.390   2.981   1.842 -1.5017 -0.2089  0.7863
 2871TIP3    H230105   2.329   2.845   1.868 -1.3695 -0.6232 -0.9615
 2872TIP3   OH230106   6.458   6.408  13.557 -0.1406  0.0948 -0.3359
 2872TIP3    H130107   6.405   6.443  13.629 -1.2247 -1.1618 -0.4998
 2872TIP3    H230108   6.548   6.428  13.582 -0.6885  2.8360 -0.3398
 2873TIP3   OH230109   2.804   4.553   4.836  0.3505  0.1291 -0.4490
 2873TIP3    H130110   2.884   4.523   4.878  0.5696  1.4814  0.1326
 2873TIP3    H230111   2.741   4.563   4.907  0.4769  1.6377 -0.5208
 2874TIP3   OH230112   1.170   1.857   1.695 -0.4712  0.0460  0.1809
 2874TIP3    H130113   1.110   1.852   1.621  1.1501  0.9991 -1.2482
 2874TIP3    H230114   1.230   1.783   1.683 -0.2126  0.1916  0.5468
 2875TIP3   OH230115   3.965   3.820   0.565 -0.3292  0.5271  0.1438
 2875TIP3    H130116   3.917   3.836   0.484 -0.2473  0.2125  0.0340
 2875TIP3    H230117   4.009   3.903   0.584 -0.1512  0.5258 -0.2625
 2876TIP3   OH230118   4.344   0.616   1.916 -0.4373  0.3055  0.5679
 2876TIP3    H130119   4.302   0.699   1.939 -2.1497 -0.8221  1.6482
 2876TIP3    H230120   4.338   0.563   1.995  2.8678 -0.0124  0.6734
 2877TIP3   OH230121   2.802   6.332  14.040 -0.2995 -0.3205  0.2236
 2877TIP3    H130122   2.736   6.315  13.973  0.9255  0.9923 -1.3392
 2877TIP3    H230123   2.871   6.268  14.022  0.3857  0.5484 -0.2786
 2878TIP3   OH230124   4.517   1.956   4.041  0.2633  0.0409  0.2476
 2878TIP3    H130125   4.466   1.923   3.967  2.4669 -0.6515 -1.0056
 2878TIP3    H230126   4.453   2.002   4.096 -1.6377 -0.5770 -1.4031
 2879TIP3   OH230127   3.209   3.936   4.575 -0.1206 -0.1254 -0.3749
 2879TIP3    H130128   3.191   3.916   4.667  0.2715  0.1928 -0.2283
 2879TIP3    H230129   3.259   4.017   4.578  0.5949 -0.5530 -0.8367
 2880TIP3   OH230130   6.410   1.845   6.270 -0.3095 -0.0527  0.0991
 2880TIP3    H130131   6.497   1.883   6.263  0.4520 -1.8004  0.0514
 2880TIP3    H230132   6.417   1.778   6.337 -1.9306  0.6170  0.9722
 2881TIP3   OH230133   4.955   6.701   0.466 -0.2915  0.2658  0.0888
 2881TIP3    H130134   5.047   6.681   0.481 -0.3140  0.0499 -0.0413
 2881TIP3    H230135   4.944   6.691   0.371 -0.1052  1.7932 -0.1067
 2882TIP3   OH230136   6.255   5.629  13.951  0.7541 -0.4922 -0.3703
 2882TIP3    H130137   6.298   5.710  13.922  3.0694 -1.1525  1.1260
 2882TIP3    H230138   6.259   5.633  14.046 -0.3981 -1.7299 -0.2535
 2883TIP3   OH230139   5.551   3.602   3.896  0.0864 -0.3492  0.4170
 2883TIP3    H130140   5.614   3.644   3.955  0.9955  0.2787 -0.9665
 2883TIP3    H230141   5.466   3.636   3.923  0.5224  0.1564  1.1703
 2884TIP3   OH230142   3.001   2.655   6.559 -0.1712 -0.1776  0.2292
 2884TIP3    H130143   3.074   2.602   6.591  0.4709 -0.8148 -2.1650
 2884TIP3    H230144   3.041   2.738   6.534 -0.0280 -0.8541 -1.9638
 2885TIP3   OH230145   4.685   5.124   4.155  0.1661  0.2354 -0.2208
 2885TIP3    H130146   4.685   5.181   4.233  1.9706 -0.1011  0.0501
 2885TIP3    H230147   4.736   5.047   4.182  0.0466 -0.2830 -1.4557
 2886TIP3   OH230148   4.736   6.678  10.628  0.0703 -0.7684 -0.6203
 2886TIP3    H130149   4.744   6.583  10.614  1.6351 -0.8876  0.9194
 2886TIP3    H230150   4.819   6.714  10.597  0.3391 -0.1457  0.8066
 2887TIP3   OH230151   0.227   2.574   4.827  0.6215 -0.2159  0.4212
 2887TIP3    H130152   0.246   2.549   4.737  0.1825  2.8207 -0.5956
 2887TIP3    H230153   0.295   2.638   4.849  0.1431 -0.1862  1.8935
 2888TIP3   OH230154   5.594   5.167   0.895 -0.0002  0.3212  0.1600
 2888TIP3    H130155   5.571   5.108   0.823  0.4942  0.4293 -0.0879
 2888TIP3    H230156   5.552   5.250   0.872 -2.9241 -0.6138  1.8029
 2889TIP3   OH230157   4.414   3.101  16.574  0.6839  0.3139 -0.1324
 2889TIP3    H130158   4.492   3.058  16.611  0.1578 -0.8529 -0.3682
 2889TIP3    H230159   4.343   3.040  16.591  0.0971  0.6493 -1.3815
 2890TIP3   OH230160   3.284   5.720  15.065  0.3456 -0.5844 -0.0642
 2890TIP3    H130161   3.191   5.727  15.044  0.5705  0.9706 -0.5908
 2890TIP3    H230162   3.327   5.704  14.981  0.5431 -1.5544  0.2092
 2891TIP3   OH230163   6.158   0.562   1.748  0.5366 -0.0168 -0.3040
 2891TIP3    H130164   6.173   0.516   1.831 -1.1857  0.7987  0.4963
 2891TIP3    H230165   6.224   0.632   1.748  1.4014 -0.8229 -0.2502
 2892TIP3   OH230166   4.770   3.834   2.717  0.0380 -0.0419 -0.0817
 2892TIP3    H130167   4.803   3.882   2.793  0.9344 -0.6041 -0.1140
 2892TIP3    H230168   4.691   3.883   2.691 -0.6450 -0.2032  1.5894
 2893TIP3   OH230169   2.674   4.012  11.763 -0.1259 -0.5782  0.2616
 2893TIP3    H130170   2.624   4.064  11.701  3.1864 -1.1233 -3.0740
 2893TIP3    H230171   2.634   3.925  11.759 -0.7409 -0.2779 -0.1947
 2894TIP3   OH230172   2.188   5.689  15.707 -0.0087 -0.4418 -0.4031
 2894TIP3    H130173   2.148   5.675  15.792 -0.1938  0.5797 -0.3172
 2894TIP3    H230174   2.188   5.603  15.666  0.9282 -1.1146  0.9895
 2895TIP3   OH230175   4.830   1.331  12.506  0.6251  0.6130 -0.3216
 2895TIP3    H130176   4.808   1.375  12.423  0.7458  0.8745 -0.2170
 2895TIP3    H230177   4.923   1.348  12.517  0.0215  3.1728  1.3665
 2896TIP3   OH230178   5.327   4.805  16.661  0.2123  0.0883  0.4422
 2896TIP3    H130179   5.250   4.782  16.712 -1.5087 -0.5213 -2.3203
 2896TIP3    H230180   5.351   4.724  16.616 -0.3451  1.3412 -2.2389
 2897TIP3   OH230181   0.972   1.824   3.131 -0.0731 -0.4603 -0.0719
 2897TIP3    H130182   1.047   1.765   3.120  0.3443  0.0302  0.1725
 2897TIP3    H230183   0.897   1.772   3.100  0.4649 -0.6938 -0.9879
 2898TIP3   OH230184   4.445   3.190  13.806  0.6433 -0.3792 -0.0178
 2898TIP3    H130185   4.447   3.106  13.851 -0.1057  0.6416  1.9826
 2898TIP3    H230186   4.354   3.219  13.813  1.2827  1.4567  0.9462
 2899TIP3   OH230187   5.141   2.399  14.608 -0.8820 -0.3547 -0.2473
 2899TIP3    H130188   5.103   2.473  14.657  0.9378  0.2142  0.3789
 2899TIP3    H230189   5.215   2.371  14.662 -0.1833 -1.1730 -1.6052
 2900TIP3   OH230190   6.460   2.401  15.145 -0.2561 -0.8893 -0.5033
 2900TIP3    H130191   6.474   2.410  15.239 -0.9922 -0.3277 -0.4435
 2900TIP3    H230192   6.365   2.406  15.134 -0.1273 -0.1105 -1.3576
 2901TIP3   OH230193   5.136   0.442  14.781 -0.6062  0.3070 -0.5185
 2901TIP3    H130194   5.096   0.434  14.694 -0.9797 -0.5616 -0.2642
 2901TIP3    H230195   5.134   0.536  14.799  1.9393  0.8298 -2.6192
 2902TIP3   OH230196   0.564   3.409  12.036 -0.2266 -0.0296 -0.7556
 2902TIP3    H130197   0.532   3.319  12.045 -0.2168 -0.1955 -2.1850
 2902TIP3    H230198   0.487   3.460  12.010 -0.2229  0.3749  0.0057
 2903TIP3   OH230199   4.635   6.218  16.180 -0.2077  0.7725 -0.0747
 2903TIP3    H130200   4.614   6.132  16.215  1.9489  0.9602  1.8230
 2903TIP3    H230201   4.663   6.201  16.090 -0.9107 -0.3562 -0.0926
 2904TIP3   OH230202   6.760   2.467   0.684 -0.6402 -0.1392 -0.2610
 2904TIP3    H130203   6.718   2.387   0.653 -0.0208  0.1973 -1.9834
 2904TIP3    H230204   6.708   2.494   0.760 -1.3683 -1.6875 -0.2053
 2905TIP3   OH230205   2.352   0.602  15.498  0.6538  0.5328  0.4539
 2905TIP3    H130206   2.447   0.590  15.495  0.8541  1.5801  2.0462
 2905TIP3    H230207   2.337   0.691  15.466 -0.2120 -1.1478 -4.1650
 2906TIP3   OH230208   5.617   6.694  15.550 -0.1057  0.0849 -0.1834
 2906TIP3    H130209   5.604   6.780  15.589  2.1230  0.9395 -1.2468
 2906TIP3    H230210   5.565   6.696  15.470 -0.5897  0.1972  0.1324
 2907TIP3   OH230211   3.205   0.714   3.802 -0.0030  0.3962 -0.1197
 2907TIP3    H130212   3.159   0.709   3.885  1.0806  3.2839  0.7034
 2907TIP3    H230213   3.189   0.802   3.770  3.1907  0.7986 -0.8137
 2908TIP3   OH230214   5.838   0.600   4.970  0.1842  0.0797 -0.2407
 2908TIP3    H130215   5.834   0.630   4.879  0.6891 -1.9575 -0.9660
 2908TIP3    H230216   5.918   0.640   5.005  0.4011  0.2492 -0.9221
 2909TIP3   OH230217   2.441   1.523  11.454  0.0051 -0.4676 -0.2951
 2909TIP3    H130218   2.495   1.482  11.387  0.8954  0.0426  0.1033
 2909TIP3    H230219   2.457   1.470  11.533 -1.9693 -1.8090 -0.7590
 2910TIP3   OH230220   2.821   4.620  15.912 -0.4528 -0.2963  0.4368
 2910TIP3    H130221   2.898   4.585  15.867  0.5017  0.8669  1.1375
 2910TIP3    H230222   2.755   4.630  15.843  0.3270 -0.4235 -0.3298
 2911TIP3   OH230223   5.205   3.555   1.234  0.5226 -0.4894 -0.2707
 2911TIP3    H130224   5.225   3.469   1.197  0.7220 -0.9049  0.7670
 2911TIP3    H230225   5.139   3.538   1.301  1.0311  0.0590  0.3884
 2912TIP3   OH230226   4.653   1.426   3.607  0.0495 -0.2012 -0.3479
 2912TIP3    H130227   4.644   1.431   3.512 -0.1095  1.1166 -0.2798
 2912TIP3    H230228   4.669   1.517   3.634 -0.7675 -0.4350  0.9720
 2913TIP3   OH230229   0.029   4.669   2.003  0.8697  0.0495 -0.3452
 2913TIP3    H130230   0.105   4.725   1.994  0.4082  0.7163 -0.1039
 2913TIP3    H230231   0.000   4.680   2.093  1.1782 -1.0999 -0.0936
 2914TIP3   OH230232   4.202   5.673   4.539  0.0979 -0.4530 -0.3912
 2914TIP3    H130233   4.147   5.751   4.529  0.8075  0.3943  1.8934
 2914TIP3    H230234   4.194   5.626   4.456 -0.5360  1.9392 -1.7141
 2915TIP3   OH230235   0.964   2.166  11.219  0.2811 -0.2842  0.0541
 2915TIP3    H130236   1.042   2.215  11.244 -1.5562  1.1148  3.3367
 2915TIP3    H230237   0.988   2.074  11.231  1.4780  0.1196  0.7922
 2916TIP3   OH230238   1.542   3.541   1.423 -0.1517  0.1345  0.0237
 2916TIP3    H130239   1.577   3.455   1.445 -0.2860 -0.0446 -0.4650
 2916TIP3    H230240   1.591   3.568   1.345  1.1063  1.2470  1.1607
 2917TIP3   OH230241   5.655   1.295  12.759 -0.1387  0.7467 -0.6126
 2917TIP3    H130242   5.643   1.200  12.760 -0.0890  0.7418 -0.4748
 2917TIP3    H230243   5.566   1.330  12.760 -0.1537  0.7052 -0.2118
 2918TIP3   OH230244   4.485   2.987   1.501  0.6174 -0.0809  0.0480
 2918TIP3    H130245   4.414   2.955   1.446 -0.9672 -0.0379  2.0068
 2918TIP3    H230246   4.549   2.916   1.501  0.4947 -0.2112 -1.5697
 2919TIP3   OH230247   5.406   3.856  11.976  0.2933 -0.3558  0.8200
 2919TIP3    H130248   5.321   3.855  12.020 -0.1014  0.9708  0.1498
 2919TIP3    H230249   5.452   3.930  12.016  0.7594 -0.4955  0.5328
 2920TIP3   OH230250   4.349   5.025  15.610 -0.0590  0.3403 -0.0040
 2920TIP3    H130251   4.303   4.943  15.594  0.6571  0.1558 -1.1359
 2920TIP3    H230252   4.442   5.001  15.610  0.0677  0.6743  2.4638
 2921TIP3   OH230253   5.439   3.741  15.568 -0.0863  0.3135  0.1158
 2921TIP3    H130254   5.379   3.727  15.642  0.6123  0.6274  0.7535
 2921TIP3    H230255   5.448   3.836  15.563 -2.0166  0.4430 -1.9227
 2922TIP3   OH230256   0.932   3.991  10.913 -0.2299  0.0152 -0.3907
 2922TIP3    H130257   0.882   4.008  10.993  0.9278 -1.6020  0.7198
 2922TIP3    H230258   0.951   3.897  10.917  2.0730  0.4139 -1.2586
 2923TIP3   OH230259   4.111   5.099   5.473  0.4368  0.1296 -0.4563
 2923TIP3    H130260   4.178   5.049   5.426  0.1854  0.4637 -1.1633
 2923TIP3    H230261   4.072   5.035   5.533  0.7578 -0.2952 -0.6956
 2924TIP3   OH230262   6.323   5.557  16.593  0.5606 -0.1050 -0.4942
 2924TIP3    H130263   6.326   5.573  16.499 -1.0948  1.3894 -0.3193
 2924TIP3    H230264   6.414   5.538  16.617  1.2867  1.1904 -2.1196
 2925TIP3   OH230265   0.081   5.272   4.784  0.1892 -0.5197 -0.5600
 2925TIP3    H130266   0.123   5.352   4.814 -0.3546  0.2938 -1.9197
 2925TIP3    H230267   0.091   5.211   4.857 -0.3496  1.1220  0.9226
 2926TIP3   OH230268   1.102   4.153   4.619 -0.4957  0.4398 -0.0305
 2926TIP3    H130269   1.025   4.206   4.597  0.3769  2.3252  1.3122
 2926TIP3    H230270   1.160   4.163   4.544 -0.9692  0.1591 -0.4368
 2927TIP3   OH230271   0.928   0.732   1.838  0.1610 -0.3043 -0.6999
 2927TIP3    H130272   0.997   0.779   1.791  0.3368  2.4134  2.1343
 2927TIP3    H230273   0.853   0.734   1.779  1.1864  0.5876 -1.9890
 2928TIP3   OH230274   3.575   6.768   5.485  0.6142 -0.3845  0.0545
 2928TIP3    H130275   3.600   6.793   5.574 -1.1753 -3.2303  1.4215
 2928TIP3    H230276   3.647   6.714   5.454  0.5482 -0.6484  0.3601
 2929TIP3   OH230277   6.408   1.653   1.959  0.3220 -0.2363 -0.9278
 2929TIP3    H130278   6.481   1.679   2.015 -0.3950 -0.5914  0.1992
 2929TIP3    H230279   6.406   1.557   1.965 -0.7297 -0.1842 -0.2901
 2930TIP3   OH230280   4.319   3.106  17.260 -0.1709 -0.1823 -0.2446
 2930TIP3    H130281   4.302   3.022  17.219  1.4448 -0.3600 -0.5735
 2930TIP3    H230282   4.311   3.170  17.189  2.2950 -0.4550 -0.7816
 2931TIP3   OH230283   2.885   2.253  12.192 -0.0686 -0.1454 -0.1232
 2931TIP3    H130284   2.855   2.188  12.255  0.8285 -0.7717 -0.3312
 2931TIP3    H230285   2.886   2.336  12.241 -0.6570 -0.3928  0.3047
 2932TIP3   OH230286   1.715   1.742   3.277  0.3645  0.4532  0.1221
 2932TIP3    H130287   1.634   1.693   3.284 -0.3365  1.6118  0.1829
 2932TIP3    H230288   1.749   1.720   3.190 -0.2167  0.3002 -0.0653
 2933TIP3   OH230289   5.615   1.504  12.118  0.2066  0.3956  0.5847
 2933TIP3    H130290   5.598   1.594  12.145  1.0790  0.5920  0.4925
 2933TIP3    H230291   5.704   1.486  12.147  0.7941  0.2557 -1.2062
 2934TIP3   OH230292   4.158   4.492   3.016  0.1575 -0.2356 -0.4723
 2934TIP3    H130293   4.118   4.440   3.085  0.2253  0.7875  0.3464
 2934TIP3    H230294   4.085   4.520   2.961 -0.2651  1.4077  0.8694
 2935TIP3   OH230295   3.802   4.108  14.821 -0.2848 -0.3583  0.0455
 2935TIP3    H130296   3.853   4.046  14.873  0.1546 -2.1523 -2.4625
 2935TIP3    H230297   3.717   4.111  14.866  0.2749 -1.4324  1.2176
 2936TIP3   OH230298   1.974   5.647  16.246  0.3044  0.4206  0.3750
 2936TIP3    H130299   1.909   5.659  16.177  1.5036  1.5356 -0.6004
 2936TIP3    H230300   1.931   5.592  16.311 -1.2529  0.3165 -0.7202
 2937TIP3   OH230301   5.366   3.892  13.960 -0.3207  0.3193 -0.4704
 2937TIP3    H130302   5.368   3.951  13.885 -2.6793  1.6634  0.4805
 2937TIP3    H230303   5.274   3.875  13.976  0.1711 -0.5925  1.6211
 2938TIP3   OH230304   4.161   4.228  13.534  0.5893 -0.4999 -0.7064
 2938TIP3    H130305   4.180   4.171  13.460 -0.2827 -2.1846  0.3216
 2938TIP3    H230306   4.077   4.196  13.568 -0.1470  1.6864 -0.3607
 2939TIP3   OH230307   5.189   6.542   4.558  0.3927  0.0810 -0.0649
 2939TIP3    H130308   5.230   6.456   4.547 -1.0372 -0.7666  0.9734
 2939TIP3    H230309   5.206   6.565   4.650 -0.6160  0.1510  0.1091
 2940TIP3   OH230310   2.938   6.347   5.030 -0.4729  0.0992 -0.5275
 2940TIP3    H130311   2.910   6.296   5.106  0.1667 -0.8250 -0.9119
 2940TIP3    H230312   2.993   6.287   4.979  0.8012  1.3454 -0.6550
 2941TIP3   OH230313   2.214   6.818  10.394  0.2280 -0.2245  0.3967
 2941TIP3    H130314   2.152   6.885  10.365  0.7558  0.2915  0.4486
 2941TIP3    H230315   2.172   6.735  10.371 -0.6054  0.1095  0.6863
 2942TIP3   OH230316   3.003   6.111   0.605  0.0280  0.0603  0.4248
 2942TIP3    H130317   2.997   6.160   0.523  1.3002  0.2755  0.4506
 2942TIP3    H230318   2.967   6.025   0.584 -4.1757  1.5877  0.9115
 2943TIP3   OH230319   3.428   3.903   5.918  0.4170 -0.9334  0.6535
 2943TIP3    H130320   3.343   3.886   5.877  0.2446  0.1776  0.5270
 2943TIP3    H230321   3.492   3.875   5.853  0.1475  0.1113 -0.0686
 2944TIP3   OH230322   0.543   4.968   5.523 -0.7258  0.1815 -0.1033
 2944TIP3    H130323   0.508   4.881   5.503  0.3283 -0.3943  0.5606
 2944TIP3    H230324   0.547   4.971   5.619  2.1792 -0.2397 -0.1619
 2945TIP3   OH230325   6.246   2.082  15.567  0.0298  0.1430  0.0964
 2945TIP3    H130326   6.184   2.140  15.525  0.8334  0.4053 -0.7320
 2945TIP3    H230327   6.276   2.130  15.644 -0.9006 -0.0506  0.5924
 2946TIP3   OH230328   3.051   6.718  16.481 -0.5451  0.1126  0.4045
 2946TIP3    H130329   3.122   6.677  16.531 -1.2689 -1.3843  0.2349
 2946TIP3    H230330   3.016   6.784  16.541  0.3391  0.1614  0.8752
 2947TIP3   OH230331   4.437   5.079   2.931  0.1548  0.2638  0.1359
 2947TIP3    H130332   4.444   5.075   3.026 -1.2821  1.0681  0.2954
 2947TIP3    H230333   4.501   5.145   2.904  0.8362 -0.2462  0.5027
 2948TIP3   OH230334   0.206   3.131   5.946  0.7561  0.2603  0.0957
 2948TIP3    H130335   0.189   3.047   5.990  0.6016  0.3233  0.1578
 2948TIP3    H230336   0.121   3.174   5.944  0.9512  0.6723  0.5918
 2949TIP3   OH230337   6.201   3.595   5.201 -0.0982  0.0120 -0.5619
 2949TIP3    H130338   6.284   3.553   5.177 -0.9590 -1.9182 -0.2482
 2949TIP3    H230339   6.207   3.683   5.164  1.6063 -0.5007 -1.5489
 2950TIP3   OH230340   5.528   6.119   1.907  0.4390 -0.7930  0.1414
 2950TIP3    H130341   5.542   6.081   1.820 -1.4718 -0.6639 -0.2456
 2950TIP3    H230342   5.433   6.128   1.914  0.6762  0.7467  1.5931
 2951TIP3   OH230343   1.642   4.919  13.679 -0.0395  0.0032  0.1038
 2951TIP3    H130344   1.550   4.931  13.703  0.1105  0.2045  0.5936
 2951TIP3    H230345   1.687   4.914  13.762  0.4596  0.4328 -0.1383
 2952TIP3   OH230346   1.270   3.063  13.029  0.3551  0.5899  0.6116
 2952TIP3    H130347   1.291   2.994  12.966 -1.4529  0.6508 -0.0849
 2952TIP3    H230348   1.282   3.021  13.114  2.8781  0.5301  0.2738
 2953TIP3   OH230349   2.464   4.402  15.752 -0.1735 -0.1042  0.7269
 2953TIP3    H130350   2.507   4.354  15.682 -0.8141  1.3095 -0.6739
 2953TIP3    H230351   2.514   4.484  15.759 -2.6597  1.6102 -1.0124
 2954TIP3   OH230352   4.910   2.463   2.761 -0.2286  0.4710 -0.6134
 2954TIP3    H130353   4.854   2.386   2.755  0.5901 -0.1808 -0.0468
 2954TIP3    H230354   4.850   2.537   2.763 -1.0794 -0.2420  0.3818
 2955TIP3   OH230355   3.616   0.530   2.058 -0.4552 -0.3083  0.1093
 2955TIP3    H130356   3.521   0.526   2.046 -0.3723 -0.4572 -0.4869
 2955TIP3    H230357   3.646   0.440   2.049 -0.3248 -0.3398  0.8608
 2956TIP3   OH230358   0.219   5.241  16.954  0.4509  0.0624 -0.1045
 2956TIP3    H130359   0.208   5.335  16.939  0.1512  0.3773  1.9850
 2956TIP3    H230360   0.148   5.218  17.013  2.6459 -0.7504  2.2804
 2957TIP3   OH230361   2.012   4.410  15.438 -0.3768  0.9054  0.0172
 2957TIP3    H130362   2.011   4.503  15.461  1.8229  0.7064  1.0559
 2957TIP3    H230363   2.105   4.385  15.442 -1.1258 -1.8125  1.7375
 2958TIP3   OH230364   1.131   3.578   0.414  0.8045  0.1147 -0.0598
 2958TIP3    H130365   1.157   3.567   0.323 -0.7497 -0.5851 -0.4342
 2958TIP3    H230366   1.044   3.539   0.419  0.2122  1.5610  1.3635
 2959TIP3   OH230367   5.789   4.348   0.902  0.1136  0.1791 -0.3646
 2959TIP3    H130368   5.715   4.334   0.960 -1.0688 -0.2850 -1.9555
 2959TIP3    H230369   5.811   4.441   0.914  0.0657  0.0281  0.9922
 2960TIP3   OH230370   0.983   5.786  16.413  0.1789  0.1808  0.0826
 2960TIP3    H130371   0.940   5.869  16.395 -2.5569 -1.1148  0.4204
 2960TIP3    H230372   0.966   5.770  16.506  0.0007 -1.1217 -0.1604
 2961TIP3   OH230373   6.462   1.719   3.991  0.6845  0.1320  0.3790
 2961TIP3    H130374   6.389   1.781   4.000  2.7711  2.5133  1.7266
 2961TIP3    H230375   6.518   1.758   3.924  0.8025 -1.6247 -0.5718
 2962TIP3   OH230376   1.791   4.760  13.123 -0.1409  0.2647  0.1685
 2962TIP3    H130377   1.718   4.700  13.110  0.3726 -0.1586 -0.8412
 2962TIP3    H230378   1.869   4.704  13.119  0.2896  0.8580  0.1655
 2963TIP3   OH230379   0.701   4.508  11.378 -0.0906 -0.2059 -0.0790
 2963TIP3    H130380   0.696   4.586  11.433 -1.0628 -1.2204  1.3171
 2963TIP3    H230381   0.612   4.472  11.380  0.4218 -1.5244 -0.4484
 2964TIP3   OH230382   4.403   6.727   4.232  0.0579  0.2447  0.1083
 2964TIP3    H130383   4.377   6.775   4.311 -1.2510  0.9868 -0.7440
 2964TIP3    H230384   4.320   6.711   4.187  0.8426  0.2533 -1.3444
 2965TIP3   OH230385   3.957   4.163   1.083  0.1337 -0.0767  0.0561
 2965TIP3    H130386   3.940   4.076   1.046  0.1455 -0.4077  0.8135
 2965TIP3    H230387   4.045   4.156   1.120  1.3256  1.1575 -2.4672
 2966TIP3   OH230388   3.931   6.726  14.874 -0.0570 -0.3186  0.4059
 2966TIP3    H130389   3.870   6.677  14.819  0.7069 -0.2387 -0.5286
 2966TIP3    H230390   3.951   6.804  14.823 -0.1467  0.2730  1.2634
 2967TIP3   OH230391   1.052   4.505  14.193  0.0973  0.1809 -0.4174
 2967TIP3    H130392   1.000   4.476  14.118 -1.9609  2.4038  0.0735
 2967TIP3    H230393   1.020   4.452  14.266  1.2691 -1.1577 -0.8653
 2968TIP3   OH230394   5.096   2.110  11.725 -0.2437 -0.2975  0.6381
 2968TIP3    H130395   5.050   2.077  11.803 -2.1055 -0.0635 -0.3213
 2968TIP3    H230396   5.088   2.205  11.731  0.5556 -0.2323  0.7076
 2969TIP3   OH230397   1.452   3.027   2.846  0.4619  0.2274 -0.2606
 2969TIP3    H130398   1.453   3.030   2.942 -0.6276 -0.1042 -0.2326
 2969TIP3    H230399   1.361   3.009   2.824  0.5079  1.3372 -1.3928
 2970TIP3   OH230400   5.382   1.130  17.197  0.0956 -0.0895 -0.0423
 2970TIP3    H130401   5.432   1.071  17.140  0.7896  0.4539 -0.0180
 2970TIP3    H230402   5.320   1.074  17.243 -1.6640 -0.3115 -2.5952
 2971TIP3   OH230403   4.145   2.663  12.524 -0.7454 -0.1282  0.0428
 2971TIP3    H130404   4.232   2.696  12.503 -1.6748  2.8099  0.5453
 2971TIP3    H230405   4.124   2.700  12.609 -2.2348 -1.3166  0.2295
 2972TIP3   OH230406   3.826   4.045   5.937 -0.4949 -0.9317  0.4753
 2972TIP3    H130407   3.921   4.046   5.953 -0.3559 -1.9269 -0.2340
 2972TIP3    H230408   3.801   3.954   5.951 -1.0605 -1.0081 -0.9392
 2973TIP3   OH230409   2.818   0.179  16.148  0.0553  0.3309  0.5443
 2973TIP3    H130410   2.848   0.118  16.080 -0.1665  1.5891 -0.6992
 2973TIP3    H230411   2.791   0.122  16.220  0.8533 -1.0053 -0.1813
 2974TIP3   OH230412   3.667   3.326  11.299  0.5114 -0.3586 -0.5126
 2974TIP3    H130413   3.700   3.244  11.261 -0.2559 -0.3589 -1.1793
 2974TIP3    H230414   3.586   3.344  11.251  0.3628  0.4764  0.0464
 2975TIP3   OH230415   0.324   0.910   6.114 -0.3959  0.0999 -0.1548
 2975TIP3    H130416   0.349   0.841   6.053 -0.6880 -0.0654 -0.0873
 2975TIP3    H230417   0.257   0.961   6.068 -0.3243  0.2190 -0.1274
 2976TIP3   OH230418   5.840   3.440   3.930 -0.1844 -0.3865  0.2366
 2976TIP3    H130419   5.781   3.459   4.003 -2.6103 -0.1296 -1.7635
 2976TIP3    H230420   5.846   3.344   3.928  0.8130 -0.3745  1.4374
 2977TIP3   OH230421   2.830   1.346  16.907 -0.1066  0.1135 -0.1525
 2977TIP3    H130422   2.774   1.291  16.852 -0.0367 -1.0726  0.9257
 2977TIP3    H230423   2.915   1.302  16.906 -0.3270 -0.3951  1.5483
 2978TIP3   OH230424   0.528   0.963   5.326 -0.2228 -0.0672  0.2630
 2978TIP3    H130425   0.471   1.037   5.303 -1.9766 -1.4309  0.1684
 2978TIP3    H230426   0.617   0.998   5.314 -1.0199  1.8371 -0.3920
 2979TIP3   OH230427   5.976   4.105   1.824 -0.4680  0.5578  0.6044
 2979TIP3    H130428   5.967   4.046   1.750 -0.9153  1.0835  0.2393
 2979TIP3    H230429   6.003   4.188   1.786 -0.1950  0.6877  1.0788
 2980TIP3   OH230430   4.137   6.417  12.187 -0.3090 -0.0854 -0.3724
 2980TIP3    H130431   4.196   6.488  12.160  0.1776 -0.4223 -0.2087
 2980TIP3    H230432   4.170   6.340  12.140 -1.0851 -0.1211 -0.8682
 2981TIP3   OH230433   2.213   2.947  14.790  0.0932 -0.1603 -0.1429
 2981TIP3    H130434   2.127   2.970  14.755  0.5794 -0.2226 -1.3874
 2981TIP3    H230435   2.271   3.016  14.758  0.6466 -0.5191  0.0886
 2982TIP3   OH230436   0.369   4.409  13.034 -0.0993  0.2221  0.4446
 2982TIP3    H130437   0.416   4.396  13.116  0.6320 -0.4671 -0.0724
 2982TIP3    H230438   0.437   4.434  12.971 -0.5398  0.0020 -0.1237
 2983TIP3   OH230439   3.638   5.431   6.652  0.5034 -0.2941 -0.3158
 2983TIP3    H130440   3.666   5.477   6.731  0.2347  0.5450 -0.7003
 2983TIP3    H230441   3.700   5.360   6.643  0.1556 -0.7884  1.0120
 2984TIP3   OH230442   0.674   1.921  15.536  0.0901  0.2138  0.0437
 2984TIP3    H130443   0.688   1.847  15.477  0.5089 -0.0995  0.5252
 2984TIP3    H230444   0.583   1.947  15.521  0.9983  1.9809 -2.8153
 2985TIP3   OH230445   5.428   6.777   4.189  0.3472 -0.2128 -0.0068
 2985TIP3    H130446   5.342   6.809   4.162  0.6093 -1.3173 -2.2870
 2985TIP3    H230447   5.423   6.770   4.285 -2.3799 -1.0647 -0.1916
 2986TIP3   OH230448   4.110   6.726   2.742  0.4406 -0.2353 -0.3536
 2986TIP3    H130449   4.026   6.714   2.698  0.3530  0.4486 -0.3810
 2986TIP3    H230450   4.135   6.638   2.771  0.2172 -0.6024 -1.2501
 2987TIP3   OH230451   6.819   4.330  11.985  0.4683 -0.1589  0.5463
 2987TIP3    H130452   6.879   4.289  11.922  0.1531 -1.5425  1.1212
 2987TIP3    H230453   6.848   4.421  11.991  3.2556 -1.0540  1.6468
 2988TIP3   OH230454   1.003   6.674   6.019 -0.1956 -0.4234 -0.2950
 2988TIP3    H130455   0.999   6.768   5.998  0.2949 -0.7770 -2.0140
 2988TIP3    H230456   1.023   6.672   6.113  1.6615  1.2063 -0.6048
 2989TIP3   OH230457   0.206   4.253   3.949 -0.1475  0.1645  0.3049
 2989TIP3    H130458   0.123   4.241   3.901  0.5615  1.6468 -1.3394
 2989TIP3    H230459   0.212   4.347   3.964  0.9527 -0.0008  0.9895
 2990TIP3   OH230460   4.084   1.313   4.942 -0.1425 -0.6432  0.0465
 2990TIP3    H130461   4.168   1.319   4.896 -0.5835  1.2372 -0.5833
 2990TIP3    H230462   4.024   1.277   4.878  0.5102 -3.5630  1.0068
 2991TIP3   OH230463   6.253   2.553  13.334 -0.4113  0.1319 -0.0237
 2991TIP3    H130464   6.335   2.539  13.382 -0.4540 -0.1451 -0.0282
 2991TIP3    H230465   6.279   2.553  13.242 -0.2670  1.1051  0.0169
 2992TIP3   OH230466   0.544   5.654   6.279 -0.2926  0.4540 -0.0529
 2992TIP3    H130467   0.561   5.677   6.371 -0.6115  1.5494 -0.2636
 2992TIP3    H230468   0.601   5.580   6.263 -0.2703  0.2142  1.0560
 2993TIP3   OH230469   1.839   4.757  13.616  0.9738  0.4764  0.5307
 2993TIP3    H130470   1.778   4.823  13.583  1.0126 -0.7626 -2.1826
 2993TIP3    H230471   1.783   4.682  13.638  1.3998 -0.3441 -1.1242
 2994TIP3   OH230472   5.207   2.552  12.172 -0.1923  0.0728 -0.4142
 2994TIP3    H130473   5.156   2.612  12.118 -0.5638 -2.1070 -2.5859
 2994TIP3    H230474   5.142   2.509  12.228  0.2705  2.8317  2.4101
 2995TIP3   OH230475   3.865   2.497   4.052  0.3443  0.0187  0.2270
 2995TIP3    H130476   3.904   2.475   4.137 -0.4783  0.8435  0.8218
 2995TIP3    H230477   3.783   2.447   4.050 -0.7670  1.7750  0.9174
 2996TIP3   OH230478   3.335   2.746  14.388  0.0681 -0.3230 -0.0182
 2996TIP3    H130479   3.275   2.719  14.318 -1.1224  1.3271  0.3354
 2996TIP3    H230480   3.396   2.673  14.396 -1.3497 -1.6592 -1.0040
 2997TIP3   OH230481   4.972   3.507  11.521  0.3961 -0.3270  0.8366
 2997TIP3    H130482   4.909   3.576  11.504 -0.2634 -1.1227  0.0061
 2997TIP3    H230483   5.057   3.544  11.496  0.0567  0.2026  0.4763
 2998TIP3   OH230484   1.901   6.481  10.685 -0.1148 -0.0115 -0.5096
 2998TIP3    H130485   1.905   6.529  10.602  0.0666  2.6345  0.9553
 2998TIP3    H230486   1.818   6.433  10.681 -0.3663  0.5110 -1.9983
 2999TIP3   OH230487   1.408   6.054   5.834  0.1479 -0.2692 -0.2094
 2999TIP3    H130488   1.502   6.036   5.841  0.5976  2.0836  0.1646
 2999TIP3    H230489   1.372   6.025   5.918  0.6339 -0.6621 -0.1333
 3000TIP3   OH230490   3.609   5.427  13.095 -0.6908 -0.2887 -0.6544
 3000TIP3    H130491   3.632   5.334  13.101  0.3002  0.0124  0.4305
 3000TIP3    H230492   3.598   5.454  13.186  2.8230  1.5637 -0.6707
 3001TIP3   OH230493   1.122   6.801   2.761 -0.4706  0.2476  0.1408
 3001TIP3    H130494   1.056   6.778   2.695  0.7844 -0.6117 -0.8449
 3001TIP3    H230495   1.108   6.737   2.832 -1.8075  1.1598  0.7173
 3002TIP3   OH230496   0.329   4.555   3.327 -0.0426  0.1494 -0.0698
 3002TIP3    H130497   0.268   4.610   3.276  0.6589  1.1340  0.1363
 3002TIP3    H230498   0.364   4.615   3.393  0.1380 -0.7622  0.6614
 3003TIP3   OH230499   3.955   3.215   3.722 -0.5800  0.5536  0.2424
 3003TIP3    H130500   3.892   3.196   3.792 -1.3033 -1.5323 -0.9040
 3003TIP3    H230501   4.024   3.266   3.764 -1.5862  0.3456  2.2006
 3004TIP3   OH230502   5.172   2.329  10.990  0.4128 -0.2779 -0.5964
 3004TIP3    H130503   5.243   2.322  10.927  0.0273  1.7539 -1.3303
 3004TIP3    H230504   5.103   2.375  10.942 -0.3702  0.1583  0.9135
 3005TIP3   OH230505   0.760   5.744   2.765 -0.1076  0.1502  0.8270
 3005TIP3    H130506   0.829   5.705   2.819  1.7269  1.0665 -0.8149
 3005TIP3    H230507   0.791   5.833   2.747 -1.5697  0.4567 -0.2195
 3006TIP3   OH230508   5.388   5.320   5.407  0.0331  0.2665 -0.4901
 3006TIP3    H130509   5.420   5.405   5.378  0.2884  0.7410  1.1328
 3006TIP3    H230510   5.301   5.337   5.442 -0.1201 -0.2291 -0.6251
 3007TIP3   OH230511   2.111   2.137  16.397  0.4682 -0.1466  0.2397
 3007TIP3    H130512   2.166   2.069  16.435  1.4772  0.5906  0.1365
 3007TIP3    H230513   2.157   2.162  16.316 -0.6279 -0.3390 -0.4427
 3008TIP3   OH230514   0.263   3.057   3.033 -0.1899  0.2538  0.1293
 3008TIP3    H130515   0.304   3.136   3.068 -0.9408  0.9164 -0.4634
 3008TIP3    H230516   0.209   3.024   3.105  1.3179 -0.6001  0.8975
 3009TIP3   OH230517   4.735   3.277   1.735  0.6895  0.0411  0.5303
 3009TIP3    H130518   4.827   3.271   1.762  1.1424  0.1666 -0.9425
 3009TIP3    H230519   4.685   3.262   1.815  1.9934 -0.7243  1.2082
 3010TIP3   OH230520   0.117   0.883   1.369 -0.1504 -0.0989  0.4105
 3010TIP3    H130521   0.124   0.939   1.292  0.3085 -0.9677 -0.1827
 3010TIP3    H230522   0.088   0.942   1.439 -1.7495  0.4574 -0.6973
 3011TIP3   OH230523   4.438   0.833   4.738 -0.2214  0.0701 -0.0402
 3011TIP3    H130524   4.484   0.787   4.808 -0.1841 -0.0268 -0.1277
 3011TIP3    H230525   4.411   0.763   4.678 -0.2083  0.1583 -0.1488
 3012TIP3   OH230526   2.627   2.629  12.234  0.0855 -0.0206 -0.2453
 3012TIP3    H130527   2.565   2.635  12.162  0.3766 -1.6641 -0.6661
 3012TIP3    H230528   2.705   2.675  12.203 -0.5488  1.1562 -0.1161
 3013TIP3   OH230529   6.658   1.977   1.523  0.0571 -0.0174  0.1201
 3013TIP3    H130530   6.753   1.983   1.527  0.0876  0.3668 -1.0502
 3013TIP3    H230531   6.631   1.968   1.614  1.2336 -0.4835  0.4354
 3014TIP3   OH230532   5.908   4.860  10.842  0.0971  0.3988 -0.2580
 3014TIP3    H130533   5.975   4.928  10.832  1.3082 -0.5163  1.4050
 3014TIP3    H230534   5.835   4.906  10.885  0.2040  1.0649 -0.7745
 3015TIP3   OH230535   1.997   0.933  11.857  0.1319  0.1701 -0.3519
 3015TIP3    H130536   2.020   0.911  11.947 -0.7297  0.4689 -0.0612
 3015TIP3    H230537   2.034   0.861  11.805 -0.3365 -0.5852  0.3486
 3016TIP3   OH230538   2.307   1.097  17.134  0.2091  0.2909  0.5124
 3016TIP3    H130539   2.266   1.102  17.047  3.5435  0.4136 -1.1346
 3016TIP3    H230540   2.273   1.172  17.181 -0.4814  1.1030 -1.2433
 3017TIP3   OH230541   6.247   0.057   0.522 -0.3879 -0.6380 -0.2019
 3017TIP3    H130542   6.200  -0.024   0.502  0.6708 -1.0308 -1.1901
 3017TIP3    H230543   6.179   0.118   0.552 -1.2650 -1.7264  0.0409
 3018TIP3   OH230544   3.277   0.221   3.435  0.0464 -0.4147 -0.4660
 3018TIP3    H130545   3.337   0.192   3.366  0.7489  2.7202 -1.2354
 3018TIP3    H230546   3.331   0.226   3.514  0.2693  0.1738 -0.6526
 3019TIP3   OH230547   5.449   6.668  17.142 -0.0899  0.0717 -0.1821
 3019TIP3    H130548   5.436   6.694  17.050  2.5418  0.4367 -0.5071
 3019TIP3    H230549   5.487   6.746  17.183 -0.2105 -0.4603  0.9506
 3020TIP3   OH230550   3.467   0.575  12.578  0.1136  0.9194 -0.6011
 3020TIP3    H130551   3.497   0.590  12.668 -0.6924 -1.4152  0.0860
 3020TIP3    H230552   3.548   0.569  12.527  0.5991  1.7101  0.0522
 3021TIP3   OH230553   3.536   1.167   0.115 -0.2597  0.2693 -0.4751
 3021TIP3    H130554   3.604   1.224   0.078  0.3486 -0.3608 -0.3454
 3021TIP3    H230555   3.551   1.083   0.073 -1.1222  0.1902 -0.6238
 3022TIP3   OH230556   0.702   2.059  16.443 -0.2883  0.4654 -0.0255
 3022TIP3    H130557   0.716   2.019  16.357  1.8790  0.7715  0.1464
 3022TIP3    H230558   0.761   2.011  16.501 -0.7027  1.1950  1.0054
 3023TIP3   OH230559   4.343   0.983   0.637 -0.3935 -0.1897 -0.5945
 3023TIP3    H130560   4.398   0.949   0.566  0.5911  0.0335  0.0481
 3023TIP3    H230561   4.271   0.920   0.644  0.5657 -1.2935 -0.4791
 3024TIP3   OH230562   0.879   6.776  16.658  0.5082  0.5429  0.0151
 3024TIP3    H130563   0.850   6.839  16.724  0.8642 -0.3182  1.0158
 3024TIP3    H230564   0.892   6.694  16.707  1.2208  0.0074 -1.0364
 3025TIP3   OH230565   4.576   3.061  14.092  0.8869 -0.2622 -0.2391
 3025TIP3    H130566   4.537   2.977  14.115 -0.5039  0.6555  0.9182
 3025TIP3    H230567   4.502   3.122  14.093  2.2438  1.4427  1.5701
 3026TIP3   OH230568   4.150   1.079   6.305 -0.3771 -0.0565  0.5027
 3026TIP3    H130569   4.121   1.002   6.256 -1.7787  0.5087  0.4025
 3026TIP3    H230570   4.244   1.067   6.315 -0.4204 -1.2913 -0.3780
 3027TIP3   OH230571   6.386   2.490  14.841  0.6293  0.0551 -0.7250
 3027TIP3    H130572   6.318   2.436  14.802  1.3783 -1.1636 -0.3482
 3027TIP3    H230573   6.444   2.513  14.769 -0.2447  1.2187 -1.0750
 3028TIP3   OH230574   2.421   2.245   2.088 -0.2428 -0.0498 -0.1475
 3028TIP3    H130575   2.372   2.196   2.154  0.0930 -1.4747 -0.9378
 3028TIP3    H230576   2.433   2.183   2.016  1.5646  0.7021 -0.5203
 3029TIP3   OH230577   5.838   5.156   1.031  0.1359  0.5142 -0.1420
 3029TIP3    H130578   5.870   5.242   1.005 -0.0785  0.2337 -1.3317
 3029TIP3    H230579   5.745   5.157   1.010 -0.1927  0.5207  1.2414
 3030TIP3   OH230580   5.246   5.435   3.472 -0.6217 -0.5415  0.5256
 3030TIP3    H130581   5.323   5.464   3.521 -0.1670 -3.0522  1.3559
 3030TIP3    H230582   5.260   5.342   3.457 -2.3706 -0.5334 -1.4581
 3031TIP3   OH230583   5.873   4.672   2.295 -0.2918 -0.5547  0.3551
 3031TIP3    H130584   5.884   4.675   2.200 -2.1380 -0.7334  0.1160
 3031TIP3    H230585   5.953   4.711   2.330  0.3594 -0.3925 -1.2700
 3032TIP3   OH230586   2.474   1.100   5.118  0.6925 -0.0929 -0.3761
 3032TIP3    H130587   2.569   1.107   5.118  0.7513 -0.3258  2.5141
 3032TIP3    H230588   2.456   1.010   5.092  1.3025 -0.3947  0.2557
 3033TIP3   OH230589   1.105   2.897  14.434 -0.1965  0.0949 -0.4832
 3033TIP3    H130590   1.151   2.980  14.420 -1.4989  0.8131 -0.6485
 3033TIP3    H230591   1.073   2.903  14.524  0.5403 -0.6562 -0.1687
 3034TIP3   OH230592   4.082   5.999  10.345 -0.2857 -0.8517 -0.1653
 3034TIP3    H130593   4.006   5.941  10.349 -0.1354 -0.9679  1.4845
 3034TIP3    H230594   4.151   5.951  10.392  0.8930 -0.8713 -1.8877
 3035TIP3   OH230595   2.620   6.163  11.779 -0.0697 -0.5324 -0.0449
 3035TIP3    H130596   2.601   6.222  11.852  1.5458 -0.6664  0.5191
 3035TIP3    H230597   2.551   6.097  11.782 -0.4742 -0.0734  0.8545
 3036TIP3   OH230598   1.862   0.448   5.594  0.4030 -0.4209 -0.2118
 3036TIP3    H130599   1.823   0.423   5.510 -0.5181  1.9770 -0.5162
 3036TIP3    H230600   1.956   0.458   5.575 -0.0854  2.1536 -1.4848
 3037TIP3   OH230601   4.264   6.412  13.165  0.5720  0.3296  0.0020
 3037TIP3    H130602   4.305   6.445  13.245  1.0744  0.0348 -0.1343
 3037TIP3    H230603   4.197   6.477  13.144  0.5764  0.5108  0.5494
 3038TIP3   OH230604   3.619   5.006  14.431 -0.1109 -0.0759  0.0749
 3038TIP3    H130605   3.696   5.000  14.487 -0.8093  1.4936  1.2088
 3038TIP3    H230606   3.616   5.097  14.402 -1.1788 -0.2686 -0.4780
 3039TIP3   OH230607   4.378   0.771   2.779 -0.5014  0.3022 -0.2463
 3039TIP3    H130608   4.383   0.855   2.826  0.7845  1.7630 -2.8927
 3039TIP3    H230609   4.285   0.755   2.768 -0.7889  0.6997  1.4481
 3040TIP3   OH230610   1.721   0.911  12.974 -0.5874  0.0979  0.1130
 3040TIP3    H130611   1.706   0.871  12.888 -0.1519  1.1957 -0.4880
 3040TIP3    H230612   1.812   0.890  12.995  0.3268  2.6011 -1.2118
 3041TIP3   OH230613   3.965   0.448   2.937 -0.1956 -0.4326 -0.0440
 3041TIP3    H130614   4.032   0.513   2.959  0.4784 -0.9825 -0.4362
 3041TIP3    H230615   3.924   0.481   2.858  0.4641 -0.7150 -0.5068
 3042TIP3   OH230616   6.301   0.363   1.488 -0.4636  0.1726  0.5928
 3042TIP3    H130617   6.245   0.422   1.436 -0.1477  0.9974  1.1889
 3042TIP3    H230618   6.244   0.290   1.509 -0.8262  0.1969 -0.2654
 3043TIP3   OH230619   2.401   5.973   6.767  0.2941  0.3527 -0.0729
 3043TIP3    H130620   2.390   6.061   6.731 -2.2656  0.1031 -0.0367
 3043TIP3    H230621   2.323   5.926   6.737  0.6797 -1.3374  1.5328
 3044TIP3   OH230622   5.737   3.378   6.241 -0.2278 -0.4582  0.1115
 3044TIP3    H130623   5.781   3.306   6.196 -0.0030 -0.2748  0.0420
 3044TIP3    H230624   5.688   3.335   6.312 -0.6667 -0.7590 -0.3684
 3045TIP3   OH230625   2.994   6.057   5.126  0.1719 -0.6142 -0.0410
 3045TIP3    H130626   2.940   5.983   5.096 -1.1231  0.4972 -0.5034
 3045TIP3    H230627   3.060   6.067   5.057 -0.8594 -0.0929 -0.9648
 3046TIP3   OH230628   0.920   4.937   1.826  0.3331 -0.6951  0.4640
 3046TIP3    H130629   0.899   4.867   1.764 -1.6366 -0.6890  1.0858
 3046TIP3    H230630   0.923   5.016   1.772 -0.2244 -0.8591  0.1885
 3047TIP3   OH230631   5.518   6.072   5.733  0.6119 -0.6430 -0.2810
 3047TIP3    H130632   5.502   6.011   5.662  0.3275 -1.7559  0.7232
 3047TIP3    H230633   5.466   6.149   5.711  0.1599 -1.1634 -1.0391
 3048TIP3   OH230634   2.813   0.285   3.952  0.0897  0.2907  0.0580
 3048TIP3    H130635   2.806   0.206   3.899 -0.2694  0.6992 -0.5129
 3048TIP3    H230636   2.904   0.313   3.943  0.3723 -0.3934  0.7525
 3049TIP3   OH230637   6.266   2.323  12.456  0.0721  0.5791  0.0390
 3049TIP3    H130638   6.287   2.416  12.453 -1.2462  0.9250  1.0114
 3049TIP3    H230639   6.334   2.284  12.511 -0.9612  1.4559  2.0123
 3050TIP3   OH230640   0.251   0.102   3.344 -0.3859  0.5470  0.5835
 3050TIP3    H130641   0.188   0.170   3.364  0.0898  1.2622 -0.3307
 3050TIP3    H230642   0.336   0.145   3.349  0.0631 -0.4247  1.8972
 3051TIP3   OH230643   3.978   5.615  12.638  0.4008  0.2113 -0.0679
 3051TIP3    H130644   3.910   5.586  12.700  1.9259  0.5325  1.8156
 3051TIP3    H230645   3.940   5.692  12.596 -0.5412  0.2075  0.7467
 3052TIP3   OH230646   6.415   5.138  12.817 -0.0547 -0.0969  0.5102
 3052TIP3    H130647   6.465   5.157  12.897 -1.8922 -1.9166  2.1483
 3052TIP3    H230648   6.329   5.110  12.848 -0.2665 -2.5495 -2.0254
 3053TIP3   OH230649   2.005   5.851  14.815 -0.1975 -0.5831 -0.1590
 3053TIP3    H130650   2.003   5.790  14.889 -0.9310 -0.6848 -0.2521
 3053TIP3    H230651   2.078   5.910  14.833 -0.8030 -0.1802  0.9977
 3054TIP3   OH230652   3.033   6.746   1.500  0.4062  0.0582  0.5912
 3054TIP3    H130653   3.030   6.675   1.437  0.2327  1.7610 -1.3613
 3054TIP3    H230654   3.005   6.706   1.583  0.2969 -2.1088 -0.4624
 3055TIP3   OH230655   5.283   3.647   3.161  0.2813 -0.0846 -0.0393
 3055TIP3    H130656   5.247   3.732   3.185 -0.6595 -0.8748  1.3931
 3055TIP3    H230657   5.236   3.622   3.081  0.1286  0.4429 -0.1158
 3056TIP3   OH230658   6.395   0.467  16.659  0.0872  0.2622 -0.0696
 3056TIP3    H130659   6.376   0.386  16.705 -0.7954  1.7024  2.1993
 3056TIP3    H230660   6.490   0.468  16.649  0.2267 -0.3775  1.1909
 3057TIP3   OH230661   6.159   3.965   4.535 -0.2495  0.0967  0.7066
 3057TIP3    H130662   6.237   4.005   4.494  0.0779 -1.2642 -0.0380
 3057TIP3    H230663   6.171   3.981   4.629  1.2875 -0.7062  0.6635
 3058TIP3   OH230664   6.122   5.331   2.675 -0.6801  0.7689  0.0653
 3058TIP3    H130665   6.037   5.359   2.642 -0.1447  1.2382 -0.9156
 3058TIP3    H230666   6.111   5.327   2.770 -2.7558 -2.3391 -0.2252
 3059TIP3   OH230667   0.814   1.009   0.094  0.2282  0.0378 -0.3335
 3059TIP3    H130668   0.884   1.057   0.139  0.5940 -0.5233 -0.2978
 3059TIP3    H230669   0.774   0.955   0.162  1.2964 -1.4085 -0.8210
 3060TIP3   OH230670   3.658   5.243  15.052 -0.2974  0.1833  0.0807
 3060TIP3    H130671   3.736   5.230  14.998  1.4708  2.6977  1.9385
 3060TIP3    H230672   3.664   5.175  15.119 -1.9639 -2.2877 -2.1542
 3061TIP3   OH230673   4.993   2.359  13.714  0.1431  0.3881  0.2019
 3061TIP3    H130674   5.025   2.274  13.685  1.2965  0.9040 -0.0532
 3061TIP3    H230675   5.030   2.421  13.653 -1.2110  1.0290  0.0095
 3062TIP3   OH230676   1.875   2.667   6.880  0.2943 -0.3499  0.0862
 3062TIP3    H130677   1.892   2.641   6.789 -2.3116  2.2821 -1.2124
 3062TIP3    H230678   1.884   2.762   6.880  1.4239 -0.4185  2.9018
 3063TIP3   OH230679   1.774   2.754  15.205 -0.0733 -0.0672  0.3837
 3063TIP3    H130680   1.842   2.820  15.189 -0.1313  0.0139  0.4683
 3063TIP3    H230681   1.718   2.757  15.128 -0.8216  0.8929  0.9484
 3064TIP3   OH230682   3.901   4.060   1.334  0.5356 -0.0566  0.3151
 3064TIP3    H130683   3.845   4.129   1.371 -2.2989 -2.4889  0.7468
 3064TIP3    H230684   3.928   4.094   1.249 -2.2665  0.8984 -0.2437
 3065TIP3   OH230685   4.767   3.121  16.980  0.0249 -0.2357 -0.1652
 3065TIP3    H130686   4.793   3.106  17.071  0.9322  1.1063 -0.1858
 3065TIP3    H230687   4.843   3.163  16.940 -0.2895 -1.0269 -1.6089
 3066TIP3   OH230688   2.519   6.381  12.142  0.3311 -0.0684  0.2120
 3066TIP3    H130689   2.585   6.368  12.074  0.8381  2.2813  0.2090
 3066TIP3    H230690   2.441   6.337  12.109  1.1907 -0.7928 -0.8944
 3067TIP3   OH230691   4.001   0.136  11.923  0.6748  0.1742 -0.2866
 3067TIP3    H130692   3.952   0.144  12.005  1.2910 -2.2529  0.3607
 3067TIP3    H230693   3.936   0.107  11.859  0.4324  0.9876 -0.4243
 3068TIP3   OH230694   2.476   1.898   1.119 -0.4588 -0.1958  0.1530
 3068TIP3    H130695   2.550   1.840   1.137 -0.4329 -0.4492 -0.7462
 3068TIP3    H230696   2.479   1.963   1.189 -0.1399 -0.9348  0.8310
 3069TIP3   OH230697   0.550   3.907  12.433  0.2917  0.2242  0.4732
 3069TIP3    H130698   0.595   3.826  12.458 -0.3620 -0.5806 -0.9107
 3069TIP3    H230699   0.525   3.947  12.516  0.6056 -0.9967  1.1721
 3070TIP3   OH230700   4.313   2.413   1.055  0.1180  0.4221 -0.2485
 3070TIP3    H130701   4.335   2.506   1.050 -1.4373  0.7636 -1.0157
 3070TIP3    H230702   4.312   2.384   0.964 -3.9318  0.7895 -0.4202
 3071TIP3   OH230703   4.382   6.087   2.273  0.5034 -0.3424  0.3488
 3071TIP3    H130704   4.310   6.036   2.311 -1.9437  1.8718 -1.0969
 3071TIP3    H230705   4.435   6.112   2.348 -0.8574 -1.1125  1.6032
 3072TIP3   OH230706   2.348   6.327  16.391  0.1271 -0.3931  0.1105
 3072TIP3    H130707   2.256   6.324  16.363 -0.1945  0.8407  1.0001
 3072TIP3    H230708   2.347   6.290  16.479  0.5107 -0.5891  0.0310
 3073TIP3   OH230709   1.761   1.853  15.394 -0.8604 -0.6459 -0.2674
 3073TIP3    H130710   1.684   1.819  15.349 -0.8885 -1.5443  0.4256
 3073TIP3    H230711   1.778   1.788  15.463  0.3304 -0.3016 -0.2307
 3074TIP3   OH230712   4.322   3.808  14.605 -0.2878  0.4106 -0.1529
 3074TIP3    H130713   4.292   3.779  14.691 -1.0261  1.2894 -0.1144
 3074TIP3    H230714   4.243   3.838  14.561  0.4759  2.4534 -0.1578
 3075TIP3   OH230715   3.272   0.072  14.620 -0.1823  0.2058 -0.7568
 3075TIP3    H130716   3.282   0.142  14.685 -1.0596 -0.1435 -0.2294
 3075TIP3    H230717   3.178   0.050  14.623 -0.1927  0.0489 -2.0056
 3076TIP3   OH230718   0.396   2.493   1.673 -0.6021  0.4247  0.6930
 3076TIP3    H130719   0.400   2.589   1.674  2.7667  0.3480  2.8060
 3076TIP3    H230720   0.425   2.469   1.585 -0.9198  1.3130  0.3360
 3077TIP3   OH230721   5.988   4.385  15.782 -0.2095  0.0558 -0.4176
 3077TIP3    H130722   6.054   4.335  15.734  1.0584  3.0418 -1.9538
 3077TIP3    H230723   6.001   4.475  15.752 -2.4430  1.2956  2.1814
 3078TIP3   OH230724   0.101   5.190  12.629 -0.3762 -0.5674 -0.1533
 3078TIP3    H130725   0.187   5.233  12.622 -0.3369 -0.4587  0.9040
 3078TIP3    H230726   0.088   5.147  12.544  1.3902 -1.8415  0.2040
 3079TIP3   OH230727   5.446   0.704   6.159 -0.3986 -0.1227  0.3867
 3079TIP3    H130728   5.512   0.653   6.113 -0.7561  1.3169 -1.7835
 3079TIP3    H230729   5.496   0.769   6.208 -0.1701  1.0972 -1.4114
 3080TIP3   OH230730   3.799   4.571   5.021  0.7368 -0.0718  0.0750
 3080TIP3    H130731   3.782   4.576   4.927  1.9378 -0.7276 -0.1876
 3080TIP3    H230732   3.817   4.661   5.047  0.6812  0.0699 -0.3730
 3081TIP3   OH230733   1.979   3.537  14.880 -0.1566 -0.3888 -0.4966
 3081TIP3    H130734   1.906   3.574  14.931  0.0780 -1.7060  0.8398
 3081TIP3    H230735   2.055   3.591  14.905  0.2732 -1.9737  1.7771
 3082TIP3   OH230736   0.055   0.030   5.510 -0.5621  0.0196 -0.1785
 3082TIP3    H130737   0.063   0.023   5.415  1.5404 -0.9216  0.0383
 3082TIP3    H230738   0.127   0.089   5.535 -0.9946  0.1181  0.8313
 3083TIP3   OH230739   1.018   0.199  12.418 -0.5324 -0.0065 -0.0702
 3083TIP3    H130740   1.012   0.247  12.335  1.2522  0.3104 -0.0405
 3083TIP3    H230741   0.989   0.262  12.483  0.1381  0.4765 -0.2275
 3084TIP3   OH230742   0.007   0.976   5.019  0.3162 -0.4076 -0.2192
 3084TIP3    H130743   0.037   1.062   4.989  0.0119 -0.2812 -0.1582
 3084TIP3    H230744   0.065   0.914   4.975  5.3804  0.0553  5.1903
 3085TIP3   OH230745   4.751   1.280   3.814  0.0204  0.0823  0.5721
 3085TIP3    H130746   4.847   1.280   3.807  0.1043 -2.3056  1.4118
 3085TIP3    H230747   4.723   1.350   3.755  2.2595  0.5424 -0.0029
 3086TIP3   OH230748   2.771   0.542  10.995 -0.3794  0.3830  0.2095
 3086TIP3    H130749   2.851   0.570  10.949 -0.4954  0.8630  0.2923
 3086TIP3    H230750   2.700   0.574  10.940 -0.5191  0.9117  0.6895
 3087TIP3   OH230751   0.967   1.883  10.970  0.1684 -0.0357  0.2820
 3087TIP3    H130752   1.049   1.870  10.924  0.0383 -0.1993  0.0964
 3087TIP3    H230753   0.911   1.930  10.908 -0.5801 -1.7034 -0.3475
 3088TIP3   OH230754   2.855   5.208   5.110 -0.2503 -0.3253 -0.1940
 3088TIP3    H130755   2.938   5.256   5.116 -0.8379  0.5527  1.0405
 3088TIP3    H230756   2.882   5.116   5.101  0.8578 -0.1335  0.9984
 3089TIP3   OH230757   1.314   5.750  13.642  0.5754 -0.9914  0.4051
 3089TIP3    H130758   1.329   5.660  13.612  1.1263 -1.0717  0.9100
 3089TIP3    H230759   1.278   5.740  13.730  0.9206 -0.7110  0.5786
 3090TIP3   OH230760   1.447   1.394  11.120 -0.2719  0.0353 -0.1901
 3090TIP3    H130761   1.513   1.330  11.147 -0.7487 -0.0793  0.6851
 3090TIP3    H230762   1.365   1.346  11.121 -0.3395  0.1077 -1.5559
 3091TIP3   OH230763   5.000   2.870  11.118  0.0019 -0.2111 -0.4479
 3091TIP3    H130764   5.014   2.898  11.027 -0.4716  1.4128 -0.0282
 3091TIP3    H230765   4.906   2.854  11.124 -0.3465  2.1130  0.4286
 3092TIP3   OH230766   1.568   0.028  11.901  0.1544  0.2333  0.3680
 3092TIP3    H130767   1.533   0.054  11.986 -1.3358  0.3418 -0.2612
 3092TIP3    H230768   1.608   0.107  11.866 -0.5578  0.5787  0.3263
 3093TIP3   OH230769   0.539   5.935  15.016 -0.0599  0.2511 -0.2976
 3093TIP3    H130770   0.633   5.951  15.026 -0.0266  0.3584 -0.7644
 3093TIP3    H230771   0.521   5.956  14.925 -0.3310 -0.8124 -0.4961
 3094TIP3   OH230772   6.461   4.926  11.795  0.6297  0.0161  0.0451
 3094TIP3    H130773   6.369   4.928  11.819  0.2424 -1.0360 -1.2685
 3094TIP3    H230774   6.487   4.834  11.806  1.5614  0.3301  0.5580
 3095TIP3   OH230775   0.254   6.126  11.474  0.0317 -0.2602 -0.1327
 3095TIP3    H130776   0.169   6.137  11.432  0.4451  0.5418 -0.7969
 3095TIP3    H230777   0.244   6.168  11.559  0.4684  2.1029 -1.1813
 3096TIP3   OH230778   0.797   6.289   1.100 -0.2764 -0.6119 -0.0438
 3096TIP3    H130779   0.862   6.304   1.032 -1.3638 -1.4779 -1.3286
 3096TIP3    H230780   0.818   6.202   1.134 -0.2340 -0.5319  0.1320
 3097TIP3   OH230781   0.958   0.807   4.326  0.1397  0.2902 -0.3210
 3097TIP3    H130782   0.984   0.715   4.331  0.0949  0.3417  0.9365
 3097TIP3    H230783   0.862   0.804   4.329  0.1499  0.4023  0.0783
 3098TIP3   OH230784   0.492   3.005   2.725 -0.0999 -0.3125 -0.0969
 3098TIP3    H130785   0.584   2.999   2.750  0.0794  0.0573 -0.6614
 3098TIP3    H230786   0.457   3.075   2.779 -0.3967 -1.3860  1.1314
 3099TIP3   OH230787   6.371   1.667  12.698 -0.0339 -0.4470  0.1059
 3099TIP3    H130788   6.369   1.602  12.768  0.5239 -1.6163 -0.9598
 3099TIP3    H230789   6.423   1.627  12.628  3.9685  2.7781  1.0312
 3100TIP3   OH230790   1.708   2.382   2.861 -0.3774 -0.0052  0.5869
 3100TIP3    H130791   1.769   2.441   2.906 -2.0838  0.8191  1.8731
 3100TIP3    H230792   1.623   2.427   2.866 -1.5691 -2.2482  0.9664
 3101TIP3   OH230793   1.961   5.824  12.918  0.0355 -0.0935 -0.0994
 3101TIP3    H130794   1.957   5.849  12.826 -0.2876  0.4039  0.0492
 3101TIP3    H230795   2.045   5.858  12.949 -1.2328  2.4727  0.5867
 3102TIP3   OH230796   2.399   3.072   3.570  0.2376  0.0584 -0.2610
 3102TIP3    H130797   2.353   3.136   3.624 -0.8729 -0.6246 -0.4024
 3102TIP3    H230798   2.492   3.087   3.589 -0.0926  0.6471  0.8922
 3103TIP3   OH230799   6.008   0.921   4.729  0.2596 -0.5608  0.2956
 3103TIP3    H130800   6.047   0.956   4.809 -1.6732  0.7036  0.7273
 3103TIP3    H230801   6.079   0.922   4.665  1.4762 -0.3406  1.6185
 3104TIP3   OH230802   0.261   6.240  13.881 -0.0805  0.2875 -0.4123
 3104TIP3    H130803   0.297   6.324  13.910 -2.8757  1.8732 -1.3482
 3104TIP3    H230804   0.281   6.237  13.788  1.1431 -0.6939 -0.1210
 3105TIP3   OH230805   4.844   2.761  10.881  0.1303 -0.2100 -0.5794
 3105TIP3    H130806   4.823   2.780  10.790 -0.0131 -1.1593 -0.7416
 3105TIP3    H230807   4.761   2.770  10.927 -0.2517 -1.9691 -0.9039
 3106TIP3   OH230808   5.484   3.635   2.888 -0.1785  0.5994  0.5344
 3106TIP3    H130809   5.485   3.729   2.911  0.1679  1.0720 -1.3808
 3106TIP3    H230810   5.556   3.598   2.940 -0.3035  1.3889  1.3030
 3107TIP3   OH230811   1.332   1.934  14.501 -0.3359 -0.5556 -0.4615
 3107TIP3    H130812   1.347   1.980  14.419  1.4520  2.2764  1.3709
 3107TIP3    H230813   1.374   1.848  14.488  2.0306  0.7379 -1.6965
 3108TIP3   OH230814   1.580   5.662   6.272  0.4637  0.1794 -0.5603
 3108TIP3    H130815   1.592   5.752   6.242  2.1628  0.1040 -0.1423
 3108TIP3    H230816   1.667   5.624   6.268 -0.3047 -1.5675 -1.0630
 3109TIP3   OH230817   0.858   3.249  12.441  0.7584  0.1771 -0.4230
 3109TIP3    H130818   0.819   3.195  12.372  0.8977  0.4712 -0.7317
 3109TIP3    H230819   0.899   3.186  12.500 -0.7102 -0.1701  0.2317
 3110TIP3   OH230820   4.084   0.061  14.705 -0.3865  0.0549 -1.0013
 3110TIP3    H130821   4.132  -0.011  14.663 -0.1489 -1.2508  1.3615
 3110TIP3    H230822   4.151   0.109  14.753 -1.1087 -0.4825  0.5731
 3111TIP3   OH230823   3.399   1.680  15.431 -0.3517  0.2300 -0.0193
 3111TIP3    H130824   3.387   1.774  15.444 -0.8241  0.1966 -0.1963
 3111TIP3    H230825   3.372   1.641  15.514 -0.9287  0.1967 -0.2181
 3112TIP3   OH230826   1.863   4.440  10.872  0.0136 -0.0680  0.1783
 3112TIP3    H130827   1.844   4.499  10.944 -0.1967  0.6062 -0.4250
 3112TIP3    H230828   1.789   4.380  10.870  0.2791 -0.4223  0.8602
 3113TIP3   OH230829   1.086   0.259   3.475  0.1770  0.1246  0.5822
 3113TIP3    H130830   1.094   0.185   3.414 -0.0000 -0.6751  1.5132
 3113TIP3    H230831   1.152   0.242   3.542  1.0770  1.5388  0.0863
 3114TIP3   OH230832   4.129   3.454   3.784  0.1013  0.8185 -0.6447
 3114TIP3    H130833   4.100   3.493   3.866  0.4175 -0.1671 -0.0582
 3114TIP3    H230834   4.060   3.476   3.721 -1.3410 -0.4276  0.4404
 3115TIP3   OH230835   1.065   1.171   0.038 -0.2286  0.2260  0.5650
 3115TIP3    H130836   1.059   1.257   0.080  1.4595 -0.6948  2.8104
 3115TIP3    H230837   1.132   1.124   0.088 -1.9754 -2.8369  0.2169
 3116TIP3   OH230838   3.474   3.263  14.843 -0.0290 -0.2552 -0.0855
 3116TIP3    H130839   3.442   3.249  14.753 -0.0364  2.5174 -0.5714
 3116TIP3    H230840   3.395   3.274  14.895 -0.0270 -1.9672  0.3147
 3117TIP3   OH230841   0.945   1.782  13.277  0.1820  0.5213 -0.4714
 3117TIP3    H130842   1.026   1.735  13.299 -0.4107  0.1476  0.9447
 3117TIP3    H230843   0.966   1.874  13.297 -0.2544  0.2213  1.4042
 3118TIP3   OH230844   5.071   0.277  13.424  0.2624 -0.0895 -0.2480
 3118TIP3    H130845   5.082   0.222  13.502  1.2906 -3.0027 -2.3803
 3118TIP3    H230846   5.159   0.313  13.408 -0.0473  0.8681  0.1845
 3119TIP3   OH230847   3.840   0.802   5.475  0.6410 -0.1368  0.2747
 3119TIP3    H130848   3.834   0.736   5.407 -2.9917  0.6770 -0.2988
 3119TIP3    H230849   3.879   0.878   5.431 -2.1777  0.5706 -1.1582
 3120TIP3   OH230850   5.401   2.468   5.114 -0.5311  0.0262  0.0795
 3120TIP3    H130851   5.476   2.484   5.058 -0.1659  0.3625  0.6517
 3120TIP3    H230852   5.373   2.380   5.092  0.3316 -0.2854  0.2006
 3121TIP3   OH230853   1.434   2.553  13.048  0.6988 -0.2309 -0.2644
 3121TIP3    H130854   1.344   2.528  13.068  1.9266 -2.9262  2.4004
 3121TIP3    H230855   1.465   2.485  12.988  1.3556 -0.1519 -0.0265
 3122TIP3   OH230856   6.049   4.363  15.162 -0.6515  0.5915 -0.2920
 3122TIP3    H130857   6.126   4.355  15.217 -0.4004  0.9076 -0.5916
 3122TIP3    H230858   6.046   4.282  15.112 -0.6326  0.4895 -0.1263
 3123TIP3   OH230859   3.834   6.128   0.646  0.4975  0.3811  0.2803
 3123TIP3    H130860   3.813   6.096   0.558  2.5943  1.8758 -0.7973
 3123TIP3    H230861   3.756   6.108   0.697 -1.6341  1.3877 -2.4350
 3124TIP3   OH230862   0.649   0.130  16.551 -0.5816  0.1291  0.1117
 3124TIP3    H130863   0.648   0.121  16.456 -2.6154 -0.9659  0.2202
 3124TIP3    H230864   0.737   0.103  16.577 -1.1163 -2.9774 -1.1451
 3125TIP3   OH230865   4.378   0.685   3.172 -0.1376 -0.0194  0.0914
 3125TIP3    H130866   4.348   0.759   3.225  0.4766 -0.5033  1.1127
 3125TIP3    H230867   4.472   0.698   3.164 -0.2559  0.1834 -1.1053
 3126TIP3   OH230868   1.816   3.491   5.934 -0.1236 -0.4448 -0.7411
 3126TIP3    H130869   1.778   3.530   6.012  0.5410  1.9238 -1.5682
 3126TIP3    H230870   1.884   3.431   5.967 -0.8677 -0.6084  0.5208
 3127TIP3   OH230871   3.094   0.429   2.958  0.3921 -0.0884 -0.2051
 3127TIP3    H130872   3.088   0.341   2.919 -0.3833 -1.0681  2.0348
 3127TIP3    H230873   3.173   0.427   3.011 -0.7342 -0.1566  1.5198
 3128TIP3   OH230874   0.117   2.442   1.230  0.4599 -0.3113 -0.0378
 3128TIP3    H130875   0.166   2.456   1.149 -0.2307 -0.0413 -0.4113
 3128TIP3    H230876   0.179   2.461   1.300  0.8256  0.2244 -0.5090
 3129TIP3   OH230877   2.316   6.252   3.043 -0.5799 -0.2483  0.1203
 3129TIP3    H130878   2.267   6.322   3.000  0.7064  0.9084  0.5258
 3129TIP3    H230879   2.371   6.296   3.107 -0.3206 -1.7041  0.9232
 3130TIP3   OH230880   4.267   6.426   5.075  0.0458  0.3515  0.2005
 3130TIP3    H130881   4.206   6.352   5.065 -0.8834  1.1102  0.1870
 3130TIP3    H230882   4.316   6.405   5.154  0.3862 -0.7090 -0.2885
 3131TIP3   OH230883   4.287   5.061   1.170 -0.2517 -0.2504  0.4496
 3131TIP3    H130884   4.323   4.997   1.109  1.4307  0.0370  1.0981
 3131TIP3    H230885   4.257   5.133   1.115  1.9077  0.3234 -0.0205
 3132TIP3   OH230886   6.472   1.521  13.524  0.5320  0.2696 -0.5777
 3132TIP3    H130887   6.390   1.544  13.569  0.2666 -1.3869 -0.1776
 3132TIP3    H230888   6.463   1.428  13.506  2.0506  0.2363 -1.1651
 3133TIP3   OH230889   2.818   1.618   3.931  0.4489  0.4916 -0.5246
 3133TIP3    H130890   2.818   1.602   4.025 -1.1235 -1.6532 -0.8584
 3133TIP3    H230891   2.836   1.533   3.892  2.5747  1.6374 -2.1602
 3134TIP3   OH230892   0.416   5.511  10.938 -0.4328  0.0700 -0.2018
 3134TIP3    H130893   0.346   5.515  10.872 -1.7046  1.9962  1.2309
 3134TIP3    H230894   0.496   5.503  10.887 -1.6619 -2.3417 -1.8872
 3135TIP3   OH230895   0.141   1.863   2.401 -0.7957 -0.0581 -0.0764
 3135TIP3    H130896   0.153   1.909   2.318 -1.6383 -0.0896 -0.2193
 3135TIP3    H230897   0.159   1.929   2.468  0.0537 -0.0750 -0.2753
 3136TIP3   OH230898   0.284   1.198  14.298 -0.0388  0.1195  0.2240
 3136TIP3    H130899   0.258   1.206  14.206  1.7973 -2.2771 -0.5572
 3136TIP3    H230900   0.333   1.278  14.317  1.7049 -0.4745 -1.6503
 3137TIP3   OH230901   1.342   3.715   1.475 -0.5275 -0.0043 -0.3481
 3137TIP3    H130902   1.418   3.660   1.452 -1.2825 -0.9226 -0.6646
 3137TIP3    H230903   1.338   3.780   1.405 -0.4601 -0.3919 -0.7138
 3138TIP3   OH230904   6.282   4.266  14.922 -0.2355  0.3201  0.3648
 3138TIP3    H130905   6.201   4.224  14.949 -0.4878  0.1426 -0.6548
 3138TIP3    H230906   6.257   4.356  14.900 -0.2804  0.0992 -0.5309
 3139TIP3   OH230907   0.960   1.811  11.871  0.0019  0.9708 -0.0080
 3139TIP3    H130908   0.982   1.775  11.785 -0.5553  1.1870 -0.2424
 3139TIP3    H230909   0.968   1.906  11.861 -1.3723  1.0744 -0.1942
 3140TIP3   OH230910   1.135   0.988  12.761 -0.4003  0.2808 -0.4097
 3140TIP3    H130911   1.134   1.070  12.810  0.0912 -0.3829  0.7304
 3140TIP3    H230912   1.184   1.009  12.681 -1.3474  1.4058 -0.7134
 3141TIP3   OH230913   3.294   4.435  16.525  0.1973 -0.1794 -0.4622
 3141TIP3    H130914   3.202   4.438  16.551  0.4912 -0.1875  0.5882
 3141TIP3    H230915   3.310   4.342  16.509  0.1880 -0.2565 -0.0354
 3142TIP3   OH230916   5.766   2.606  15.600  0.0221 -0.7493 -0.0474
 3142TIP3    H130917   5.684   2.606  15.648  0.7453  3.0752  1.3051
 3142TIP3    H230918   5.830   2.572  15.662 -0.2128 -2.2062 -0.5799
 3143TIP3   OH230919   2.542   4.730  11.766  0.0469  1.0202  0.3582
 3143TIP3    H130920   2.592   4.797  11.812 -0.3007  0.7589  1.1301
 3143TIP3    H230921   2.594   4.651  11.776 -0.3962  0.7984  0.9641
 3144TIP3   OH230922   0.387   4.868   1.598  0.6263  0.1352  0.1138
 3144TIP3    H130923   0.327   4.937   1.628 -0.9166 -1.1986  0.2003
 3144TIP3    H230924   0.457   4.915   1.553 -1.7377  1.6285 -2.1350
 3145TIP3   OH230925   6.066   5.466  15.989 -0.1051  0.1293 -0.1280
 3145TIP3    H130926   6.022   5.549  15.971 -0.6060 -0.0543  0.2262
 3145TIP3    H230927   6.004   5.400  15.958  0.0780 -0.1237  0.0503
 3146TIP3   OH230928   1.271   6.628  11.708 -0.0864 -0.1388  0.6623
 3146TIP3    H130929   1.277   6.551  11.766 -0.5857 -2.0110 -1.6760
 3146TIP3    H230930   1.177   6.645  11.702  0.0750  1.2605  1.9008
 3147TIP3   OH230931   2.384   4.668  15.967  0.2153 -0.2617  0.3588
 3147TIP3    H130932   2.371   4.689  15.875 -0.8977 -0.7825  0.3905
 3147TIP3    H230933   2.364   4.574  15.973  2.0064 -0.6317  0.8028
 3148TIP3   OH230934   0.685   6.238  12.117  0.0602  0.1919 -0.2640
 3148TIP3    H130935   0.665   6.145  12.105  2.9278 -0.6611  1.2618
 3148TIP3    H230936   0.730   6.263  12.037 -0.7786  0.3147 -0.7066
 3149TIP3   OH230937   3.457   5.799   4.266 -0.4578  0.0317 -0.3927
 3149TIP3    H130938   3.487   5.753   4.344  1.6035  2.4107  0.3184
 3149TIP3    H230939   3.515   5.768   4.197  0.4173  0.9158 -0.0772
 3150TIP3   OH230940   4.939   5.978   3.335  0.8243  0.4360  0.4245
 3150TIP3    H130941   4.936   5.920   3.260  0.1228 -0.3006  1.0119
 3150TIP3    H230942   4.933   6.066   3.298  0.7953  0.0875 -0.4006
 3151TIP3   OH230943   2.378   3.521   0.068  0.2226  0.6023 -0.6197
 3151TIP3    H130944   2.366   3.442   0.016  0.1675 -0.2347  0.6643
 3151TIP3    H230945   2.473   3.530   0.077  0.2652  1.2256 -1.5717
 3152TIP3   OH230946   6.351   3.221  16.563  0.3782 -0.6723  0.6050
 3152TIP3    H130947   6.418   3.159  16.535 -0.1765 -1.2968  0.6205
 3152TIP3    H230948   6.284   3.215  16.495  1.0833  1.1646 -0.2720
 3153TIP3   OH230949   5.033   3.474  16.385  0.0605  0.5100 -0.2017
 3153TIP3    H130950   4.939   3.488  16.374 -0.0578  0.9985  1.2982
 3153TIP3    H230951   5.064   3.552  16.432  1.0628 -0.0157  0.0350
 3154TIP3   OH230952   3.957   6.071  11.046 -0.0883 -0.1907 -0.1154
 3154TIP3    H130953   3.887   6.137  11.045  0.2245  0.1486  0.1072
 3154TIP3    H230954   3.972   6.055  11.139  1.3846  1.0789 -0.1189
 3155TIP3   OH230955   6.673   1.118  17.250 -0.1959 -0.0221  0.0329
 3155TIP3    H130956   6.593   1.100  17.299 -0.4290 -3.2281 -1.3709
 3155TIP3    H230957   6.744   1.107  17.314 -0.7670  1.9326  1.0518
 3156TIP3   OH230958   2.683   1.436  17.123 -0.0206  0.1888 -0.4356
 3156TIP3    H130959   2.742   1.415  17.051 -0.6471  0.0955 -0.9259
 3156TIP3    H230960   2.636   1.355  17.141 -0.4877  0.4382 -0.5064
 3157TIP3   OH230961   4.678   3.507   4.288 -0.2719  0.8766  0.3913
 3157TIP3    H130962   4.700   3.557   4.366  0.3223  2.0724 -0.5353
 3157TIP3    H230963   4.600   3.550   4.253 -0.5002  0.3791  0.2812
 3158TIP3   OH230964   3.049   1.569  16.071  0.0632  0.0329 -0.1721
 3158TIP3    H130965   3.130   1.553  16.118 -0.1036 -0.1021  0.0671
 3158TIP3    H230966   2.979   1.542  16.131 -0.1169 -1.1923 -0.9107
 3159TIP3   OH230967   1.118   2.759  13.084 -0.0078 -0.1602  0.3771
 3159TIP3    H130968   1.136   2.730  12.994 -0.4252 -1.7418  0.7937
 3159TIP3    H230969   1.029   2.730  13.101  0.7121 -1.5356  1.9505
 3160TIP3   OH230970   4.700   6.509  11.968  0.0219  0.1985 -0.1360
 3160TIP3    H130971   4.778   6.499  11.913 -0.6588  0.2992 -1.1316
 3160TIP3    H230972   4.627   6.493  11.908 -0.7016 -0.5951  0.9454
 3161TIP3   OH230973   4.251   3.284  16.111 -0.1864 -0.1359  0.4924
 3161TIP3    H130974   4.280   3.321  16.028 -2.1424 -0.4005 -0.3266
 3161TIP3    H230975   4.194   3.351  16.148 -0.0541 -0.4027  1.1861
 3162TIP3   OH230976   1.004   5.644  14.190 -0.5870 -0.5928 -0.1038
 3162TIP3    H130977   1.046   5.728  14.208 -1.3957 -0.3076  0.4521
 3162TIP3    H230978   0.978   5.651  14.098 -0.1140 -0.4741 -0.2350
 3163TIP3   OH230979   5.961   3.884  12.356  0.0820  0.4561  0.0874
 3163TIP3    H130980   6.055   3.865  12.360 -0.0707 -0.2253  0.5130
 3163TIP3    H230981   5.931   3.879  12.447 -0.4323  0.3482 -0.0868
 3164TIP3   OH230982   0.015   0.078   0.561 -0.2984  0.2189 -0.2586
 3164TIP3    H130983   0.007   0.011   0.493  0.2650  0.3389 -0.4453
 3164TIP3    H230984  -0.075   0.100   0.584 -0.5100  1.0386 -1.8162
 3165TIP3   OH230985   3.636   3.908   1.991 -0.5104  0.2420 -0.2543
 3165TIP3    H130986   3.627   3.980   1.928  0.9172  1.5507  0.9828
 3165TIP3    H230987   3.692   3.844   1.947  0.5026  1.1617 -0.3287
 3166TIP3   OH230988   2.934   4.584  14.309 -0.2032 -0.1030 -0.3240
 3166TIP3    H130989   2.994   4.610  14.378 -1.3730  0.6169  0.4459
 3166TIP3    H230990   2.986   4.531  14.250  0.6513 -1.2965  1.4788
 3167TIP3   OH230991   2.743   3.534  11.461  0.1426  0.1646  0.4834
 3167TIP3    H130992   2.812   3.558  11.523  0.1297  0.1584  0.5009
 3167TIP3    H230993   2.683   3.609  11.462  0.7797  0.7100 -0.4313
 3168TIP3   OH230994   0.152   0.961   3.369 -0.1798  0.1562  0.3764
 3168TIP3    H130995   0.182   0.873   3.388 -0.0367  0.5903  2.2204
 3168TIP3    H230996   0.132   0.960   3.275  0.5113 -1.6131  0.2393
 3169TIP3   OH230997   4.419   3.887   0.572 -0.1137  0.4299  0.0943
 3169TIP3    H130998   4.475   3.941   0.627  0.5961  0.6668 -0.8576
 3169TIP3    H230999   4.372   3.831   0.634  2.2218 -0.7834  0.8041
 3170TIP3   OH231000   5.005   3.719  12.114 -0.1824  0.5525  0.3375
 3170TIP3    H131001   5.025   3.811  12.097  2.1053  0.2277  1.0751
 3170TIP3    H231002   5.016   3.676  12.029 -1.8535  1.0446 -0.1396
 3171TIP3   OH231003   2.386   3.676  12.825  0.6353 -0.1893  0.8133
 3171TIP3    H131004   2.370   3.681  12.731 -0.9855 -0.4196  1.0685
 3171TIP3    H231005   2.300   3.683  12.865  1.1608 -1.5718  2.2370
 3172TIP3   OH231006   5.847   1.634  11.600  0.3395 -0.1799 -0.1241
 3172TIP3    H131007   5.842   1.628  11.696  0.2721  0.8579 -0.0600
 3172TIP3    H231008   5.771   1.688  11.576  1.7559  1.6511 -0.5600
 3173TIP3   OH231009   1.899   2.525  14.931 -0.0703 -0.0903 -0.0681
 3173TIP3    H131010   1.964   2.455  14.935  0.2467  0.3098  2.1445
 3173TIP3    H231011   1.837   2.505  15.001 -1.3158  0.5377 -0.9813
 3174TIP3   OH231012   5.320   1.181   3.575  0.1093 -0.1662  0.0111
 3174TIP3    H131013   5.396   1.157   3.522  0.0694  1.3368 -0.7471
 3174TIP3    H231014   5.320   1.276   3.577 -0.8108 -0.1697  1.4090
 3175TIP3   OH231015   6.030   1.452  13.892 -0.4098  0.5188 -0.2754
 3175TIP3    H131016   5.957   1.408  13.935 -1.3734 -0.0175 -2.4004
 3175TIP3    H231017   5.997   1.473  13.805  1.0307  2.8498 -0.2951
 3176TIP3   OH231018   3.492   6.465   2.049 -0.3134  0.3552  0.5705
 3176TIP3    H131019   3.560   6.398   2.045 -1.6177 -1.0793  1.3853
 3176TIP3    H231020   3.414   6.421   2.015 -0.3575  2.6522 -2.5090
 3177TIP3   OH231021   5.332   2.383   0.249  0.3296  0.2647  0.1845
 3177TIP3    H131022   5.279   2.309   0.279  0.5704  0.4702  1.1187
 3177TIP3    H231023   5.418   2.345   0.231 -0.2543 -0.1665 -1.8186
 3178TIP3   OH231024   3.673   3.296  14.208  0.5383 -0.5065 -0.0982
 3178TIP3    H131025   3.749   3.239  14.220  1.3896  0.3736 -1.3347
 3178TIP3    H231026   3.601   3.236  14.186  1.6569 -1.0406 -2.4085
 3179TIP3   OH231027   2.351   4.515  13.539 -0.3406 -0.3472 -0.1478
 3179TIP3    H131028   2.437   4.551  13.561  0.3015 -1.4486 -0.8466
 3179TIP3    H231029   2.347   4.519  13.444 -0.1337 -2.3919 -0.2566
 3180TIP3   OH231030   1.490   0.729  15.157 -0.2779  0.4396 -0.3628
 3180TIP3    H131031   1.579   0.694  15.155 -0.8115 -1.0230  0.4423
 3180TIP3    H231032   1.470   0.747  15.066  0.3392 -0.5673 -0.7167
 3181TIP3   OH231033   0.656   1.766   3.955 -0.2469 -0.0892  0.3958
 3181TIP3    H131034   0.573   1.794   3.994 -0.0618  0.6697  0.2568
 3181TIP3    H231035   0.696   1.709   4.020 -0.8989 -0.4992  0.4446
 3182TIP3   OH231036   2.199   1.397  11.365  0.2920 -0.2778 -0.3153
 3182TIP3    H131037   2.281   1.436  11.396 -0.8715  1.7692  0.3343
 3182TIP3    H231038   2.142   1.398  11.442 -0.4615 -1.3696 -0.8477
 3183TIP3   OH231039   0.794   2.948  16.557 -0.1299 -0.3852  0.6398
 3183TIP3    H131040   0.806   2.991  16.472  0.9681 -0.8267  0.5721
 3183TIP3    H231041   0.699   2.941  16.566 -0.2701  0.1162 -0.3277
 3184TIP3   OH231042   6.799   3.023  11.376 -0.1945 -0.2394 -0.1837
 3184TIP3    H131043   6.779   2.930  11.363  0.4626 -0.3624 -0.3763
 3184TIP3    H231044   6.886   3.023  11.416 -1.2803  0.2189  2.1993
 3185TIP3   OH231045   6.182   1.529   4.508  0.2157  0.1765 -0.0338
 3185TIP3    H131046   6.238   1.587   4.458  0.0845  0.1767 -0.1806
 3185TIP3    H231047   6.107   1.513   4.451  0.3862 -0.3672 -0.1082
 3186TIP3   OH231048   3.274   1.501  16.215 -0.3743  0.0508  0.1924
 3186TIP3    H131049   3.354   1.453  16.195 -1.4201 -1.9711  0.6905
 3186TIP3    H231050   3.253   1.477  16.305 -1.9814 -0.1029 -0.2003
 3187TIP3   OH231051   5.987   0.746   2.129  0.3400  0.3888  0.3126
 3187TIP3    H131052   5.938   0.762   2.049  0.7006  1.5614  0.3058
 3187TIP3    H231053   6.003   0.834   2.165 -0.6268 -0.1589  2.1482
 3188TIP3   OH231054   1.079   0.798  15.287 -0.0499  0.0912  0.5050
 3188TIP3    H131055   1.033   0.854  15.349 -0.7637 -0.3190  0.3577
 3188TIP3    H231056   1.145   0.753  15.340 -0.6983 -0.3069  0.9974
 3189TIP3   OH231057   1.774   0.662  15.163 -0.7272 -0.2389 -1.0628
 3189TIP3    H131058   1.828   0.611  15.223 -0.9289  2.3243  1.3879
 3189TIP3    H231059   1.834   0.693  15.096  0.6398  1.3529  0.8272
 3190TIP3   OH231060   1.039   0.306  11.532 -0.0646 -0.3739  0.3187
 3190TIP3    H131061   1.112   0.266  11.579  1.1979 -0.4337 -1.6572
 3190TIP3    H231062   1.077   0.383  11.490 -1.2248 -0.2145 -0.4592
 3191TIP3   OH231063   3.436   0.554   3.755 -0.7654 -0.1966 -0.3961
 3191TIP3    H131064   3.416   0.462   3.740 -0.9220 -0.7557  2.9316
 3191TIP3    H231065   3.351   0.598   3.750 -1.2653 -0.8489  2.0505
 3192TIP3   OH231066   6.720   0.073  14.490  0.5908  0.1149 -0.1736
 3192TIP3    H131067   6.783   0.105  14.555 -0.1898 -0.6630  0.9813
 3192TIP3    H231068   6.698  -0.015  14.519 -2.1316  0.8921  0.2646
 3193TIP3   OH231069   1.206   0.536   3.809 -0.8015  0.3153 -0.1214
 3193TIP3    H131070   1.251   0.568   3.731 -3.2418  1.9888 -0.8935
 3193TIP3    H231071   1.250   0.579   3.882  0.8401 -0.4829 -0.6038
 3194TIP3   OH231072   2.237   0.196  14.990 -0.2842  0.2714 -0.8073
 3194TIP3    H131073   2.233   0.230  14.901 -0.5405  1.7370 -0.2450
 3194TIP3    H231074   2.319   0.147  14.994 -0.4201 -0.0507 -1.9353
 3195TIP3   OH231075   3.002   3.595  12.490 -0.2940  0.3674  0.3483
 3195TIP3    H131076   3.054   3.515  12.489 -1.5179 -0.4262 -1.0568
 3195TIP3    H231077   2.926   3.574  12.543  0.4517  1.3079  1.8156
 3196TIP3   OH231078   3.400   3.144  12.636 -0.2503  0.5906  0.0739
 3196TIP3    H131079   3.461   3.112  12.702  0.4589  1.0196 -0.3579
 3196TIP3    H231080   3.313   3.135  12.676  0.0812 -0.1761  0.6305
 3197TIP3   OH231081   1.337   4.551  14.391  0.8172 -0.6123 -0.2799
 3197TIP3    H131082   1.259   4.584  14.437  0.3328 -0.8721 -0.9070
 3197TIP3    H231083   1.383   4.499  14.457  1.4429  1.0810  0.6321
 3198TIP3   OH231084   5.606   2.057   3.756 -0.3254 -0.3764  0.6188
 3198TIP3    H131085   5.681   2.109   3.787 -0.4168  1.3233 -1.8961
 3198TIP3    H231086   5.543   2.062   3.828  0.2049  1.9280  0.9806
 3199TIP3   OH231087   5.550   0.277  13.524 -0.0878  0.5815  0.1610
 3199TIP3    H131088   5.502   0.293  13.443 -0.4254  0.2975  0.3017
 3199TIP3    H231089   5.607   0.203  13.504 -0.0862  0.5873  0.1445
 3200TIP3   OH231090   3.286   1.543   4.921 -0.3168  0.7392  1.0526
 3200TIP3    H131091   3.324   1.461   4.889  0.7535  0.8601  2.0012
 3200TIP3    H231092   3.294   1.537   5.016  0.8223  2.4496  1.0775
 3201TIP3   OH231093   4.030   6.038   1.297  0.1349  0.6606 -0.3508
 3201TIP3    H131094   4.111   6.074   1.334  0.2508 -1.0987  1.1389
 3201TIP3    H231095   4.055   5.950   1.267 -1.0542  0.3737 -0.5044
 3202TIP3   OH231096   6.648   5.597  12.458 -0.1194 -0.0226  0.2573
 3202TIP3    H131097   6.683   5.676  12.499  1.3259 -0.4178 -0.1728
 3202TIP3    H231098   6.558   5.619  12.435  0.2016  1.4215  0.3503
 3203TIP3   OH231099   5.407   0.249  12.983 -0.0400  0.2866 -0.5534
 3203TIP3    H131100   5.316   0.262  13.010 -0.0565  0.4012 -0.6660
 3203TIP3    H231101   5.421   0.155  12.990 -0.3150  0.2090 -1.0133
 3204TIP3   OH231102   4.486   4.650   0.181  0.5335  0.0264  0.1758
 3204TIP3    H131103   4.479   4.579   0.245  1.0509 -0.6748 -0.5563
 3204TIP3    H231104   4.567   4.633   0.134 -0.3800 -0.0565 -1.4032
 3205TIP3   OH231105   4.912   3.108  12.573  0.0157 -0.1998  0.1594
 3205TIP3    H131106   4.902   3.038  12.508  1.0342  0.5874 -0.8617
 3205TIP3    H231107   4.948   3.064  12.650  0.5347 -0.8143 -0.4293
 3206TIP3   OH231108   6.532   6.188   0.384  0.3464  0.3478 -0.3675
 3206TIP3    H131109   6.477   6.116   0.354  0.7782  0.8751 -2.4696
 3206TIP3    H231110   6.621   6.154   0.381  0.5208  0.8569 -1.0498
 3207TIP3   OH231111   1.908   2.503   4.912 -0.1754 -0.4990  0.8235
 3207TIP3    H131112   1.917   2.584   4.961 -3.2593 -1.1806  2.6949
 3207TIP3    H231113   1.982   2.449   4.939  0.7042  0.8839  1.1771
 3208TIP3   OH231114   2.058   1.087   5.421 -0.0879  0.3035 -0.1787
 3208TIP3    H131115   2.148   1.075   5.388 -0.6872 -1.1856 -1.3020
 3208TIP3    H231116   2.026   1.165   5.374  0.1575  0.0542 -0.7610
 3209TIP3   OH231117   6.220   6.190  12.656  0.3194 -0.1359  0.0917
 3209TIP3    H131118   6.143   6.138  12.679 -0.7194  0.2368 -2.3960
 3209TIP3    H231119   6.186   6.277  12.636  1.3492  0.0189 -1.0799
 3210TIP3   OH231120   1.727   3.602  16.265  0.2024  0.0149 -0.2523
 3210TIP3    H131121   1.719   3.599  16.361  0.5723 -1.2084 -0.2506
 3210TIP3    H231122   1.732   3.510  16.239 -0.3493  0.3317 -1.4901
 3211TIP3   OH231123   5.293   5.131   0.012  0.7255 -0.7425 -0.4208
 3211TIP3    H131124   5.332   5.117  -0.075  1.8038 -1.6688  0.1958
 3211TIP3    H231125   5.347   5.199   0.052  0.2109 -0.2952 -0.4818
 3212TIP3   OH231126   4.401   1.203   3.404 -0.1411  0.3042 -0.0416
 3212TIP3    H131127   4.472   1.201   3.339  0.2975 -1.5111  0.4598
 3212TIP3    H231128   4.322   1.182   3.354 -0.1802  1.3048 -0.4131
 3213TIP3   OH231129   2.942   3.736   4.572 -0.5984  0.7848 -0.0327
 3213TIP3    H131130   3.000   3.807   4.600 -0.2451 -0.3321  2.1806
 3213TIP3    H231131   2.870   3.738   4.635  0.5004 -2.1500  1.4348
 3214TIP3   OH231132   2.361   1.768   1.772  0.5010  0.1409 -0.3748
 3214TIP3    H131133   2.305   1.750   1.847  1.1361 -2.4188 -0.4718
 3214TIP3    H231134   2.301   1.778   1.698 -0.0060  0.6440  0.1011
 3215TIP3   OH231135   0.685   6.344   2.895  0.4081  0.1346 -0.4105
 3215TIP3    H131136   0.765   6.341   2.843 -0.4134  0.1806 -1.6939
 3215TIP3    H231137   0.716   6.351   2.985  1.8476  0.2374 -0.8933
 3216TIP3   OH231138   3.294   2.612   2.505 -0.6661 -0.3322  0.6259
 3216TIP3    H131139   3.252   2.527   2.507  0.3351 -0.9475 -1.9535
 3216TIP3    H231140   3.388   2.593   2.508 -0.4244  0.6312 -0.3600
 3217TIP3   OH231141   5.600   5.012   4.450 -0.1289  0.6650  0.3013
 3217TIP3    H131142   5.624   5.100   4.419 -0.1321  0.9138  1.0068
 3217TIP3    H231143   5.521   5.026   4.502  1.2440  0.6046  2.4739
 3218TIP3   OH231144   4.322   5.661   2.726  0.2429 -0.1361  0.0989
 3218TIP3    H131145   4.379   5.698   2.659  0.5775  0.3703  0.6454
 3218TIP3    H231146   4.381   5.609   2.781 -0.0866 -0.8214 -0.1963
 3219TIP3   OH231147   6.672   5.309  12.677  0.1333 -0.1268 -0.2324
 3219TIP3    H131148   6.749   5.262  12.645 -1.0604 -2.2921  0.0373
 3219TIP3    H231149   6.600   5.246  12.672 -1.2909  1.3164  1.1755
 3220TIP3   OH231150   1.520   5.557  16.537  0.6299  0.6035 -0.1219
 3220TIP3    H131151   1.486   5.531  16.623  0.7738  0.9125  0.0304
 3220TIP3    H231152   1.442   5.567  16.482  0.3118  3.0141  0.6925
 3221TIP3   OH231153   0.123   5.232  16.274  0.4175 -0.2746  0.4468
 3221TIP3    H131154   0.169   5.316  16.273 -1.2777  0.6843  1.7330
 3221TIP3    H231155   0.078   5.228  16.189  1.2832 -0.3400 -0.0154
 3222TIP3   OH231156   4.977   0.195  15.588 -0.2056 -0.6505 -0.0312
 3222TIP3    H131157   4.982   0.291  15.584 -0.2785 -0.5036  2.4196
 3222TIP3    H231158   4.933   0.177  15.671 -0.7913 -2.8174 -0.7727
 3223TIP3   OH231159   2.521   1.748  16.344 -0.2524 -0.3855 -0.5870
 3223TIP3    H131160   2.511   1.656  16.369  0.4594 -0.4390 -0.4727
 3223TIP3    H231161   2.616   1.760  16.336 -0.3362  0.3673 -0.4940
 3224TIP3   OH231162   6.675   0.574   5.586  0.0398  0.2566  0.0069
 3224TIP3    H131163   6.695   0.484   5.561 -0.2849 -0.2272  1.4511
 3224TIP3    H231164   6.620   0.607   5.515 -0.0927 -0.7794 -0.3811
 3225TIP3   OH231165   2.908   0.761  14.087 -0.3517  0.3893 -0.0229
 3225TIP3    H131166   2.855   0.743  14.165  0.5923  2.5136  1.1340
 3225TIP3    H231167   2.944   0.676  14.063 -1.7691 -0.5398  1.0155
 3226TIP3   OH231168   4.033   1.718  13.281 -0.0181 -0.7406  0.4343
 3226TIP3    H131169   4.106   1.715  13.342  0.1942 -1.0599  0.1690
 3226TIP3    H231170   3.957   1.740  13.335  0.0666 -1.5910  0.9127
 3227TIP3   OH231171   0.911   4.332  10.404 -0.6706 -0.5467 -0.1946
 3227TIP3    H131172   1.006   4.329  10.414 -0.6193  0.7851 -0.0948
 3227TIP3    H231173   0.886   4.244  10.376  0.5074 -1.1037  0.4932
 3228TIP3   OH231174   4.594   6.190  14.788 -0.2670  0.6280 -0.1914
 3228TIP3    H131175   4.614   6.148  14.872 -1.1544  1.8162  0.6387
 3228TIP3    H231176   4.556   6.120  14.735  0.0759 -0.0817  0.4852
 3229TIP3   OH231177   2.949   5.520  13.325 -0.5098  0.5202  0.4136
 3229TIP3    H131178   2.925   5.613  13.330 -2.1198  0.0463  2.6105
 3229TIP3    H231179   3.040   5.517  13.356  0.0748  1.5215 -1.1543
 3230TIP3   OH231180   4.029   6.291  14.569  0.4611  0.3530 -0.2782
 3230TIP3    H131181   4.050   6.243  14.489  1.8681  0.7370 -0.1656
 3230TIP3    H231182   4.112   6.331  14.595 -0.4186  1.8317  0.3130
 3231TIP3   OH231183   0.933   2.544   2.275 -0.1774 -0.1853 -0.2914
 3231TIP3    H131184   0.894   2.475   2.329 -2.1945 -0.6782 -2.2729
 3231TIP3    H231185   0.924   2.624   2.328  0.9870 -1.1980  1.4714
 3232TIP3   OH231186   6.496   3.170   0.751  0.5095  0.0999 -0.2245
 3232TIP3    H131187   6.544   3.092   0.724  2.4928  0.7728  1.2297
 3232TIP3    H231188   6.476   3.215   0.669 -1.5867 -2.4129 -1.1709
 3233TIP3   OH231189   4.087   2.603  11.500 -0.1236 -0.0901 -0.2996
 3233TIP3    H131190   4.051   2.662  11.434 -1.0047 -0.5437 -0.2297
 3233TIP3    H231191   4.178   2.589  11.472 -0.3352  0.1419 -1.1264
 3234TIP3   OH231192   1.488   3.425  16.318  0.2540 -0.0510  0.0167
 3234TIP3    H131193   1.533   3.474  16.248  0.4079  0.6270  0.5807
 3234TIP3    H231194   1.466   3.341  16.278  2.2071 -0.4830 -0.2283
 3235TIP3   OH231195   4.294   1.581  13.933  0.4957 -0.5841  0.1525
 3235TIP3    H131196   4.263   1.665  13.898 -0.0608  0.1595  2.3526
 3235TIP3    H231197   4.248   1.571  14.017  0.5087 -3.1257 -0.0976
 3236TIP3   OH231198   6.298   5.000   0.169 -0.0366  0.2949 -0.1203
 3236TIP3    H131199   6.244   5.032   0.096  1.2461  1.1508 -0.7049
 3236TIP3    H231200   6.319   5.078   0.219  0.8821  0.0005 -0.0461
 3237TIP3   OH231201   3.326   0.280   2.091  0.1920 -0.4621 -0.4224
 3237TIP3    H131202   3.242   0.238   2.075  0.3280 -0.2810 -1.6600
 3237TIP3    H231203   3.317   0.319   2.177 -0.9556 -0.5294 -0.5008
 3238TIP3   OH231204   3.106   1.945   0.893  0.4833  0.5186 -0.2557
 3238TIP3    H131205   3.145   1.979   0.973  2.2235 -0.8861 -0.4874
 3238TIP3    H231206   3.172   1.887   0.856 -0.4696  0.7728 -2.4746
 3239TIP3   OH231207   1.732   1.374  17.116 -0.2579  0.7592  0.2384
 3239TIP3    H131208   1.774   1.296  17.154  2.3600  1.1930 -1.6196
 3239TIP3    H231209   1.765   1.447  17.168 -1.0488  0.8209  0.6491
 3240TIP3   OH231210   3.411   2.164  17.067  0.0715 -0.3139 -0.1213
 3240TIP3    H131211   3.394   2.151  16.974  0.7314 -3.0069  0.1058
 3240TIP3    H231212   3.484   2.226  17.070  1.2418 -1.5972 -1.4562
 3241TIP3   OH231213   2.317   5.998   5.268  0.1635  0.3699 -0.5658
 3241TIP3    H131214   2.309   5.903   5.267  0.9058  0.3086 -1.2791
 3241TIP3    H231215   2.256   6.027   5.336 -0.9669 -0.5203 -1.1853
 3242TIP3   OH231216   0.346   4.455   1.446 -0.2732  0.5081  0.7164
 3242TIP3    H131217   0.259   4.414   1.447 -0.2935  0.5525  1.4460
 3242TIP3    H231218   0.329   4.546   1.422 -0.3688  0.3889  0.3320
 3243TIP3   OH231219   2.675   2.447   1.628  0.0831  0.3159 -0.1018
 3243TIP3    H131220   2.630   2.375   1.671 -1.1681  0.8439 -0.5263
 3243TIP3    H231221   2.701   2.506   1.699  0.5364 -0.2158  0.1807
 3244TIP3   OH231222   5.535   4.426   0.118 -0.0995 -0.2120 -0.2490
 3244TIP3    H131223   5.615   4.478   0.125 -0.4177  0.1589  0.6441
 3244TIP3    H231224   5.553   4.347   0.169 -0.0502 -0.4399 -0.6200
 3245TIP3   OH231225   1.135   0.177   3.965  0.0906  0.6387  0.0009
 3245TIP3    H131226   1.077   0.253   3.961  0.5291  0.9809  0.1791
 3245TIP3    H231227   1.212   0.207   4.013  0.6145  0.3110 -0.6257
 3246TIP3   OH231228   4.273   2.737   5.293 -0.3643 -0.0182 -0.4506
 3246TIP3    H131229   4.321   2.655   5.306 -0.3450  0.0646  0.0176
 3246TIP3    H231230   4.341   2.803   5.281 -0.3194  0.2508  1.0952
 3247TIP3   OH231231   6.501   1.523   4.668 -0.0712 -0.2590 -1.6203
 3247TIP3    H131232   6.425   1.474   4.700  0.6095  0.0179  0.4751
 3247TIP3    H231233   6.486   1.612   4.698  1.0317 -0.1828 -1.3013
 3248TIP3   OH231234   5.637   2.741   6.436  0.0219 -0.1347  0.0496
 3248TIP3    H131235   5.573   2.768   6.371  1.6918 -0.6455 -1.8470
 3248TIP3    H231236   5.649   2.647   6.421  0.7359 -0.1757  0.8182
 3249TIP3   OH231237   5.024   3.440   0.092 -0.0507  0.2500 -0.0162
 3249TIP3    H131238   5.106   3.430   0.139 -0.2858  2.5346  0.9219
 3249TIP3    H231239   4.969   3.494   0.149 -1.9212 -0.5620 -0.9821
 3250TIP3   OH231240   5.342   0.164  16.516  0.3706  0.0147 -0.0356
 3250TIP3    H131241   5.405   0.172  16.587  1.9657 -2.5221 -1.1200
 3250TIP3    H231242   5.257   0.169  16.559  1.2927  0.6445  1.7706
 3251TIP3   OH231243   3.730   6.490  10.732 -0.6947 -0.2700  0.1339
 3251TIP3    H131244   3.640   6.515  10.709 -0.8913 -1.2146 -0.1795
 3251TIP3    H231245   3.776   6.490  10.648 -0.8375 -1.4642  0.0415
 3252TIP3   OH231246   4.538   1.283  17.286 -0.4327  0.4033 -0.5166
 3252TIP3    H131247   4.498   1.274  17.199 -2.1688  0.8347  0.2011
 3252TIP3    H231248   4.529   1.376  17.307 -0.3966  0.2324  0.2772
 3253TIP3   OH231249   3.626   1.280  17.038  0.2933  0.0170 -0.7724
 3253TIP3    H131250   3.621   1.318  16.950  1.3637  1.1049 -0.3848
 3253TIP3    H231251   3.549   1.313  17.083  2.0532  3.2220  0.0853
 3254TIP3   OH231252   0.092   5.074   3.828  0.0764 -0.1355 -0.1162
 3254TIP3    H131253   0.009   5.029   3.844 -0.0626  0.9738  2.5014
 3254TIP3    H231254   0.073   5.166   3.846  1.3578  0.4275 -1.5593
 3255TIP3   OH231255   4.171   4.292  11.754 -0.2207 -0.3045 -0.3396
 3255TIP3    H131256   4.132   4.205  11.758  1.9904 -1.2828  0.6634
 3255TIP3    H231257   4.096   4.351  11.742 -1.7220 -2.3365 -1.1992
 3256TIP3   OH231258   2.404   0.283  12.074 -0.4359 -0.2234  0.2237
 3256TIP3    H131259   2.434   0.362  12.029 -1.1774  0.1870  0.4463
 3256TIP3    H231260   2.401   0.307  12.166 -0.8081 -0.4672  0.2776
 3257TIP3   OH231261   2.009   4.198   5.055 -0.0180 -0.2276 -0.2353
 3257TIP3    H131262   2.099   4.176   5.078  0.7395  2.4718 -0.5112
 3257TIP3    H231263   1.992   4.149   4.975  1.3340 -0.4371 -0.3985
 3258TIP3   OH231264   4.759   0.949   1.549  0.2770 -0.6048 -0.0470
 3258TIP3    H131265   4.790   0.940   1.639  0.5870 -1.6037 -0.2465
 3258TIP3    H231266   4.687   1.011   1.554  0.1071 -0.8832  0.9351
 3259TIP3   OH231267   6.126   3.161   5.168  0.0287  0.2074  0.0874
 3259TIP3    H131268   6.089   3.074   5.157  0.2861  0.3295 -1.8715
 3259TIP3    H231269   6.050   3.218   5.181 -0.1983 -0.1705  0.4105
 3260TIP3   OH231270   2.745   3.272   1.682  0.0994  0.1349 -0.0781
 3260TIP3    H131271   2.719   3.184   1.708 -1.5726  0.5244 -0.3629
 3260TIP3    H231272   2.759   3.318   1.765  0.9165 -0.3726  0.0700
 3261TIP3   OH231273   3.361   6.391   5.892 -0.5171 -0.2639 -0.3106
 3261TIP3    H131274   3.328   6.327   5.829 -0.8745  0.0100 -0.4034
 3261TIP3    H231275   3.305   6.380   5.969 -0.0125 -0.6702 -0.0022
 3262TIP3   OH231276   3.471   3.059  12.323  0.1597 -0.3333 -0.6012
 3262TIP3    H131277   3.445   3.052  12.232  1.2574  0.8496 -1.0204
 3262TIP3    H231278   3.388   3.070  12.371 -0.2983  0.9788 -1.6575
 3263TIP3   OH231279   1.962   0.441   4.027 -0.1472 -0.5286 -0.2764
 3263TIP3    H131280   1.942   0.349   4.014  2.1120 -0.9455 -1.0770
 3263TIP3    H231281   1.962   0.479   3.940  2.5220 -0.5892 -0.3430
 3264TIP3   OH231282   6.805   0.885   1.768 -0.6360  0.4021  0.4156
 3264TIP3    H131283   6.750   0.830   1.712  1.3327 -0.4477 -0.7832
 3264TIP3    H231284   6.812   0.968   1.720 -0.2365  0.2186  0.1434
 3265TIP3   OH231285   3.659   1.368   1.825  0.3850  0.5173  0.0824
 3265TIP3    H131286   3.569   1.399   1.830 -0.0101 -0.2443 -1.9429
 3265TIP3    H231287   3.651   1.273   1.813  1.4020  0.5703 -1.1744
 3266TIP3   OH231288   6.679   2.560   3.260  0.6298  0.2428 -0.5103
 3266TIP3    H131289   6.611   2.495   3.279  2.4714 -1.9696 -1.2431
 3266TIP3    H231290   6.714   2.533   3.175  0.7169  2.8655 -1.3434
 3267TIP3   OH231291   0.745   3.730  12.823  0.6709 -0.3810 -0.3888
 3267TIP3    H131292   0.810   3.739  12.754 -2.0448  4.1893 -2.6419
 3267TIP3    H231293   0.767   3.799  12.886 -0.3209 -0.6441  0.2717
 3268TIP3   OH231294   3.742   4.050  13.378 -0.1745  0.1237  0.0631
 3268TIP3    H131295   3.813   3.986  13.383 -0.3668 -0.0980 -0.0315
 3268TIP3    H231296   3.725   4.060  13.285 -0.1267  0.3355  0.0766
 3269TIP3   OH231297   4.758   1.710   0.934 -0.0763  0.2201 -0.5381
 3269TIP3    H131298   4.848   1.684   0.952 -0.2592  1.0227  1.6597
 3269TIP3    H231299   4.767   1.792   0.884  0.4028 -0.7281 -2.0574
 3270TIP3   OH231300   3.053   3.832   4.135 -0.4719  0.6535 -0.2609
 3270TIP3    H131301   3.132   3.848   4.083  0.7406 -0.7608  1.0886
 3270TIP3    H231302   3.043   3.737   4.136 -0.8682  0.6854  1.4632
 3271TIP3   OH231303   5.481   0.467   0.019  0.3363  0.3237  0.5319
 3271TIP3    H131304   5.443   0.553   0.004  1.5282  0.3273 -3.0213
 3271TIP3    H231305   5.496   0.432  -0.069  1.8964 -2.5983  1.8826
 3272TIP3   OH231306   2.304   5.577  10.924 -1.0307  0.4861 -0.2668
 3272TIP3    H131307   2.376   5.519  10.900 -0.4382  1.0310  0.1697
 3272TIP3    H231308   2.228   5.543  10.876 -0.1584  0.8085 -1.9129
 3273TIP3   OH231309   0.295   5.852   1.490 -0.0614 -0.5002 -0.3744
 3273TIP3    H131310   0.339   5.861   1.405  1.6154  2.4541  0.7432
 3273TIP3    H231311   0.212   5.897   1.480  0.2377  0.0498 -0.3819
 3274TIP3   OH231312   1.067   2.215   4.596  0.3529  0.2626  0.2560
 3274TIP3    H131313   0.991   2.169   4.559 -0.0284  1.0405  0.0765
 3274TIP3    H231314   1.136   2.203   4.531  0.4987 -0.7435  0.5749
 3275TIP3   OH231315   1.628   4.899  15.803  0.1997  0.1938 -0.9501
 3275TIP3    H131316   1.592   4.964  15.864 -2.2770 -0.8297 -1.2658
 3275TIP3    H231317   1.697   4.946  15.756 -0.7964  2.2804 -0.4069
 3276TIP3   OH231318   2.202   3.537   1.281 -0.0422  0.3411 -0.6476
 3276TIP3    H131319   2.224   3.464   1.339 -0.4984  1.1650  0.5909
 3276TIP3    H231320   2.261   3.527   1.206  2.4651  0.7700  1.1843
 3277TIP3   OH231321   5.244   4.501   1.525 -0.1136  0.6202 -0.0062
 3277TIP3    H131322   5.332   4.461   1.526  0.5704  2.0200 -2.2338
 3277TIP3    H231323   5.260   4.594   1.539 -1.4644  0.5917  1.9531
 3278TIP3   OH231324   3.805   3.744   4.513 -0.0007  0.0754  0.5313
 3278TIP3    H131325   3.734   3.691   4.476  0.0055 -0.6907  1.5956
 3278TIP3    H231326   3.821   3.811   4.447  0.5220 -1.6954 -1.2284
 3279TIP3   OH231327   5.360   3.888  15.909  0.5415  0.4053 -0.1584
 3279TIP3    H131328   5.451   3.858  15.910  0.4995  0.2756 -0.0979
 3279TIP3    H231329   5.362   3.972  15.863  0.8007  0.7579  0.4941
 3280TIP3   OH231330   4.648   3.352  12.152 -0.0312  0.5943  0.5519
 3280TIP3    H131331   4.680   3.442  12.154  0.3217  0.4732  0.2610
 3280TIP3    H231332   4.699   3.307  12.219 -0.4296  0.6838  0.9169
 3281TIP3   OH231333   1.289   3.632   2.835 -0.6770 -0.2862 -0.0240
 3281TIP3    H131334   1.231   3.672   2.900 -0.4533 -0.5502  0.3338
 3281TIP3    H231335   1.349   3.703   2.810 -0.8259 -0.1581 -0.0175
 3282TIP3   OH231336   0.225   0.624  11.528  0.0397 -0.5081  0.3424
 3282TIP3    H131337   0.143   0.588  11.560 -0.8869 -1.3141 -2.7250
 3282TIP3    H231338   0.284   0.548  11.522  0.7249 -0.0930  1.6202
 3283TIP3   OH231339   1.804   0.063   4.638 -0.2906 -0.0758 -0.3816
 3283TIP3    H131340   1.840   0.126   4.575  0.2966  0.2319  0.2616
 3283TIP3    H231341   1.774   0.117   4.712 -0.4773 -0.4868 -0.1575
 3284TIP3   OH231342   5.016   3.636  13.815 -0.2974 -0.0072 -0.2134
 3284TIP3    H131343   4.922   3.643  13.797  0.0219 -0.4059 -2.1192
 3284TIP3    H231344   5.040   3.722  13.850 -0.9634  0.7959 -1.6827
 3285TIP3   OH231345   3.349   0.753  16.335  0.6493 -0.0742 -0.6361
 3285TIP3    H131346   3.272   0.712  16.295 -0.5971  2.5399 -1.0209
 3285TIP3    H231347   3.316   0.795  16.414  1.4320  2.0000 -1.3610
 3286TIP3   OH231348   2.609   1.253  11.952  0.0503 -0.1820  0.6841
 3286TIP3    H131349   2.658   1.192  11.897  0.5907  1.6514 -0.9446
 3286TIP3    H231350   2.672   1.284  12.017 -0.3250 -1.6052  1.7499
 3287TIP3   OH231351   1.126   2.908   5.749 -0.1172  0.5235  0.2829
 3287TIP3    H131352   1.100   2.816   5.754 -1.4482  0.9680  2.8294
 3287TIP3    H231353   1.044   2.954   5.731 -0.2200  1.4830  2.9238
 3288TIP3   OH231354   2.734   5.445  16.000  0.0855  0.1035  0.2555
 3288TIP3    H131355   2.815   5.405  16.030  0.3396  1.4208  1.3689
 3288TIP3    H231356   2.721   5.520  16.058 -1.1900  0.7257 -0.8068
 3289TIP3   OH231357   3.860   5.044  14.577  0.0271  0.2644 -0.4432
 3289TIP3    H131358   3.920   5.062  14.505  1.7247 -0.4756  0.7399
 3289TIP3    H231359   3.883   4.955  14.606  0.4988  1.1440  2.0307
 3290TIP3   OH231360   2.399   0.658   3.266  0.1969  0.3407 -0.0590
 3290TIP3    H131361   2.381   0.746   3.233  1.6664  1.3687  1.7862
 3290TIP3    H231362   2.341   0.649   3.342 -0.8336 -0.7854 -0.9422
 3291TIP3   OH231363   2.448   6.091   6.103  0.0603  0.0256 -0.6913
 3291TIP3    H131364   2.375   6.057   6.155  0.1483  2.5815  1.2014
 3291TIP3    H231365   2.423   6.182   6.084  3.1423  1.2553  0.8353
 3292TIP3   OH231366   4.427   5.210  14.986  0.0079  0.0044  0.6341
 3292TIP3    H131367   4.480   5.140  14.947  1.3924  1.9058 -1.0321
 3292TIP3    H231368   4.361   5.230  14.919 -1.1775 -0.5282  1.6177
 3293TIP3   OH231369   0.570   0.162   0.672 -0.4213  0.4485 -0.0693
 3293TIP3    H131370   0.634   0.119   0.729 -0.9869 -0.4981 -0.1338
 3293TIP3    H231371   0.604   0.148   0.584 -0.2980  0.6477 -0.0532
 3294TIP3   OH231372   4.545   0.375  14.340  0.5673  0.3100 -0.2474
 3294TIP3    H131373   4.551   0.311  14.412 -0.4799  0.9332  0.3937
 3294TIP3    H231374   4.607   0.444  14.364 -2.0117  2.0615  1.6517
 3295TIP3   OH231375   6.101   4.489  14.661 -0.5695 -0.2689  0.2692
 3295TIP3    H131376   6.025   4.494  14.719 -0.7453  0.5937 -0.0258
 3295TIP3    H231377   6.115   4.395  14.648 -2.1648 -0.4410 -0.4094
 3296TIP3   OH231378   3.668   5.048   3.946  0.1578 -0.2649 -0.3173
 3296TIP3    H131379   3.663   4.953   3.956  0.3186 -0.0611  1.9338
 3296TIP3    H231380   3.579   5.079   3.966  0.0080  0.0272 -1.4278
 3297TIP3   OH231381   2.571   2.382  10.591 -0.2965 -0.1281 -0.6858
 3297TIP3    H131382   2.658   2.349  10.568  0.6768  0.0538  2.4650
 3297TIP3    H231383   2.517   2.304  10.600 -0.0557 -0.3454 -1.1095
 3298TIP3   OH231384   0.650   2.585  16.582 -0.3930  0.2813 -0.0244
 3298TIP3    H131385   0.567   2.616  16.545  0.9738  3.5580 -0.5409
 3298TIP3    H231386   0.668   2.504  16.535 -3.3376 -0.5923  0.2144
 3299TIP3   OH231387   1.660   6.649  12.290  0.0453 -0.1822  0.6607
 3299TIP3    H131388   1.748   6.684  12.303 -0.3310  1.5974 -1.3175
 3299TIP3    H231389   1.607   6.692  12.357  0.3418  0.0299  0.7571
 3300TIP3   OH231390   4.975   1.966   1.429 -0.5150  0.3372 -0.1691
 3300TIP3    H131391   4.967   1.871   1.436  0.7553  0.2083 -0.2734
 3300TIP3    H231392   4.947   1.987   1.341  0.6789 -0.1324 -0.6735
 3301TIP3   OH231393   4.016   4.833  16.263 -0.1987  0.3559  0.2053
 3301TIP3    H131394   3.996   4.745  16.229 -0.0404  0.8788 -1.2777
 3301TIP3    H231395   4.108   4.846  16.241 -0.4912  1.2933 -0.4608
 3302TIP3   OH231396   2.835   1.365   3.856 -0.0211  0.2022 -0.3298
 3302TIP3    H131397   2.839   1.347   3.762 -1.2403 -3.7767  0.3001
 3302TIP3    H231398   2.918   1.333   3.891  0.0308  0.7820  0.0988
 3303TIP3   OH231399   4.510   3.050  12.064  0.5123 -0.0603 -0.0878
 3303TIP3    H131400   4.484   3.092  12.146  0.5508  0.6522 -0.4329
 3303TIP3    H231401   4.428   3.035  12.017  0.6019  0.8634 -0.5475
 3304TIP3   OH231402   3.253   5.550   0.130  0.4058 -0.7200 -0.1255
 3304TIP3    H131403   3.341   5.556   0.092  0.2544  0.3830 -0.3179
 3304TIP3    H231404   3.207   5.626   0.095 -0.6425 -1.3202 -0.0569
 3305TIP3   OH231405   1.820   2.199  11.604 -0.7269  0.2555  0.5852
 3305TIP3    H131406   1.872   2.233  11.677 -0.1335 -1.5889  1.0397
 3305TIP3    H231407   1.759   2.270  11.583 -0.6369  0.9689  2.6294
 3306TIP3   OH231408   1.828   5.589  13.817  0.1115 -0.3685  0.3311
 3306TIP3    H131409   1.763   5.567  13.751 -0.6134 -1.3843  1.3597
 3306TIP3    H231410   1.790   5.664  13.864  1.0612  0.9749 -1.0022
 3307TIP3   OH231411   5.854   1.966   1.059 -0.0767 -0.1349 -0.2734
 3307TIP3    H131412   5.813   1.991   1.142 -0.4150  1.3576 -0.8687
 3307TIP3    H231413   5.922   1.904   1.084 -0.8399 -0.4766  1.0174
 3308TIP3   OH231414   3.907   1.398   0.324  0.2743 -0.1420 -0.0019
 3308TIP3    H131415   3.946   1.397   0.411 -1.0436  0.9266  0.6316
 3308TIP3    H231416   3.919   1.487   0.293 -2.3393  0.4611  0.5635
 3309TIP3   OH231417   4.508   6.278   2.848  0.2730  0.5268 -0.8587
 3309TIP3    H131418   4.600   6.279   2.822  0.2201 -1.2110 -1.1393
 3309TIP3    H231419   4.509   6.257   2.941  0.1622  0.5011 -0.8631
 3310TIP3   OH231420   1.266   0.755   4.732  0.0925 -0.3950 -0.1185
 3310TIP3    H131421   1.200   0.712   4.787  0.1003 -1.7935 -1.1506
 3310TIP3    H231422   1.341   0.695   4.735  0.4359  0.0001 -0.8562
 3311TIP3   OH231423   0.034   3.697  12.002  0.4186  0.0873  0.3033
 3311TIP3    H131424  -0.029   3.689  12.074  1.4199  3.0592  1.6273
 3311TIP3    H231425   0.103   3.634  12.023  0.6111  0.7910  1.9244
 3312TIP3   OH231426   5.021   2.718  16.958 -0.1369  0.0472 -0.1712
 3312TIP3    H131427   5.111   2.706  16.927 -0.9150 -1.5902 -1.8822
 3312TIP3    H231428   4.994   2.631  16.987 -1.4935  0.3413 -0.5302
 3313TIP3   OH231429   1.136   6.062   0.448  0.3283 -0.3711 -0.4464
 3313TIP3    H131430   1.108   5.971   0.442 -0.0430 -0.3503  0.7287
 3313TIP3    H231431   1.197   6.074   0.375  0.6134 -1.6433 -0.4270
 3314TIP3   OH231432   0.025   3.432   5.983  0.4740 -0.0456  0.1901
 3314TIP3    H131433   0.028   3.521   5.949  1.1918 -0.3128 -0.4485
 3314TIP3    H231434  -0.066   3.404   5.970 -0.2159  1.2166  2.0415
 3315TIP3   OH231435   4.732   0.944   5.986  0.3947  0.4399  0.7234
 3315TIP3    H131436   4.700   1.028   5.953  1.8161  1.2229  1.2933
 3315TIP3    H231437   4.704   0.943   6.078  0.8423  0.5349  0.8617
 3316TIP3   OH231438   3.493   1.301  10.581  0.3654 -0.0503  0.1382
 3316TIP3    H131439   3.563   1.309  10.517  0.1536  2.9820  0.2266
 3316TIP3    H231440   3.415   1.334  10.537 -0.0240  1.0023  1.5779
 3317TIP3   OH231441   3.926   6.348   0.029  0.0319  0.1893 -0.5359
 3317TIP3    H131442   3.970   6.279   0.079 -0.6915  1.0503  1.3504
 3317TIP3    H231443   3.833   6.326   0.034 -0.2218  1.3597  0.2074
 3318TIP3   OH231444   3.385   4.961   1.061  0.5186 -0.0875 -0.2812
 3318TIP3    H131445   3.379   4.871   1.093 -0.5810 -0.0252 -0.2902
 3318TIP3    H231446   3.440   4.955   0.983 -1.9427 -1.2387 -1.9797
 3319TIP3   OH231447   5.750   4.741   5.143  0.4004 -0.7912 -0.2626
 3319TIP3    H131448   5.806   4.813   5.173 -1.6076  0.1029  1.4669
 3319TIP3    H231449   5.805   4.663   5.153  1.3213  0.0359  1.5479
 3320TIP3   OH231450   5.155   1.090  15.378  0.2886 -0.5609 -0.4544
 3320TIP3    H131451   5.148   1.065  15.286 -0.7148 -2.8707  0.2346
 3320TIP3    H231452   5.069   1.071  15.415  0.1149  2.0755  0.5815
 3321TIP3   OH231453   6.583   1.634   0.082 -0.4594  0.2251  0.0200
 3321TIP3    H131454   6.537   1.693   0.022  1.6922 -1.4448 -3.4999
 3321TIP3    H231455   6.558   1.546   0.053 -0.2209 -0.6325  2.3265
 3322TIP3   OH231456   2.705   1.516  11.981  0.4698 -0.0662 -0.4591
 3322TIP3    H131457   2.715   1.608  12.004 -2.6144  0.1445  0.2390
 3322TIP3    H231458   2.718   1.469  12.064 -2.5242  0.1204  0.1786
 3323TIP3   OH231459   4.118   1.329  16.109 -0.3965 -0.0519  0.5261
 3323TIP3    H131460   4.064   1.345  16.186 -0.3268 -1.3081  0.8470
 3323TIP3    H231461   4.109   1.408  16.056 -1.1450  0.4559  1.4060
 3324TIP3   OH231462   5.214   2.777  12.490 -0.2710 -0.0170 -0.0296
 3324TIP3    H131463   5.308   2.763  12.503 -0.4573 -0.8825  0.4350
 3324TIP3    H231464   5.203   2.783  12.395  0.2756  0.2420 -0.0762
 3325TIP3   OH231465   5.108   5.204  16.397  0.0638 -0.2047  0.5714
 3325TIP3    H131466   5.096   5.175  16.307 -1.9338 -0.0231  0.7518
 3325TIP3    H231467   5.112   5.122  16.448 -1.5108 -0.2678  0.6146
 3326TIP3   OH231468   3.343   5.668   3.467  0.3557 -0.2424 -0.2211
 3326TIP3    H131469   3.351   5.665   3.371 -1.1254  3.6360 -0.5789
 3326TIP3    H231470   3.426   5.631   3.499  1.1614 -0.9995 -2.9933
 3327TIP3   OH231471   3.393   3.233  14.580  0.0703  0.0347  0.0968
 3327TIP3    H131472   3.300   3.252  14.591 -0.8593 -3.4019 -1.0827
 3327TIP3    H231473   3.412   3.256  14.489  0.5315  1.1705  0.4650
 3328TIP3   OH231474   0.265   4.754   3.117  0.1669  0.0520 -0.1332
 3328TIP3    H131475   0.346   4.713   3.086  0.2297  0.9419 -1.1415
 3328TIP3    H231476   0.196   4.715   3.065 -0.0264 -0.4534  0.4927
 3329TIP3   OH231477   5.456   4.010  13.047  0.3011  0.2546  0.1223
 3329TIP3    H131478   5.415   4.088  13.009  1.5063  0.7925 -0.1079
 3329TIP3    H231479   5.529   3.991  12.988  0.3691 -0.7137  0.5081
 3330TIP3   OH231480   3.015   5.330  14.785 -0.5235  0.1611 -0.3076
 3330TIP3    H131481   3.059   5.415  14.781 -0.4363  0.0920 -0.8809
 3330TIP3    H231482   2.995   5.309  14.693 -0.5066 -0.4553 -0.1738
 3331TIP3   OH231483   6.399   4.528   4.147  0.4676  0.0065 -0.1322
 3331TIP3    H131484   6.437   4.566   4.068 -0.6539  0.8571 -0.2624
 3331TIP3    H231485   6.352   4.600   4.188 -0.4446 -0.8831  0.3840
 3332TIP3   OH231486   3.747   0.024   3.767 -0.3015 -0.2525 -0.1241
 3332TIP3    H131487   3.654   0.016   3.785  0.2298 -3.1864  1.5911
 3332TIP3    H231488   3.753   0.031   3.672 -2.1332 -2.4135 -0.4314
 3333TIP3   OH231489   2.675   6.729  15.202 -0.5023 -0.3126  0.9177
 3333TIP3    H131490   2.749   6.739  15.261 -1.1072 -0.8835  1.7949
 3333TIP3    H231491   2.699   6.779  15.124  1.3990 -1.6521  0.6165
 3334TIP3   OH231492   5.975   0.486   2.177 -0.0373 -0.2137  0.2742
 3334TIP3    H131493   6.008   0.491   2.267  1.2810  0.7126 -0.2593
 3334TIP3    H231494   5.977   0.576   2.145 -1.3180 -0.4149 -0.4077
 3335TIP3   OH231495   1.113   6.132  12.171  0.3230  0.3914  0.3443
 3335TIP3    H131496   1.177   6.138  12.099  1.9256  0.0665  1.7093
 3335TIP3    H231497   1.085   6.040  12.170  1.7611 -0.0871  1.2829
 3336TIP3   OH231498   0.526   4.208  15.840 -0.0810 -0.5598  0.0817
 3336TIP3    H131499   0.471   4.259  15.900  1.8553  0.8673  0.6785
 3336TIP3    H231500   0.494   4.232  15.753 -1.1489 -0.6052  0.4523
 3337TIP3   OH231501   2.562   5.736   3.721 -0.0099 -0.9860  0.2717
 3337TIP3    H131502   2.489   5.768   3.668  0.9026 -0.3132 -0.5965
 3337TIP3    H231503   2.580   5.648   3.687  0.2962 -0.7204 -0.2549
 3338TIP3   OH231504   2.086   2.721  17.259  0.4184 -0.1798  0.1126
 3338TIP3    H131505   2.094   2.759  17.172  1.3467 -0.6392 -0.0099
 3338TIP3    H231506   1.993   2.697  17.267 -0.2798  2.4728  0.3616
 3339TIP3   OH231507   4.305   3.217   5.908  0.4986  0.2992  0.5430
 3339TIP3    H131508   4.314   3.220   6.003  1.7337 -0.9396  0.4917
 3339TIP3    H231509   4.316   3.124   5.886  0.0080  0.5455 -0.7800
 3340TIP3   OH231510   1.551   3.871  11.810 -0.4145  0.4414  0.3490
 3340TIP3    H131511   1.519   3.864  11.720 -1.1589  0.2181  0.6292
 3340TIP3    H231512   1.549   3.782  11.843 -2.1529  0.7976  1.2634
 3341TIP3   OH231513   2.191   5.524  15.952 -0.6160  0.1794  0.2275
 3341TIP3    H131514   2.249   5.457  15.988 -1.2792  0.9107  2.7630
 3341TIP3    H231515   2.105   5.481  15.947 -0.6062  0.1994 -0.1677
 3342TIP3   OH231516   4.273   5.538  15.121 -0.0304 -0.7953  0.2387
 3342TIP3    H131517   4.319   5.470  15.170  0.0762 -0.4675  0.5964
 3342TIP3    H231518   4.315   5.539  15.036  1.0256 -0.0834  0.7624
 3343TIP3   OH231519   5.496   6.539   2.750 -0.0301 -0.6069  0.3898
 3343TIP3    H131520   5.473   6.462   2.698 -1.0801  0.2426 -0.4221
 3343TIP3    H231521   5.569   6.579   2.703  0.8544 -1.3735  1.0866
 3344TIP3   OH231522   4.315   0.411  16.327  0.5475  0.2825 -0.0522
 3344TIP3    H131523   4.370   0.417  16.249  0.7862  1.2686  0.1810
 3344TIP3    H231524   4.229   0.444  16.298  0.6088  0.5527  0.0668
 3345TIP3   OH231525   2.857   4.872  17.170  0.7392 -0.1659  0.3116
 3345TIP3    H131526   2.887   4.962  17.156  0.3039 -0.1829 -0.7940
 3345TIP3    H231527   2.798   4.878  17.244  0.0969  0.5975 -0.2497
 3346TIP3   OH231528   1.456   1.564  12.085  0.4099  0.2119 -0.1319
 3346TIP3    H131529   1.475   1.564  12.179 -1.4950 -0.5740  0.2726
 3346TIP3    H231530   1.488   1.649  12.055 -0.3642  1.1203  1.5214
 3347TIP3   OH231531   4.232   5.989  12.469  0.1157 -0.2382  0.4983
 3347TIP3    H131532   4.195   6.069  12.432 -0.2785  0.1603  1.7342
 3347TIP3    H231533   4.298   6.020  12.532  2.6684 -0.9172 -1.7170
 3348TIP3   OH231534   3.393   1.866  10.757  0.0199 -0.3462 -0.0441
 3348TIP3    H131535   3.445   1.899  10.683 -2.2201  0.7506 -1.1728
 3348TIP3    H231536   3.342   1.941  10.786 -1.2453 -1.5077  0.7757
 3349TIP3   OH231537   2.574   2.141   0.974 -0.7856  0.3126 -0.1355
 3349TIP3    H131538   2.506   2.180   1.029 -1.7158 -1.0333 -0.2863
 3349TIP3    H231539   2.531   2.064   0.935  1.0609 -1.0192  0.4010
 3350TIP3   OH231540   4.350   0.360  14.145  0.0479 -0.3163 -0.6314
 3350TIP3    H131541   4.410   0.395  14.080  1.2782 -0.7288  0.2581
 3350TIP3    H231542   4.391   0.379  14.229 -0.3966 -1.7835 -0.0519
 3351TIP3   OH231543   0.066   0.594  13.259 -0.1655 -0.1891 -0.0156
 3351TIP3    H131544   0.148   0.544  13.257 -0.2191 -0.2573 -0.6719
 3351TIP3    H231545  -0.001   0.529  13.279 -0.4382 -0.6805 -2.3949
 3352TIP3   OH231546   6.221   5.416   6.370 -0.3675  0.5968  0.7221
 3352TIP3    H131547   6.166   5.360   6.316  0.3411  0.8161 -0.2481
 3352TIP3    H231548   6.162   5.452   6.437 -0.9639 -0.7531  0.9283
 3353TIP3   OH231549   5.676   5.512   0.065 -0.4854 -0.1317 -0.2154
 3353TIP3    H131550   5.725   5.524   0.147  0.8958 -1.3189 -0.8390
 3353TIP3    H231551   5.666   5.601   0.031  0.8974  0.1797  0.1397
 3354TIP3   OH231552   6.137   3.528   4.307  0.0999 -0.0085  0.2853
 3354TIP3    H131553   6.161   3.542   4.216 -0.1775 -1.3352  0.0040
 3354TIP3    H231554   6.045   3.556   4.312  0.6279  1.7392  0.5718
 3355TIP3   OH231555   4.833   1.622   3.980 -0.1284 -0.3072 -0.3607
 3355TIP3    H131556   4.746   1.586   3.967  0.6320 -2.1231 -0.6523
 3355TIP3    H231557   4.822   1.690   4.046 -1.3598 -2.3578  1.6370
 3356TIP3   OH231558   5.088   2.310  12.768  0.1550  0.1855 -0.5864
 3356TIP3    H131559   5.028   2.260  12.713  1.3011 -0.4572 -1.2644
 3356TIP3    H231560   5.094   2.396  12.726 -0.0591  0.1491 -0.6881
 3357TIP3   OH231561   0.901   0.296   2.539  0.0403  0.1087  0.1901
 3357TIP3    H131562   0.819   0.275   2.494 -0.8220  0.0826  1.7021
 3357TIP3    H231563   0.970   0.276   2.476 -1.1916  2.1635 -1.8953
 3358TIP3   OH231564   0.748   4.133  16.834  0.1334 -0.2350 -0.4291
 3358TIP3    H131565   0.794   4.212  16.807 -0.6046  0.0890 -0.7445
 3358TIP3    H231566   0.691   4.162  16.906 -0.8677 -0.2721 -1.1995
 3359TIP3   OH231567   4.780   0.548   3.746  0.6710  0.1390  0.1505
 3359TIP3    H131568   4.725   0.482   3.703  0.2424  0.2437  0.5346
 3359TIP3    H231569   4.869   0.514   3.738  0.4800 -0.3610  0.1241
 3360TIP3   OH231570   4.706   6.746  15.643  0.1478  0.1837  0.5483
 3360TIP3    H131571   4.743   6.692  15.713  0.0940 -1.2277 -0.4834
 3360TIP3    H231572   4.772   6.744  15.574  0.9323  2.9008  1.1294
 3361TIP3   OH231573   5.893   2.493  16.451  0.7142 -0.5556 -0.7055
 3361TIP3    H131574   5.854   2.412  16.484  2.6510 -0.7763  1.1199
 3361TIP3    H231575   5.965   2.463  16.395  1.4302 -0.1049 -0.0260
 3362TIP3   OH231576   4.779   3.972   0.412 -0.3125  0.0385  0.1505
 3362TIP3    H131577   4.761   3.882   0.440 -0.5977 -0.4110 -1.3826
 3362TIP3    H231578   4.831   3.962   0.332 -0.3425  1.2320 -0.0285
 3363TIP3   OH231579   3.270   1.721  12.929 -0.0928 -0.9628  0.2990
 3363TIP3    H131580   3.296   1.634  12.958 -0.1676 -0.7244  1.0952
 3363TIP3    H231581   3.248   1.767  13.010 -0.6197 -0.3947 -0.1668
 3364TIP3   OH231582   3.400   5.390  14.610  0.3202 -0.3518  0.2670
 3364TIP3    H131583   3.379   5.447  14.536 -0.0098  1.7010  1.9039
 3364TIP3    H231584   3.379   5.301  14.579 -0.0770  0.5077 -1.9831
 3365TIP3   OH231585   5.371   1.675  12.025  0.5054  0.7500 -0.1456
 3365TIP3    H131586   5.447   1.728  12.003  0.5979  1.3931  1.6346
 3365TIP3    H231587   5.404   1.585  12.029  0.8768  0.8622 -0.7016
 3366TIP3   OH231588   1.304   0.612   4.382 -0.1172  0.2359 -0.1124
 3366TIP3    H131589   1.232   0.560   4.345 -0.1038 -1.1701  1.8109
 3366TIP3    H231590   1.263   0.695   4.406 -0.8057 -0.0347 -0.3250
 3367TIP3   OH231591   2.869   4.762   0.675  0.2218  0.7509 -0.2419
 3367TIP3    H131592   2.864   4.817   0.754 -1.1517  0.9506 -0.4546
 3367TIP3    H231593   2.962   4.755   0.657  0.5141  1.3478  0.9623
 3368TIP3   OH231594   3.769   1.816  11.213  0.2535  0.2217 -0.0796
 3368TIP3    H131595   3.677   1.832  11.233 -0.1156  1.0702 -2.3501
 3368TIP3    H231596   3.780   1.722  11.228 -0.8208  0.2126  0.7640
 3369TIP3   OH231597   1.984   2.830  15.080  0.5435  0.4622  0.4022
 3369TIP3    H131598   2.079   2.831  15.087  0.5146  0.0775  0.9231
 3369TIP3    H231599   1.964   2.746  15.038  0.3732 -0.0100  1.4123
 3370TIP3   OH231600   4.253   4.672   4.436  0.1220  0.1755 -0.0896
 3370TIP3    H131601   4.183   4.685   4.372  0.5353  0.0857 -0.5565
 3370TIP3    H231602   4.258   4.755   4.483 -1.0814 -0.1982  0.7215
 3371TIP3   OH231603   0.579   3.069   3.846  0.3515  0.3263 -1.0018
 3371TIP3    H131604   0.544   3.127   3.913 -0.9470 -0.5771 -0.8754
 3371TIP3    H231605   0.674   3.085   3.847  0.5942 -0.9046  2.2544
 3372TIP3   OH231606   1.174   4.142  14.519  0.1659  0.2030 -0.4641
 3372TIP3    H131607   1.233   4.143  14.444 -0.5985  1.1026 -1.0669
 3372TIP3    H231608   1.232   4.135  14.595  1.0522  1.1183 -1.0471
 3373TIP3   OH231609   2.498   0.248   2.689  0.0758  0.1054  0.2903
 3373TIP3    H131610   2.402   0.247   2.682  0.0988 -1.2978  0.1633
 3373TIP3    H231611   2.523   0.156   2.693  1.5554  0.3986 -1.4548
 3374TIP3   OH231612   0.005   2.673   0.364 -0.2221 -0.3276 -0.1060
 3374TIP3    H131613   0.079   2.687   0.422  0.5835 -3.0307 -0.3892
 3374TIP3    H231614  -0.066   2.724   0.402  1.3220  0.9531  1.1124
 3375TIP3   OH231615   6.193   3.339  15.490 -1.0188  0.4390  0.6508
 3375TIP3    H131616   6.282   3.334  15.455 -2.0901 -0.6397 -2.0947
 3375TIP3    H231617   6.184   3.260  15.543  0.3912  1.7101  2.8329
 3376TIP3   OH231618   0.319   5.307   2.099  0.1480  0.2140 -0.2982
 3376TIP3    H131619   0.241   5.359   2.116 -0.6444 -0.2982 -2.3517
 3376TIP3    H231620   0.297   5.220   2.132  0.4519  0.4468  0.5532
 3377TIP3   OH231621   3.572   6.090   1.224 -0.1770 -0.2482  0.1877
 3377TIP3    H131622   3.617   6.006   1.214  1.5165  0.6634  0.1025
 3377TIP3    H231623   3.547   6.115   1.135  0.2763 -0.1401  0.0905
 3378TIP3   OH231624   0.630   5.964  12.040  0.2575  0.4154 -0.5161
 3378TIP3    H131625   0.536   5.978  12.037  0.2236  0.0442 -1.3980
 3378TIP3    H231626   0.646   5.894  11.976  0.9056 -0.8154  0.9808
 3379TIP3   OH231627   2.248   3.779  13.503 -0.0191  0.4747 -0.2059
 3379TIP3    H131628   2.226   3.730  13.582 -0.0066 -1.1889 -1.2267
 3379TIP3    H231629   2.199   3.736  13.433  0.1538  1.7882 -1.1657
 3380TIP3   OH231630   6.789   2.425   2.467  0.2472 -0.1325  0.1285
 3380TIP3    H131631   6.872   2.393   2.432 -0.2260 -1.3422  0.0853
 3380TIP3    H231632   6.730   2.350   2.462 -1.1363  0.9657 -0.7420
 3381TIP3   OH231633   0.613   1.902   2.673 -0.2158  0.0784  0.7205
 3381TIP3    H131634   0.620   1.890   2.579  2.4993 -0.0148  0.8947
 3381TIP3    H231635   0.577   1.819   2.705 -0.3186 -0.2135 -0.1424
 3382TIP3   OH231636   3.453   3.677  12.956  0.1048 -0.5117 -0.6003
 3382TIP3    H131637   3.469   3.720  13.040 -1.1270 -0.9859 -0.1122
 3382TIP3    H231638   3.396   3.736  12.908  0.2132 -0.5814 -0.8200
 3383TIP3   OH231639   4.685   0.539  11.612 -0.0670 -0.1593  0.0193
 3383TIP3    H131640   4.620   0.610  11.611  1.1268  0.9851  1.3313
 3383TIP3    H231641   4.764   0.579  11.648  1.4670 -1.4755 -1.7810
 3384TIP3   OH231642   3.279   0.403  13.509 -0.2260  0.1138 -0.5031
 3384TIP3    H131643   3.373   0.409  13.524 -0.1379 -1.0782 -0.5201
 3384TIP3    H231644   3.250   0.335  13.568 -0.7846 -0.7581 -1.7604
 3385TIP3   OH231645   4.522   0.818   0.504 -0.2476 -0.1935  0.2888
 3385TIP3    H131646   4.487   0.801   0.417  1.0686  0.5542 -0.4002
 3385TIP3    H231647   4.592   0.754   0.515  0.6584  0.7572  0.1365
 3386TIP3   OH231648   6.369   1.732  13.768 -0.0249 -0.2926  0.3778
 3386TIP3    H131649   6.346   1.692  13.852  1.5656 -3.0142 -0.4507
 3386TIP3    H231650   6.461   1.710  13.754 -0.0644  0.7453 -1.7499
 3387TIP3   OH231651   4.075   3.184  16.549 -0.4787  0.4407  0.4236
 3387TIP3    H131652   4.024   3.116  16.594  3.4399  0.2249  5.0141
 3387TIP3    H231653   4.121   3.138  16.479 -1.7773 -0.6121  0.2532
 3388TIP3   OH231654   4.359   3.384  16.614  0.0883 -0.4345  0.2040
 3388TIP3    H131655   4.363   3.288  16.617  0.3346 -0.4053  0.8592
 3388TIP3    H231656   4.450   3.412  16.619  0.0671 -0.1799 -0.7270
 3389TIP3   OH231657   4.542   0.139   2.053  0.6360 -0.5537  0.3155
 3389TIP3    H131658   4.460   0.094   2.035  0.4341 -1.5787  3.4898
 3389TIP3    H231659   4.516   0.224   2.088  1.0011  0.3231 -1.4486
 3390TIP3   OH231660   4.391   2.336  13.270 -0.2297  0.4696 -0.2526
 3390TIP3    H131661   4.447   2.261  13.249 -2.1279 -0.7921 -0.9759
 3390TIP3    H231662   4.450   2.399  13.311  2.0652 -0.1605 -2.4148
 3391TIP3   OH231663   6.285   0.970  17.193 -0.0936  0.4927 -0.0980
 3391TIP3    H131664   6.254   0.879  17.192 -0.2231  0.5369 -0.1132
 3391TIP3    H231665   6.356   0.972  17.128  2.3236 -0.4494  2.4228
 3392TIP3   OH231666   5.441   6.192   0.960 -0.3035 -0.0920 -0.6568
 3392TIP3    H131667   5.383   6.268   0.963 -1.1765 -0.7517 -0.6950
 3392TIP3    H231668   5.492   6.198   1.041 -1.1857 -0.1078 -0.0941
 3393TIP3   OH231669   4.788   3.653  14.202  0.1312 -0.0782 -0.0462
 3393TIP3    H131670   4.707   3.608  14.226 -0.1119 -0.3133 -1.2615
 3393TIP3    H231671   4.760   3.731  14.154  0.6087  0.1082 -0.0331
 3394TIP3   OH231672   3.444   6.377   2.654  0.3228 -0.4734 -0.4231
 3394TIP3    H131673   3.407   6.376   2.566 -2.2169  1.4239  0.5402
 3394TIP3    H231674   3.414   6.294   2.693 -0.9489 -0.0518 -0.4646
 3395TIP3   OH231675   4.807   6.269   1.902  0.4742 -0.0772 -0.8474
 3395TIP3    H131676   4.853   6.191   1.933 -1.0234 -0.5441  0.2242
 3395TIP3    H231677   4.868   6.309   1.841  1.4170 -1.8823 -1.1290
 3396TIP3   OH231678   6.273   3.147  16.191 -0.0384  0.1319  0.3412
 3396TIP3    H131679   6.255   3.178  16.280 -2.3514 -0.0255 -0.0362
 3396TIP3    H231680   6.234   3.059  16.188  1.8399 -0.6939 -0.2098
 3397TIP3   OH231681   5.178   0.485   1.515  0.1528  0.0855  0.4711
 3397TIP3    H131682   5.149   0.536   1.440  1.0010 -0.6306 -0.3605
 3397TIP3    H231683   5.274   0.496   1.515  0.5006 -2.5949 -0.5454
 3398TIP3   OH231684   0.747   0.229  13.743  0.3513 -0.2601 -0.1160
 3398TIP3    H131685   0.658   0.194  13.748  1.3418 -2.7926  0.6785
 3398TIP3    H231686   0.777   0.205  13.655  0.2847  0.6058 -0.3868
 3399TIP3   OH231687   3.799   1.816   5.343  0.2055 -0.5626  0.1024
 3399TIP3    H131688   3.834   1.905   5.349  2.1483 -1.4018  1.8867
 3399TIP3    H231689   3.708   1.824   5.372  0.5832  0.7204  0.9772
 3400TIP3   OH231690   4.962   5.574  13.312  0.1571 -0.5175 -0.2621
 3400TIP3    H131691   5.030   5.512  13.288  0.8443 -0.1659  0.7815
 3400TIP3    H231692   4.987   5.607  13.398 -1.2065 -0.2230  0.0481
 3401TIP3   OH231693   0.337   4.158  12.476  0.3029 -0.8769  0.3875
 3401TIP3    H131694   0.244   4.139  12.485 -0.3445  2.3938  1.0701
 3401TIP3    H231695   0.369   4.166  12.566  0.5870  0.9537  0.1371
 3402TIP3   OH231696   1.917   4.627   2.717 -0.1212 -0.0796  0.7638
 3402TIP3    H131697   1.911   4.534   2.742  0.5492 -1.0061 -2.4063
 3402TIP3    H231698   2.005   4.653   2.744  0.0292 -0.6230  0.8144
 3403TIP3   OH231699   0.410   3.317   2.792 -0.3695  0.0820  0.1604
 3403TIP3    H131700   0.498   3.280   2.790 -0.2893  0.3268 -0.9849
 3403TIP3    H231701   0.401   3.351   2.881 -0.1826 -2.0283  1.0056
 3404TIP3   OH231702   5.812   2.339  13.464  0.1415 -0.5141  0.3095
 3404TIP3    H131703   5.905   2.320  13.477  0.6025  0.2923 -1.6833
 3404TIP3    H231704   5.769   2.255  13.478  1.1645 -0.8947  1.2693
 3405TIP3   OH231705   4.427   6.714   2.249 -0.3528  0.3252  0.3404
 3405TIP3    H131706   4.394   6.767   2.176 -0.1650 -0.1222 -0.0729
 3405TIP3    H231707   4.349   6.678   2.290 -0.3825 -1.0424 -0.8688
 3406TIP3   OH231708   5.352   2.265   0.768  0.4895  0.2964 -0.2834
 3406TIP3    H131709   5.415   2.276   0.697  2.0700 -0.0303  1.0521
 3406TIP3    H231710   5.318   2.177   0.756  1.6957 -0.2260  0.1194
 3407TIP3   OH231711   5.945   1.813  12.035  0.3963 -0.4342 -0.1622
 3407TIP3    H131712   6.033   1.821  12.070  0.5011  0.7372 -0.6746
 3407TIP3    H231713   5.891   1.869  12.091 -0.0200 -1.0788  0.0988
 3408TIP3   OH231714   3.768   2.281  14.233 -0.4058  0.0958 -0.0113
 3408TIP3    H131715   3.856   2.305  14.262 -0.7079 -0.7302  1.6304
 3408TIP3    H231716   3.755   2.331  14.153  1.0106  1.3193  0.4982
 3409TIP3   OH231717   6.072   2.509   5.752 -0.4380 -0.2291 -0.3717
 3409TIP3    H131718   6.079   2.497   5.846  0.1226 -0.1738 -0.4027
 3409TIP3    H231719   6.034   2.595   5.741 -0.8342 -0.3821 -0.1901
 3410TIP3   OH231720   2.216   5.544   4.028 -0.2739 -0.6043  0.3724
 3410TIP3    H131721   2.300   5.578   4.059 -0.3483 -1.6429  1.7421
 3410TIP3    H231722   2.221   5.553   3.933  0.9105  0.4299  0.5121
 3411TIP3   OH231723   1.599   5.191  15.257 -0.0467  0.2269 -0.4722
 3411TIP3    H131724   1.564   5.267  15.211  2.8244  0.9438 -1.5416
 3411TIP3    H231725   1.623   5.223  15.344 -0.6310  0.0731 -0.2492
 3412TIP3   OH231726   6.016   1.727  16.817 -0.3382 -0.1887 -0.2605
 3412TIP3    H131727   6.046   1.679  16.894  0.4008 -1.0323 -1.0654
 3412TIP3    H231728   5.921   1.726  16.823 -0.2730 -0.1227  0.7215
 3413TIP3   OH231729   2.742   4.969   4.774  0.1299  0.2655 -0.6542
 3413TIP3    H131730   2.651   4.975   4.744 -0.0760 -0.6802 -0.2258
 3413TIP3    H231731   2.793   5.007   4.703 -0.5496  0.1921 -1.1856
 3414TIP3   OH231732   6.738   6.462  14.184  0.0748 -0.1912  0.4166
 3414TIP3    H131733   6.770   6.408  14.112 -0.1271  0.4800 -0.1819
 3414TIP3    H231734   6.680   6.404  14.234  1.1862 -1.0223  0.7553
 3415TIP3   OH231735   5.580   2.637  12.899  0.1251 -0.4843  0.4123
 3415TIP3    H131736   5.566   2.544  12.915 -0.6920 -0.0486  2.3612
 3415TIP3    H231737   5.492   2.674  12.895  0.4505  0.2523 -0.1222
 3416TIP3   OH231738   1.858   1.332   4.126  0.3550  0.0178 -0.1587
 3416TIP3    H131739   1.802   1.337   4.048  1.5780 -2.6079 -1.2745
 3416TIP3    H231740   1.938   1.378   4.100  0.1998  0.4155  0.0680
 3417TIP3   OH231741   6.093   2.702  13.551 -0.1187  0.9025  0.1887
 3417TIP3    H131742   6.023   2.744  13.501 -0.6249  0.0012  0.1391
 3417TIP3    H231743   6.141   2.651  13.486 -0.2090  0.4730  0.4593
 3418TIP3   OH231744   0.241   4.389   0.023  0.1349 -0.6351  0.2202
 3418TIP3    H131745   0.164   4.349  -0.017 -1.5769  2.4202  0.3430
 3418TIP3    H231746   0.257   4.336   0.102 -2.3036 -0.8621  0.5847
 3419TIP3   OH231747   3.333   0.099   6.103  0.7706  0.1755  0.4716
 3419TIP3    H131748   3.365   0.162   6.039  1.6468  0.3568  1.0618
 3419TIP3    H231749   3.330   0.148   6.185 -0.7263  0.0603  0.4980
 3420TIP3   OH231750   2.340   2.361  13.727  0.0127 -0.1571  0.3345
 3420TIP3    H131751   2.286   2.284  13.741 -2.7765  1.8525  1.0691
 3420TIP3    H231752   2.328   2.414  13.806  0.1094  2.0264 -1.0725
 3421TIP3   OH231753   1.691   3.816  15.326 -0.1814  0.0360 -0.5461
 3421TIP3    H131754   1.604   3.777  15.332  0.4046 -1.1875  0.0478
 3421TIP3    H231755   1.676   3.901  15.284 -2.2016  1.6627  3.2789
 3422TIP3   OH231756   1.260   1.623  12.762 -0.6775  0.1687 -0.0030
 3422TIP3    H131757   1.208   1.559  12.713  1.8960  0.7301 -3.7359
 3422TIP3    H231758   1.346   1.583  12.770 -0.3212  1.2512  1.7267
 3423TIP3   OH231759   3.717   6.165  17.251  0.6205  0.5175 -0.1331
 3423TIP3    H131760   3.649   6.112  17.210  1.1703  0.2098 -0.6720
 3423TIP3    H231761   3.780   6.101  17.284  0.0832  0.7569  1.3950
 3424TIP3   OH231762   6.332   4.301   3.696  0.2368  0.3040 -0.5419
 3424TIP3    H131763   6.325   4.217   3.650 -0.5682  0.1497 -0.1342
 3424TIP3    H231764   6.268   4.357   3.654  0.4568  0.5801 -0.5100
 3425TIP3   OH231765   5.077   5.478   4.259 -0.4190 -0.4150  0.1124
 3425TIP3    H131766   5.130   5.409   4.220 -1.1221 -0.5008 -0.7115
 3425TIP3    H231767   5.113   5.490   4.347  0.3359 -1.1384 -0.0963
 3426TIP3   OH231768   1.331   5.337  12.449 -0.2068  0.2428 -0.0452
 3426TIP3    H131769   1.314   5.331  12.355 -0.0749  2.7646 -0.2472
 3426TIP3    H231770   1.424   5.357  12.456 -0.5552  1.7095  0.5468
 3427TIP3   OH231771   0.666   5.823   1.656  0.1331 -0.7045 -0.5799
 3427TIP3    H131772   0.586   5.844   1.608  0.7608  0.0578 -1.3116
 3427TIP3    H231773   0.677   5.895   1.717 -0.8264 -1.8206  0.9648
 3428TIP3   OH231774   5.344   4.278  14.706  0.2311 -0.3140 -0.2645
 3428TIP3    H131775   5.383   4.351  14.755  0.2694 -1.0726  0.8580
 3428TIP3    H231776   5.263   4.314  14.670  0.2271  0.2734  0.3236
 3429TIP3   OH231777   5.698   6.033  13.383  0.2398  0.1205 -0.1886
 3429TIP3    H131778   5.633   6.005  13.318  1.2051 -0.7564 -0.7832
 3429TIP3    H231779   5.755   6.094  13.335  1.0274 -0.6246 -0.1930
 3430TIP3   OH231780   4.171   3.627   0.687  0.1889 -0.5950 -0.3381
 3430TIP3    H131781   4.088   3.674   0.683  0.9922  0.7218 -2.3598
 3430TIP3    H231782   4.190   3.619   0.781 -1.9228 -0.4248  0.1252
 3431TIP3   OH231783   4.373   1.224  16.548 -0.9975 -0.4595 -0.3646
 3431TIP3    H131784   4.357   1.221  16.453 -0.9601  0.8128 -0.4213
 3431TIP3    H231785   4.457   1.180  16.560 -1.2285 -1.0440 -0.8651
 3432TIP3   OH231786   0.844   4.969  12.377  0.1661  0.5812 -0.4604
 3432TIP3    H131787   0.880   5.009  12.297 -0.0301  0.1322 -0.7726
 3432TIP3    H231788   0.763   4.927  12.349  2.0382 -2.9715 -0.8742
 3433TIP3   OH231789   3.142   0.136   2.381  0.4806  0.6102  0.2178
 3433TIP3    H131790   3.063   0.166   2.336  0.0263 -0.7821  0.0643
 3433TIP3    H231791   3.144   0.187   2.462  0.2734  1.7652 -0.4847
 3434TIP3   OH231792   6.399   4.113   2.555 -0.2047  0.1020 -0.1411
 3434TIP3    H131793   6.353   4.197   2.554 -0.6531 -0.0255  3.7711
 3434TIP3    H231794   6.480   4.131   2.603 -0.1202 -1.6142  0.3785
 3435TIP3   OH231795   1.682   3.563   0.687 -0.4303 -0.1938 -0.2510
 3435TIP3    H131796   1.612   3.560   0.753 -1.2255  0.7596 -1.0348
 3435TIP3    H231797   1.744   3.629   0.720 -0.7715  0.2006 -0.3890
 3436TIP3   OH231798   3.824   5.595  13.488 -0.0202  0.1664  0.0843
 3436TIP3    H131799   3.913   5.626  13.502 -0.3937  1.0709  0.4719
 3436TIP3    H231800   3.830   5.500  13.500  1.1841  0.0363 -1.4304
 3437TIP3   OH231801   1.337   0.515  10.449 -0.7717  0.1341  0.0133
 3437TIP3    H131802   1.322   0.494  10.541  1.0509 -0.6253  0.1538
 3437TIP3    H231803   1.419   0.564  10.448 -0.9522  0.4269 -1.1726
 3438TIP3   OH231804   2.161   5.458   0.821 -0.2065 -0.5616  0.1755
 3438TIP3    H131805   2.068   5.443   0.832 -0.2589  0.6914  1.5166
 3438TIP3    H231806   2.173   5.551   0.839  1.0464 -0.3219 -1.7292
 3439TIP3   OH231807   5.918   6.471  13.722 -0.4349 -0.2226  0.1181
 3439TIP3    H131808   5.996   6.424  13.753  0.3574  0.8380 -0.2326
 3439TIP3    H231809   5.895   6.529  13.795 -0.9094 -0.5271  0.2188
 3440TIP3   OH231810   4.506   1.378  15.086 -0.3667  0.0636 -0.1471
 3440TIP3    H131811   4.410   1.384  15.082 -0.3219  0.0924 -1.1660
 3440TIP3    H231812   4.525   1.289  15.055 -0.1142 -0.2606  0.9132
 3441TIP3   OH231813   3.273   3.816   0.023  0.1102  0.1256  0.3194
 3441TIP3    H131814   3.334   3.746   0.000 -1.1227 -0.5657 -0.9200
 3441TIP3    H231815   3.196   3.770   0.057 -1.1614  0.8208 -1.5916
 3442TIP3   OH231816   1.732   3.302  17.079 -0.2468  0.2999  0.2311
 3442TIP3    H131817   1.695   3.331  17.163 -0.2410 -1.9554  1.0337
 3442TIP3    H231818   1.657   3.301  17.019 -0.5265  0.5254  0.5728
 3443TIP3   OH231819   4.288   3.760  15.317 -0.2142 -0.3078 -0.3555
 3443TIP3    H131820   4.225   3.732  15.250  0.9940 -3.7215 -0.1392
 3443TIP3    H231821   4.241   3.748  15.400  0.6971 -3.0037 -0.1844
 3444TIP3   OH231822   5.929   1.875   1.983 -0.2870 -0.1500 -0.6738
 3444TIP3    H131823   5.898   1.885   2.072 -1.9106  0.3862 -1.2777
 3444TIP3    H231824   5.998   1.809   1.988 -0.7113 -0.4737  0.8837
 3445TIP3   OH231825   2.747   1.966  15.407 -0.3772  0.4688 -0.3296
 3445TIP3    H131826   2.703   2.038  15.362  0.7995  1.9453  0.8183
 3445TIP3    H231827   2.822   2.007  15.450  2.6059 -2.0694 -2.8287
 3446TIP3   OH231828   6.549   4.056  15.879  0.1341  0.2261 -0.9197
 3446TIP3    H131829   6.522   4.142  15.845  0.9377  0.2343 -1.5393
 3446TIP3    H231830   6.632   4.072  15.923 -0.0622 -0.1084 -0.4190
 3447TIP3   OH231831   1.029   0.680   0.592  0.3691 -0.0446  0.6661
 3447TIP3    H131832   0.955   0.669   0.651  0.3044 -0.7596  0.4561
 3447TIP3    H231833   1.106   0.673   0.649  0.3501 -2.2021  0.4721
 3448TIP3   OH231834   1.638   6.189  13.182 -0.4908 -0.2077  0.2452
 3448TIP3    H131835   1.621   6.147  13.267 -0.8171  2.0922  1.3534
 3448TIP3    H231836   1.574   6.149  13.123 -1.3439 -0.6977  1.4763
 3449TIP3   OH231837   5.980   0.536  15.919  0.4869 -0.1071 -0.0388
 3449TIP3    H131838   5.892   0.518  15.951 -0.1680  0.3910 -1.5536
 3449TIP3    H231839   5.978   0.513  15.827  2.2033 -0.9491  0.1179
 3450TIP3   OH231840   6.778   4.373  12.504 -0.0293  0.7315 -0.0544
 3450TIP3    H131841   6.790   4.376  12.409  1.6187  0.5881  0.1404
 3450TIP3    H231842   6.866   4.365  12.540 -0.8110 -2.1137  1.3899
 3451TIP3   OH231843   5.123   3.105   2.371 -0.3617 -0.2772 -0.3458
 3451TIP3    H131844   5.137   3.200   2.369 -1.8921 -0.0447 -1.0040
 3451TIP3    H231845   5.028   3.095   2.377 -0.3829 -1.7547 -2.3629
 3452TIP3   OH231846   1.086   1.418   3.930  0.0054 -0.1517 -0.3341
 3452TIP3    H131847   1.068   1.349   3.993 -0.5322 -0.5063 -0.8619
 3452TIP3    H231848   1.139   1.482   3.978  0.1111 -0.7027  0.2910
 3453TIP3   OH231849   0.293   1.851   3.941  0.1243 -0.4048 -0.3963
 3453TIP3    H131850   0.274   1.941   3.911 -0.5260 -0.3831  0.0594
 3453TIP3    H231851   0.353   1.863   4.014  0.7223 -0.3900 -0.8856
 3454TIP3   OH231852   1.393   3.834  16.595 -0.0070 -0.0362  0.0887
 3454TIP3    H131853   1.383   3.757  16.540  0.1962 -0.5952  0.8364
 3454TIP3    H231854   1.477   3.872  16.567  1.5531 -1.9583  2.0371
 3455TIP3   OH231855   3.187   0.586   4.833  0.0674 -0.5729  0.3479
 3455TIP3    H131856   3.265   0.584   4.890  1.7942 -1.7303 -1.9961
 3455TIP3    H231857   3.141   0.504   4.853  0.1269 -0.5082  0.7706
 3456TIP3   OH231858   6.780   3.250   4.810  0.1410 -0.2017 -0.2852
 3456TIP3    H131859   6.793   3.335   4.852 -0.7112 -0.4043  0.4058
 3456TIP3    H231860   6.690   3.226   4.833  0.0748 -0.8734 -1.2301
 3457TIP3   OH231861   2.567   0.648  16.141  0.1429  0.1305 -0.3843
 3457TIP3    H131862   2.589   0.704  16.215  0.0783  1.8703 -1.6406
 3457TIP3    H231863   2.645   0.594  16.128  0.1025 -0.2741  1.0134
 3458TIP3   OH231864   4.887   0.204   3.611 -1.1317  0.0054 -0.2523
 3458TIP3    H131865   4.954   0.262   3.647 -1.7484  0.9208 -0.5722
 3458TIP3    H231866   4.804   0.247   3.631 -1.7526 -2.0577  1.8137
 3459TIP3   OH231867   2.590   0.296  10.507 -0.1192 -0.2778 -0.5797
 3459TIP3    H131868   2.555   0.243  10.435 -1.6161  0.6571 -0.5766
 3459TIP3    H231869   2.568   0.386  10.483 -0.1520  0.0891  0.7911
 3460TIP3   OH231870   1.297   0.199   2.817 -0.2502 -0.3873  0.7982
 3460TIP3    H131871   1.217   0.203   2.869 -1.3423 -0.4100 -0.8497
 3460TIP3    H231872   1.277   0.139   2.746  1.1721 -0.2444  0.2576
 3461TIP3   OH231873   4.278   2.177   2.325 -0.9224  0.1691 -0.3121
 3461TIP3    H131874   4.348   2.121   2.359 -2.1693 -0.6344  0.9624
 3461TIP3    H231875   4.310   2.267   2.339  0.6818 -0.1818 -1.5255
 3462TIP3   OH231876   1.170   6.735   3.169  0.3169 -0.8736  0.6207
 3462TIP3    H131877   1.123   6.696   3.243 -1.3751 -0.0580  0.0005
 3462TIP3    H231878   1.124   6.702   3.092 -0.1258  1.0632  0.0497
 3463TIP3   OH231879   0.252   0.112   1.364  0.5933 -0.1423 -0.0863
 3463TIP3    H131880   0.171   0.162   1.358  0.0635 -1.0348 -0.4878
 3463TIP3    H231881   0.247   0.050   1.291  0.5348 -1.8172  1.3117
 3464TIP3   OH231882   0.638   6.599   3.411 -0.0415  0.1513 -0.1646
 3464TIP3    H131883   0.599   6.686   3.409 -2.5099 -0.9125 -0.1186
 3464TIP3    H231884   0.596   6.556   3.486  1.7764 -0.8023  0.3324
 3465TIP3   OH231885   3.476   5.903  10.955 -0.1956  0.0798 -0.5227
 3465TIP3    H131886   3.527   5.984  10.951 -0.5570  0.2868 -0.9343
 3465TIP3    H231887   3.413   5.910  10.884 -0.7570 -0.2059 -0.0623
 3466TIP3   OH231888   5.718   1.514   2.026  0.4074 -0.1742 -0.4317
 3466TIP3    H131889   5.681   1.598   2.000 -0.3447 -0.4877 -0.3878
 3466TIP3    H231890   5.810   1.533   2.045 -0.0923  0.9134  0.9481
 3467TIP3   OH231891   4.534   3.817   4.312  0.5250  0.3208  0.0673
 3467TIP3    H131892   4.594   3.884   4.278 -0.6696  0.8391 -1.0603
 3467TIP3    H231893   4.509   3.766   4.236 -1.9538  1.3006  0.1748
 3468TIP3   OH231894   1.470   4.340  14.513 -0.3479 -0.0580 -0.4160
 3468TIP3    H131895   1.560   4.364  14.490 -0.3278 -0.2678 -0.5567
 3468TIP3    H231896   1.443   4.280  14.444  0.3303 -2.1067  1.0521
 3469TIP3   OH231897   4.309   4.831  16.198  0.5337 -0.1459  0.1301
 3469TIP3    H131898   4.359   4.889  16.255 -0.6707  0.5132  0.5129
 3469TIP3    H231899   4.296   4.751  16.249  0.8699 -0.1782  0.1644
 3470TIP3   OH231900   2.834   3.108   2.796  0.1631  0.0513  0.0742
 3470TIP3    H131901   2.878   3.023   2.786 -1.0756 -1.0699  3.3807
 3470TIP3    H231902   2.829   3.143   2.707  1.6891 -2.8341 -1.2244
 3471TIP3   OH231903   5.612   4.022   4.446 -0.3037  0.1706  0.5509
 3471TIP3    H131904   5.567   4.009   4.363  0.2886  0.5963  0.1597
 3471TIP3    H231905   5.705   4.011   4.425 -0.1644  0.1029  1.1868
 3472TIP3   OH231906   2.718   4.042   6.291  0.1082 -0.6405  0.6926
 3472TIP3    H131907   2.808   4.075   6.293  0.5915 -1.9441  0.8988
 3472TIP3    H231908   2.717   3.971   6.355 -0.8127 -1.2748 -0.0060
 3473TIP3   OH231909   1.283   0.459   5.257 -0.0990  0.1926 -0.0486
 3473TIP3    H131910   1.341   0.446   5.332 -0.1707  1.8814  0.3226
 3473TIP3    H231911   1.217   0.521   5.288 -1.7417 -1.1819 -0.6685
 3474TIP3   OH231912   5.470   6.370   4.265 -0.1267  0.8606 -0.2574
 3474TIP3    H131913   5.458   6.283   4.227 -2.3394  1.4536 -0.9843
 3474TIP3    H231914   5.391   6.418   4.241  0.5866  2.7520  1.0446
 3475TIP3   OH231915   0.623   3.226  13.876 -0.0787  0.5111 -0.4304
 3475TIP3    H131916   0.532   3.198  13.866 -0.1754  0.7125 -0.1547
 3475TIP3    H231917   0.665   3.155  13.923 -0.0340  0.3097 -0.7769
 3476TIP3   OH231918   5.478   6.346  16.470  0.2600 -0.0867  0.1582
 3476TIP3    H131919   5.394   6.320  16.507 -0.4856  1.5673 -0.3272
 3476TIP3    H231920   5.456   6.387  16.386  1.5216  0.6647  0.1802
 3477TIP3   OH231921   6.805   2.650   6.028 -0.1136  0.7122  0.0072
 3477TIP3    H131922   6.743   2.676   6.096 -2.3440  1.3403 -2.2018
 3477TIP3    H231923   6.792   2.555   6.018 -0.1316  0.7037  0.1128
 3478TIP3   OH231924   5.727   5.248  11.392  0.1504  0.0689  0.0312
 3478TIP3    H131925   5.690   5.329  11.428  1.9341  1.1719 -0.5158
 3478TIP3    H231926   5.818   5.271  11.373  1.0944 -2.4997  1.2210
 3479TIP3   OH231927   6.523   4.354   4.572  0.6075  0.1901 -0.0082
 3479TIP3    H131928   6.463   4.280   4.569  0.8194  0.0233 -0.2509
 3479TIP3    H231929   6.543   4.366   4.664 -1.5837  1.7061  0.3041
 3480TIP3   OH231930   4.257   3.373   1.740 -0.2788  0.0773  0.0817
 3480TIP3    H131931   4.303   3.336   1.664 -1.5257  2.2351 -1.8061
 3480TIP3    H231932   4.324   3.425   1.785  0.2574 -0.5249 -0.0033
 3481TIP3   OH231933   4.569   3.577  11.855 -0.0387  0.2411  0.2938
 3481TIP3    H131934   4.512   3.590  11.930 -0.7288 -1.1121  0.0264
 3481TIP3    H231935   4.588   3.483  11.855  1.9940  0.6310  0.2395
 3482TIP3   OH231936   0.887   2.678   4.769  0.0406 -0.3937 -0.0752
 3482TIP3    H131937   0.963   2.655   4.822 -0.5237 -0.6137  0.6548
 3482TIP3    H231938   0.917   2.670   4.679  0.5671 -1.5839  0.1899
 3483TIP3   OH231939   5.388   0.423   0.294 -0.3819 -0.2452 -0.5660
 3483TIP3    H131940   5.422   0.432   0.205 -2.3880  1.2243 -1.2039
 3483TIP3    H231941   5.294   0.409   0.283 -0.8596  1.2810  1.3657
 3484TIP3   OH231942   2.978   4.310   4.795  0.2522  0.0320  0.1241
 3484TIP3    H131943   2.973   4.387   4.853  0.2386  0.7229 -0.7795
 3484TIP3    H231944   2.917   4.247   4.833  1.1702 -0.0073  1.5723
 3485TIP3   OH231945   4.399   1.398  14.315  0.5476  0.2495  0.0739
 3485TIP3    H131946   4.328   1.451  14.353  0.9754  0.4992  0.5285
 3485TIP3    H231947   4.475   1.455  14.318  0.9349 -0.2724  0.2543
 3486TIP3   OH231948   1.198   5.093  11.770 -0.0279 -0.3024  0.0241
 3486TIP3    H131949   1.180   5.100  11.864  1.3072 -0.6655  0.3174
 3486TIP3    H231950   1.210   4.999  11.754  1.0413 -0.1283 -0.2535
 3487TIP3   OH231951   5.845   2.071   4.868  0.1993  0.2140 -0.7001
 3487TIP3    H131952   5.932   2.111   4.869 -0.1118  1.0246 -2.8814
 3487TIP3    H231953   5.856   1.990   4.820 -0.0228 -0.2542  0.0360
 3488TIP3   OH231954   4.677   3.306  14.793  1.0133 -0.7145 -0.2187
 3488TIP3    H131955   4.763   3.265  14.798  0.9465 -1.0795 -1.8491
 3488TIP3    H231956   4.664   3.325  14.700  0.2719  1.3595  0.2675
 3489TIP3   OH231957   1.568   4.445  12.520 -0.2642 -0.2156 -0.0971
 3489TIP3    H131958   1.615   4.429  12.439 -0.7020 -0.6163 -0.2756
 3489TIP3    H231959   1.561   4.360  12.562 -3.4209 -0.7387 -1.5041
 3490TIP3   OH231960   6.188   6.448   1.384 -0.1503 -0.5187  0.3044
 3490TIP3    H131961   6.202   6.385   1.455 -0.8200 -1.5351 -0.4491
 3490TIP3    H231962   6.253   6.425   1.319 -0.6588 -0.6902 -0.1474
 3491TIP3   OH231963   1.108   2.258  11.990 -0.0066  0.0912 -0.0640
 3491TIP3    H131964   1.200   2.251  11.966  0.3228  1.1510  0.8118
 3491TIP3    H231965   1.073   2.326  11.933  0.0203  0.4268  0.3125
 3492TIP3   OH231966   1.130   4.774  13.200  0.0132 -0.2528 -0.3283
 3492TIP3    H131967   1.217   4.810  13.184 -0.3629  0.2883 -1.1451
 3492TIP3    H231968   1.146   4.699  13.258  0.9987 -0.0355 -0.3084
 3493TIP3   OH231969   4.626   2.533  14.112  0.0125 -0.4607 -0.3952
 3493TIP3    H131970   4.631   2.490  14.197 -0.7134 -0.2612 -0.2468
 3493TIP3    H231971   4.711   2.573  14.100  0.0957 -0.4391  0.2679
 3494TIP3   OH231972   6.583   4.718  12.246  0.1392  0.2364 -0.2643
 3494TIP3    H131973   6.558   4.805  12.213 -1.0913  0.9222  2.3243
 3494TIP3    H231974   6.616   4.734  12.334  0.6214 -1.8634 -0.0333
 3495TIP3   OH231975   3.610   5.891  16.289  0.1089 -0.2960  0.6179
 3495TIP3    H131976   3.523   5.930  16.301 -0.2536 -0.7655 -0.4576
 3495TIP3    H231977   3.621   5.885  16.195  1.5273  0.2188  0.7309
 3496TIP3   OH231978   0.827   4.278  14.972 -0.0800 -0.0089 -0.2932
 3496TIP3    H131979   0.916   4.303  14.949 -0.2643  1.3390  0.3729
 3496TIP3    H231980   0.772   4.349  14.938 -0.7807 -0.2749  0.2575
 3497TIP3   OH231981   2.390   0.442  13.610 -0.0358  0.0908 -0.0011
 3497TIP3    H131982   2.438   0.417  13.690 -0.0507 -1.5749 -0.4989
 3497TIP3    H231983   2.337   0.518  13.637 -0.8152 -1.0773  1.8508
 3498TIP3   OH231984   4.380   4.356   5.344 -0.1674 -0.2883 -0.4758
 3498TIP3    H131985   4.406   4.264   5.335  0.1749 -0.1757 -0.6060
 3498TIP3    H231986   4.457   4.406   5.319 -0.2214  0.0354  0.0090
 3499TIP3   OH231987   6.632   2.818   3.209  0.0750 -0.1691  0.0409
 3499TIP3    H131988   6.673   2.737   3.238  1.1077  0.5516  0.6254
 3499TIP3    H231989   6.538   2.803   3.220  0.2479 -1.3671 -0.0984
 3500TIP3   OH231990   3.054   3.452  13.291  0.0027  0.0818 -0.3869
 3500TIP3    H131991   2.979   3.506  13.265 -0.8173 -0.4616  0.8221
 3500TIP3    H231992   3.015   3.371  13.324  1.2175 -1.1892 -1.9867
 3501TIP3   OH231993   4.536   6.743  14.910 -0.1887  0.2730 -0.0184
 3501TIP3    H131994   4.522   6.747  15.004  0.0269 -1.1623  0.0757
 3501TIP3    H231995   4.471   6.680  14.878  2.1939 -2.1148 -0.3273
 3502TIP3   OH231996   4.925   0.623  11.736 -0.1592 -0.1764  0.3149
 3502TIP3    H131997   4.932   0.702  11.683  0.1079  0.9408  1.9900
 3502TIP3    H231998   4.992   0.564  11.701  1.0228  1.1095  0.4060
 3503TIP3   OH231999   4.749   4.878  15.668 -0.3651 -0.1281  0.3201
 3503TIP3    H132000   4.659   4.854  15.646 -0.2615  0.0463 -0.2890
 3503TIP3    H232001   4.788   4.797  15.703  0.0949 -0.9586 -2.0530
 3504TIP3   OH232002   6.705   6.296   3.045 -0.2354 -0.1054  0.2775
 3504TIP3    H132003   6.735   6.207   3.062  2.1333  0.6783  0.3889
 3504TIP3    H232004   6.659   6.321   3.125  0.5525 -0.6402  0.9093
 3505TIP3   OH232005   3.017   3.240   1.652  0.6472  0.1381 -0.3531
 3505TIP3    H132006   2.921   3.245   1.659  0.7704  0.6665  1.2651
 3505TIP3    H232007   3.043   3.325   1.617  0.5450  0.1271 -0.4568
 3506TIP3   OH232008   4.045   2.361   5.649  0.0601 -0.0644 -0.0240
 3506TIP3    H132009   4.031   2.454   5.668 -0.5849 -0.1181 -0.2321
 3506TIP3    H232010   4.118   2.361   5.587 -1.4349  0.4595 -1.8303
 3507TIP3   OH232011   5.444   2.076   5.440 -0.5835  0.0139 -0.4661
 3507TIP3    H132012   5.374   2.116   5.493 -1.1771 -1.1144 -0.3725
 3507TIP3    H232013   5.471   2.000   5.491 -1.2895 -1.1919 -1.8549
 3508TIP3   OH232014   1.120   3.331   4.785 -0.1163  0.5256  0.1611
 3508TIP3    H132015   1.198   3.361   4.740  0.0548 -0.2238 -0.0476
 3508TIP3    H232016   1.153   3.285   4.862 -0.2836 -1.1018 -0.7124
 3509TIP3   OH232017   5.824   3.202  13.616 -0.4402 -0.3124  0.1356
 3509TIP3    H132018   5.749   3.147  13.596 -0.0213 -0.9279  0.2441
 3509TIP3    H232019   5.787   3.288  13.635 -0.9712 -0.0924 -1.8144
 3510TIP3   OH232020   4.259   1.456   3.508  0.1489 -0.0399  0.0988
 3510TIP3    H132021   4.302   1.377   3.473  1.0405 -0.0848  1.2723
 3510TIP3    H232022   4.168   1.431   3.519  0.0538 -0.3378 -1.2474
 3511TIP3   OH232023   2.077   5.689   5.118 -0.0383 -0.1135 -0.5826
 3511TIP3    H132024   2.002   5.631   5.127 -0.2335 -0.1809 -2.3625
 3511TIP3    H232025   2.114   5.666   5.033 -0.1714  2.4115 -1.3578
 3512TIP3   OH232026   0.025   1.221   0.280  0.0094  0.3629  0.4807
 3512TIP3    H132027  -0.050   1.261   0.324 -0.0388  0.7088  0.0927
 3512TIP3    H232028   0.083   1.294   0.260 -0.4933  0.3635 -1.0308
 3513TIP3   OH232029   0.054   5.445   3.023 -0.4477  0.0148  0.0931
 3513TIP3    H132030  -0.030   5.412   3.056 -0.2169 -0.3565  0.3097
 3513TIP3    H232031   0.117   5.377   3.046  0.0340  0.6218  0.5635
 3514TIP3   OH232032   3.596   0.275  11.988  0.2953  0.1617  0.5157
 3514TIP3    H132033   3.647   0.344  11.945  0.3306  0.5660  1.1917
 3514TIP3    H232034   3.507   0.310  11.993 -0.1008 -0.6364 -0.8625
 3515TIP3   OH232035   6.815   3.306   2.616  0.2970  0.1738 -0.7410
 3515TIP3    H132036   6.830   3.221   2.575  0.4709  0.3222 -0.9822
 3515TIP3    H232037   6.756   3.352   2.556 -0.6614 -0.1850 -0.0853
 3516TIP3   OH232038   4.668   4.872  12.654 -0.0051 -0.3904  0.5257
 3516TIP3    H132039   4.612   4.813  12.604 -0.6896  1.3235 -0.8034
 3516TIP3    H232040   4.757   4.851  12.627 -0.1230 -1.8245  1.2082
 3517TIP3   OH232041   4.579   4.747  14.889  0.3570  0.2858 -0.3152
 3517TIP3    H132042   4.501   4.750  14.834  1.4626 -0.1467 -1.9388
 3517TIP3    H232043   4.631   4.675  14.853  0.3632 -1.1156  2.3185
 3518TIP3   OH232044   2.081   6.749  11.509 -0.0909 -0.4570 -0.1865
 3518TIP3    H132045   2.097   6.839  11.537 -0.5877 -0.0175 -1.2810
 3518TIP3    H232046   2.139   6.735  11.435 -0.4289 -0.8423 -0.3858
 3519TIP3   OH232047   2.539   2.010   5.296  0.4606 -0.1118  0.0309
 3519TIP3    H132048   2.523   1.956   5.219 -2.7761 -0.5046  0.8988
 3519TIP3    H232049   2.542   2.100   5.262  0.2525 -0.3733 -0.6810
 3520TIP3   OH232050   5.284   5.207  15.481  0.4072 -0.0793 -0.2183
 3520TIP3    H132051   5.353   5.179  15.541  1.5182 -0.4254 -1.6304
 3520TIP3    H232052   5.291   5.147  15.407 -2.3900 -1.0778  0.2524
 3521TIP3   OH232053   0.914   1.339   3.169 -0.3415 -0.1518 -0.1837
 3521TIP3    H132054   0.962   1.350   3.087  0.1882  0.0261  0.1447
 3521TIP3    H232055   0.888   1.428   3.194 -1.7822 -0.3638 -0.9150
 3522TIP3   OH232056   4.000   2.074  14.376  0.5390 -0.2359 -0.1919
 3522TIP3    H132057   3.967   2.001  14.429  1.9332 -0.4484  0.3865
 3522TIP3    H232058   4.011   2.146  14.438  3.3287 -0.8454  0.0486
 3523TIP3   OH232059   0.587   1.143  12.019 -0.5632  0.3809  0.0110
 3523TIP3    H132060   0.531   1.117  12.092  1.9852 -2.4028  1.0498
 3523TIP3    H232061   0.655   1.197  12.059 -0.3423  0.6271 -0.6818
 3524TIP3   OH232062   5.734   4.190  13.494  0.3923  0.1670  0.1419
 3524TIP3    H132063   5.714   4.153  13.580  0.3325 -0.2560 -0.0541
 3524TIP3    H232064   5.742   4.284  13.510  1.3233 -0.0091  0.7937
 3525TIP3   OH232065   0.419   6.439   4.111 -0.4785 -0.5819 -0.1438
 3525TIP3    H132066   0.514   6.431   4.120 -0.4851  0.3974  0.9001
 3525TIP3    H232067   0.400   6.401   4.026  0.5347 -3.2187  0.7688
 3526TIP3   OH232068   2.990   5.479   0.375  0.2953 -0.6744  0.1632
 3526TIP3    H132069   2.918   5.472   0.438  0.3462 -0.3674  0.2575
 3526TIP3    H232070   2.979   5.565   0.336  0.1465 -0.9480 -0.3999
 3527TIP3   OH232071   6.480   4.713  16.497 -0.1679 -0.4121 -0.7660
 3527TIP3    H132072   6.544   4.758  16.442  0.0762  0.0240 -0.1203
 3527TIP3    H232073   6.457   4.776  16.565 -0.5448 -0.9146 -0.4238
 3528TIP3   OH232074   6.381   3.796  11.314  0.0651  0.4779 -0.1229
 3528TIP3    H132075   6.313   3.794  11.248  2.0800  1.5299 -2.3133
 3528TIP3    H232076   6.373   3.882  11.355  0.9592  1.1900 -1.3942
 3529TIP3   OH232077   6.809   0.530   2.574  0.1709  0.4445  0.5072
 3529TIP3    H132078   6.857   0.495   2.649  2.2220  2.6286  0.2463
 3529TIP3    H232079   6.854   0.611   2.551 -2.0462  1.1972 -1.4286
 3530TIP3   OH232080   2.549   3.643   1.079  0.2329  0.8508  0.8428
 3530TIP3    H132081   2.606   3.570   1.055 -3.3236 -0.9712 -2.5297
 3530TIP3    H232082   2.599   3.721   1.057  1.8684 -0.6605 -0.9613
 3531TIP3   OH232083   4.481   4.816  15.794 -0.0002  0.0753 -0.1708
 3531TIP3    H132084   4.486   4.744  15.857 -3.7896  0.9296  1.1839
 3531TIP3    H232085   4.463   4.772  15.710 -1.7805 -0.6017  0.5495
 3532TIP3   OH232086   4.193   6.280   4.599  0.0064  0.2223  0.4196
 3532TIP3    H132087   4.167   6.355   4.545  2.5663 -0.0557 -1.3190
 3532TIP3    H232088   4.256   6.316   4.660  0.6220 -0.3438  0.1240
 3533TIP3   OH232089   0.319   1.136   0.802  0.0003  0.8462 -0.3375
 3533TIP3    H132090   0.334   1.085   0.882  0.6266 -0.3656 -1.2329
 3533TIP3    H232091   0.260   1.207   0.831 -2.2893 -1.3421  0.5450
 3534TIP3   OH232092   0.463   5.876  15.609 -0.5081 -0.2777  0.5067
 3534TIP3    H132093   0.452   5.970  15.621  2.0179  0.2116 -0.6555
 3534TIP3    H232094   0.535   5.868  15.546 -0.6400 -2.9902  0.6324
 3535TIP3   OH232095   2.640   0.674  10.778  0.3961 -0.1038  0.3354
 3535TIP3    H132096   2.549   0.693  10.754  0.9868 -0.0159 -1.9331
 3535TIP3    H232097   2.659   0.737  10.848 -0.6607  1.2462 -0.5443
 3536TIP3   OH232098   4.632   5.251   2.788  0.2541  0.0050 -0.0317
 3536TIP3    H132099   4.613   5.243   2.694 -1.1297  0.5867  0.1858
 3536TIP3    H232100   4.705   5.311   2.792 -0.7364  1.2786 -0.6602
 3537TIP3   OH232101   5.103   4.068  11.296  0.0642 -0.1417 -0.5089
 3537TIP3    H132102   5.153   4.147  11.273 -0.2936 -0.8186 -3.9117
 3537TIP3    H232103   5.166   4.014  11.344  1.0162  1.2157 -0.1748
 3538TIP3   OH232104   3.001   5.610  11.715  0.1042  0.3484  0.2698
 3538TIP3    H132105   2.985   5.585  11.624 -0.1503  0.8174  0.1895
 3538TIP3    H232106   3.090   5.645  11.715 -0.4888  1.8999 -0.1142
 3539TIP3   OH232107   4.927   3.728  14.873 -0.1596 -0.4023 -0.5466
 3539TIP3    H132108   4.969   3.790  14.934  2.5463 -3.7126  1.1403
 3539TIP3    H232109   4.838   3.719  14.907  0.9926 -1.4056  2.4730
 3540TIP3   OH232110   6.712   3.441  12.143 -0.4138  1.0053 -0.9077
 3540TIP3    H132111   6.670   3.510  12.194 -1.9714 -0.3676 -0.2742
 3540TIP3    H232112   6.678   3.452  12.054 -0.9382  0.8253 -0.7267
 3541TIP3   OH232113   2.468   0.299   4.955  0.7425  0.2952  0.1293
 3541TIP3    H132114   2.417   0.304   5.035  0.3886  0.0335 -0.0831
 3541TIP3    H232115   2.547   0.350   4.974  0.3762  0.7502  0.4298
 3542TIP3   OH232116   5.401   0.196   5.735  0.1980 -0.4141  0.1866
 3542TIP3    H132117   5.315   0.229   5.710  1.3122  2.5025  0.0751
 3542TIP3    H232118   5.387   0.155   5.821 -1.3955 -0.4112 -0.0647
 3543TIP3   OH232119   2.035   1.499   4.792  0.6005 -0.0724  0.3352
 3543TIP3    H132120   2.044   1.585   4.833  0.7993  0.6009 -1.0812
 3543TIP3    H232121   1.953   1.505   4.742 -0.2103 -1.2493  1.4793
 3544TIP3   OH232122   6.049   2.593  15.432 -0.2286  0.2710  0.5699
 3544TIP3    H132123   5.965   2.547  15.420  0.8689 -1.7547  0.3414
 3544TIP3    H232124   6.029   2.661  15.496 -2.4105  0.8301 -0.6401
 3545TIP3   OH232125   0.634   2.447   1.835 -0.0064 -0.3442 -0.4215
 3545TIP3    H132126   0.549   2.417   1.803 -0.1313 -1.2943  0.7708
 3545TIP3    H232127   0.659   2.516   1.774 -1.4701 -0.2951 -0.9971
 3546TIP3   OH232128   1.628   3.193  16.176 -0.7457  0.1407 -0.1429
 3546TIP3    H132129   1.551   3.158  16.133  1.1061 -1.0941 -2.5791
 3546TIP3    H232130   1.657   3.123  16.235 -2.5618  1.3574  2.2787
 3547TIP3   OH232131   5.123   0.056  13.602  0.1126  0.6516  0.2746
 3547TIP3    H132132   5.170   0.032  13.682 -0.2084 -1.9188 -0.2604
 3547TIP3    H232133   5.179   0.023  13.531 -0.2701  1.6965 -0.5305
 3548TIP3   OH232134   5.479   1.366   2.043 -0.2549  0.3160 -0.8118
 3548TIP3    H132135   5.569   1.399   2.043 -0.8097  1.9113 -2.1154
 3548TIP3    H232136   5.435   1.417   1.975 -2.2436 -0.1663  0.0759
 3549TIP3   OH232137   2.656   2.939  14.800  0.8373 -0.5958 -0.0294
 3549TIP3    H132138   2.643   2.975  14.887 -0.4114  0.9951 -0.8426
 3549TIP3    H232139   2.738   2.890  14.805  1.2033  0.1997  1.7897
 3550TIP3   OH232140   4.765   1.444   2.433 -0.0599 -0.5962 -0.6556
 3550TIP3    H132141   4.857   1.439   2.457 -0.2923  2.1392  0.9852
 3550TIP3    H232142   4.762   1.505   2.360 -0.6942  0.1797  0.0104
 3551TIP3   OH232143   6.647   5.980  15.149  0.1795 -0.3702  0.1204
 3551TIP3    H132144   6.714   6.043  15.176  0.6443 -0.5697 -0.5584
 3551TIP3    H232145   6.626   5.932  15.229  0.7292 -0.1949  0.3747
 3552TIP3   OH232146   6.687   1.657  16.959 -0.5971  0.1218  0.5616
 3552TIP3    H132147   6.724   1.569  16.960 -0.8249  0.0221  1.2895
 3552TIP3    H232148   6.734   1.703  17.029 -0.2167  0.6869 -0.0708
 3553TIP3   OH232149   0.544   0.674  15.231 -0.4228 -0.6284  0.0493
 3553TIP3    H132150   0.609   0.619  15.275 -1.0148 -0.5750  1.0078
 3553TIP3    H232151   0.595   0.732  15.175  0.2439 -1.8152 -0.6095
 3554TIP3   OH232152   4.806   6.134  14.264  0.2511 -0.0920  0.7902
 3554TIP3    H132153   4.836   6.043  14.270  0.2192 -0.1163  0.5714
 3554TIP3    H232154   4.811   6.166  14.354 -1.2895 -0.8010  1.1505
 3555TIP3   OH232155   4.820   5.552  14.561  0.0651  0.4055  0.2411
 3555TIP3    H132156   4.916   5.561  14.564  0.1361 -0.4114  0.5996
 3555TIP3    H232157   4.791   5.581  14.647  0.1183 -0.7370  0.6502
 3556TIP3   OH232158   4.231   0.817   2.493 -0.0407 -0.1065 -0.1864
 3556TIP3    H132159   4.164   0.835   2.427 -1.8862  0.3793  1.7718
 3556TIP3    H232160   4.193   0.748   2.548  0.6285  0.9113  1.5815
 3557TIP3   OH232161   0.614   5.024   4.765 -0.4950 -0.3402 -0.1331
 3557TIP3    H132162   0.588   5.028   4.857 -0.6580 -2.1115 -0.0800
 3557TIP3    H232163   0.540   5.060   4.717 -0.0801  1.3465  0.4795
 3558TIP3   OH232164   0.300   4.856  11.644  0.2344 -0.3579 -0.2306
 3558TIP3    H132165   0.267   4.794  11.578 -1.0109  2.2924 -2.2042
 3558TIP3    H232166   0.387   4.879  11.612 -0.0011  0.2231 -0.4577
 3559TIP3   OH232167   4.297   0.610   4.628  0.2300  0.0990 -0.7560
 3559TIP3    H132168   4.326   0.532   4.676  0.4307  0.3152 -0.5210
 3559TIP3    H232169   4.206   0.593   4.607  0.2053 -0.1006 -0.4954
 3560TIP3   OH232170   2.335   2.175   3.194 -0.0659  0.1491  1.6899
 3560TIP3    H132171   2.309   2.260   3.160 -0.9762 -0.6538  0.3063
 3560TIP3    H232172   2.427   2.166   3.169 -0.2603  0.2838  0.9084
 3561TIP3   OH232173   0.983   0.689   4.019 -0.4665  0.0370 -0.3077
 3561TIP3    H132174   0.909   0.642   4.059 -0.5425  0.3914 -0.0321
 3561TIP3    H232175   1.060   0.641   4.048 -0.5295  0.2113  0.1558
 3562TIP3   OH232176   5.962   2.267  16.130  0.0144 -0.3003 -0.2497
 3562TIP3    H132177   6.039   2.236  16.080 -0.1317  0.0589 -0.6967
 3562TIP3    H232178   5.997   2.286  16.217  0.7105  1.1572 -0.8300
 3563TIP3   OH232179   5.486   6.449   3.653  0.4468  0.2529  0.2646
 3563TIP3    H132180   5.562   6.480   3.703  0.3935  0.9769 -0.1023
 3563TIP3    H232181   5.413   6.501   3.685  0.3270  0.3971 -0.2401
 3564TIP3   OH232182   0.094   3.525  11.742  0.6412  0.8809 -0.5001
 3564TIP3    H132183   0.137   3.462  11.684 -0.2009 -0.6858  0.5431
 3564TIP3    H232184   0.163   3.550  11.804  0.6828  0.1233 -0.2332
 3565TIP3   OH232185   3.408   6.328  13.892  0.8325 -0.3700  0.4752
 3565TIP3    H132186   3.398   6.331  13.797  2.1195 -1.8944  0.2653
 3565TIP3    H232187   3.320   6.310  13.925  0.5996 -1.1044 -0.5107
 3566TIP3   OH232188   5.889   3.986   4.440 -0.2197  0.1812  0.1851
 3566TIP3    H132189   5.934   3.960   4.359  1.5241  0.3484  1.0635
 3566TIP3    H232190   5.959   3.988   4.506 -1.5741  0.2955  1.6387
 3567TIP3   OH232191   3.298   0.233  11.584 -0.0722 -0.3498 -0.3326
 3567TIP3    H132192   3.375   0.238  11.527  1.2039 -1.4179  1.2503
 3567TIP3    H232193   3.233   0.289  11.541  2.3407  2.4442 -0.5078
 3568TIP3   OH232194   2.923   0.125  16.693  0.2620  0.0299  0.6020
 3568TIP3    H132195   2.857   0.176  16.645 -0.0302  2.3099  3.2984
 3568TIP3    H232196   2.990   0.189  16.717  1.0229 -1.3033  2.1063
 3569TIP3   OH232197   6.558   2.728  15.634  0.4249  0.0394  0.0978
 3569TIP3    H132198   6.468   2.696  15.643  0.2709  0.5087  0.2065
 3569TIP3    H232199   6.600   2.662  15.578  0.1244 -0.3914  0.3734
 3570TIP3   OH232200   5.007   2.999  12.793  0.6088 -0.4232  0.4034
 3570TIP3    H132201   5.025   2.921  12.846  0.0922 -0.2944  0.7814
 3570TIP3    H232202   5.072   3.063  12.821 -0.0100 -0.1716  1.2933
 3571TIP3   OH232203   6.079   5.957  13.182  0.2212 -0.4100 -0.6040
 3571TIP3    H132204   6.093   5.866  13.208 -0.2775 -0.4441 -0.4571
 3571TIP3    H232205   6.073   5.954  13.086 -1.4314 -0.7643 -0.5125
 3572TIP3   OH232206   2.649   0.838  14.851 -0.8840  0.3218 -0.0922
 3572TIP3    H132207   2.735   0.798  14.869 -1.2337 -0.1209  0.5896
 3572TIP3    H232208   2.614   0.786  14.779  1.1683  3.0345 -3.1902
 3573TIP3   OH232209   2.688   0.080  16.867 -0.9957 -0.0138  0.8780
 3573TIP3    H132210   2.635   0.150  16.828 -0.6397 -1.1359 -1.7608
 3573TIP3    H232211   2.778   0.102  16.843 -0.8161 -0.9976  0.6257
 3574TIP3   OH232212   2.570   0.021  11.501  0.8622 -0.1544 -0.3859
 3574TIP3    H132213   2.648  -0.017  11.541  1.5242  1.0855 -0.4716
 3574TIP3    H232214   2.601   0.059  11.419  0.4718  1.5764  0.2322
 3575TIP3   OH232215   0.123   6.540  14.957 -0.9695  0.8909 -0.3491
 3575TIP3    H132216   0.109   6.470  15.021  0.4021  0.1110 -0.8962
 3575TIP3    H232217   0.211   6.571  14.974 -0.8066  1.0754 -1.4719
 3576TIP3   OH232218   2.115   4.633  12.437  0.1058  0.0354 -0.0361
 3576TIP3    H132219   2.201   4.654  12.402  0.5784 -0.0600  1.0437
 3576TIP3    H232220   2.081   4.565  12.380  0.1279  1.0987 -1.3370
 3577TIP3   OH232221   1.404   4.856   2.516  0.3614 -0.3123 -0.0343
 3577TIP3    H132222   1.478   4.818   2.564  0.6665  1.3058  0.8285
 3577TIP3    H232223   1.440   4.936   2.476  0.2964 -1.9833 -3.6185
 3578TIP3   OH232224   5.840   4.882   4.002  0.3392  0.2468 -0.6333
 3578TIP3    H132225   5.911   4.946   4.008  0.3992  0.0707  0.6420
 3578TIP3    H232226   5.852   4.825   4.077 -1.5944  0.6558  0.0246
 3579TIP3   OH232227   2.616   2.822   1.115 -0.0276  0.3959 -0.1253
 3579TIP3    H132228   2.561   2.771   1.174  2.0698 -0.4327  1.1954
 3579TIP3    H232229   2.575   2.814   1.029 -0.3821 -2.5825  0.2886
 3580TIP3   OH232230   4.327   1.649  15.357 -0.1675 -0.0910 -0.5655
 3580TIP3    H132231   4.325   1.726  15.414 -0.9593  0.2915 -1.1067
 3580TIP3    H232232   4.416   1.646  15.322 -0.1530  0.5996 -0.5761
 3581TIP3   OH232233   3.901   1.899   0.119  0.0957  0.0533 -0.5114
 3581TIP3    H132234   3.890   1.940   0.204 -0.1345 -3.0904  1.0551
 3581TIP3    H232235   3.825   1.928   0.069 -0.1540  1.3539  0.5962
 3582TIP3   OH232236   4.542   0.897   5.063  0.1592  0.0108 -1.0153
 3582TIP3    H132237   4.622   0.931   5.103  2.3043 -3.7386 -1.9070
 3582TIP3    H232238   4.473   0.918   5.126  2.2145  1.1480  0.9267
 3583TIP3   OH232239   0.197   1.680  16.999  0.3679 -0.1911 -0.4689
 3583TIP3    H132240   0.146   1.725  17.066 -1.0804 -1.8532 -0.4296
 3583TIP3    H232241   0.250   1.617  17.047  0.9728  0.1341 -0.7025
 3584TIP3   OH232242   4.080   6.818  13.470 -0.6552  0.4516  0.1318
 3584TIP3    H132243   4.018   6.769  13.416 -0.1313  0.8967 -0.8984
 3584TIP3    H232244   4.069   6.909  13.441 -0.1345  0.6454  0.5424
 3585TIP3   OH232245   6.773   3.870  11.792 -0.3951 -0.4778  0.2773
 3585TIP3    H132246   6.683   3.850  11.766  0.3824 -2.7388 -0.8139
 3585TIP3    H232247   6.786   3.820  11.873 -0.1752  0.0035  0.5405
 3586TIP3   OH232248   1.060   6.779  10.776 -0.2700 -0.3059 -0.0398
 3586TIP3    H132249   1.051   6.768  10.870 -0.4312  1.4773  0.1675
 3586TIP3    H232250   1.079   6.872  10.764  0.2479 -0.6033 -1.7321
 3587TIP3   OH232251   4.503   5.016   0.198 -0.2334  0.0842 -0.1148
 3587TIP3    H132252   4.435   4.965   0.153 -1.0982 -0.0566  1.3336
 3587TIP3    H232253   4.541   5.070   0.129 -1.3227 -0.3636 -1.0871
 3588TIP3   OH232254   5.961   5.903  16.644  0.1726  0.3655  0.2755
 3588TIP3    H132255   5.985   5.964  16.575 -0.6923  1.4310  0.8926
 3588TIP3    H232256   6.023   5.920  16.714  0.0582  0.3968  0.3717
 3589TIP3   OH232257   4.344   6.330  15.031  0.2100  0.3406 -0.4043
 3589TIP3    H132258   4.412   6.267  15.052 -0.3461  0.1874  1.0500
 3589TIP3    H232259   4.286   6.284  14.971  0.8388  0.1253 -0.8459
 3590TIP3   OH232260   2.996   3.933   0.845 -0.2894 -0.0256  0.6431
 3590TIP3    H132261   3.083   3.952   0.880 -0.1657 -2.4208  1.7494
 3590TIP3    H232262   2.983   3.840   0.862 -2.5992  0.0330 -0.5739
 3591TIP3   OH232263   6.202   0.935  16.221 -0.1598 -0.1470  0.0339
 3591TIP3    H132264   6.282   0.885  16.238 -0.7540 -1.3754 -0.6434
 3591TIP3    H232265   6.139   0.869  16.191 -1.2361  0.8943 -0.0432
 3592TIP3   OH232266   6.576   1.671   4.404 -0.1414  0.5282  0.1345
 3592TIP3    H132267   6.577   1.711   4.491  1.2775 -1.9029  1.2828
 3592TIP3    H232268   6.490   1.630   4.398 -0.4010  1.0567  0.2127
 3593TIP3   OH232269   5.142   0.082   5.158 -0.4807  0.4289 -0.3271
 3593TIP3    H132270   5.120   0.046   5.244  1.0732  1.7215  0.6355
 3593TIP3    H232271   5.231   0.049   5.141 -0.6042  0.5604 -1.2377
 3594TIP3   OH232272   5.452   0.433  10.475 -0.5891 -0.4536 -0.2908
 3594TIP3    H132273   5.358   0.438  10.457 -0.8589 -0.1701  1.1136
 3594TIP3    H232274   5.485   0.521  10.458 -0.7521 -0.3140  0.1096
 3595TIP3   OH232275   1.326   3.627  16.419  0.4805 -0.0148 -0.2731
 3595TIP3    H132276   1.279   3.641  16.337 -0.4677  0.3157  0.3200
 3595TIP3    H232277   1.372   3.544  16.407 -0.9001 -0.7484 -0.5751
 3596TIP3   OH232278   6.612   4.882   2.530 -0.1168  0.2439 -0.4735
 3596TIP3    H132279   6.674   4.870   2.601 -0.0670  2.2238 -0.1646
 3596TIP3    H232280   6.592   4.793   2.500  2.0836 -0.4561  0.0720
 3597TIP3   OH232281   5.104   1.121   5.495 -0.5289 -0.2784  0.8818
 3597TIP3    H132282   5.010   1.106   5.486 -0.7051  1.0496  0.4440
 3597TIP3    H232283   5.140   1.099   5.409 -0.2720 -1.8665  1.3682
 3598TIP3   OH232284   2.512   0.944  11.456 -0.4604 -0.6638 -0.0825
 3598TIP3    H132285   2.450   0.978  11.521 -0.3410 -0.0124 -0.3098
 3598TIP3    H232286   2.503   1.003  11.381 -0.7900 -1.5622 -0.7638
 3599TIP3   OH232287   0.420   4.856  15.892  0.2681  1.1106 -0.1717
 3599TIP3    H132288   0.447   4.928  15.835  2.0634  2.1544  1.9109
 3599TIP3    H232289   0.372   4.899  15.963  1.3533  0.2558  1.0880
 3600TIP3   OH232290   1.217   6.180  13.308 -0.4666 -0.3968  0.3751
 3600TIP3    H132291   1.236   6.254  13.365 -0.8502 -0.2260  0.2821
 3600TIP3    H232292   1.279   6.112  13.336  0.7007  0.3471 -0.3301
 3601TIP3   OH232293   5.078   2.376  16.895 -0.5718 -0.2817 -0.0074
 3601TIP3    H132294   5.174   2.377  16.897 -0.5612  0.8884 -0.9537
 3601TIP3    H232295   5.056   2.386  16.803 -1.6274  1.8335  0.4630
 3602TIP3   OH232296   0.858   6.051  15.280  0.2551  1.0682 -0.2519
 3602TIP3    H132297   0.828   6.026  15.193  1.1417 -0.1177 -0.2284
 3602TIP3    H232298   0.938   6.001  15.293 -1.4622 -1.0787  2.4892
 3603TIP3   OH232299   0.341   5.992   3.805  0.1802  0.1865 -0.7479
 3603TIP3    H132300   0.390   5.948   3.735  0.0029 -1.6531  0.2391
 3603TIP3    H232301   0.409   6.032   3.859  0.5240 -1.0432 -0.2457
 3604TIP3   OH232302   3.746   5.867   2.683 -0.4150 -0.1378 -0.1766
 3604TIP3    H132303   3.719   5.958   2.695  0.4420  0.1396 -0.3714
 3604TIP3    H232304   3.685   5.817   2.738 -2.7999  0.2761 -2.3319
 3605TIP3   OH232305   4.878   2.757  13.336 -0.1398  0.0703 -0.1947
 3605TIP3    H132306   4.836   2.771  13.251 -0.7603  0.5954  0.1875
 3605TIP3    H232307   4.905   2.845  13.364  0.5267 -0.1682 -0.0829
 3606TIP3   OH232308   6.400   4.557  13.883 -0.4078 -0.4753  0.2322
 3606TIP3    H132309   6.353   4.474  13.871 -0.9197  0.0166 -1.2478
 3606TIP3    H232310   6.456   4.563  13.806 -2.2971  1.8103 -1.0273
 3607TIP3   OH232311   3.135   1.441  15.804 -1.0168  0.1240  1.0911
 3607TIP3    H132312   3.106   1.359  15.764  1.2533 -0.2851  0.1993
 3607TIP3    H232313   3.128   1.425  15.898 -1.6002 -0.7008  0.9221
 3608TIP3   OH232314   3.579   4.160   0.439 -0.0882 -0.1135 -0.4716
 3608TIP3    H132315   3.519   4.147   0.365  1.0314 -1.1098 -1.2322
 3608TIP3    H232316   3.666   4.141   0.403  0.5953  0.4951  0.8230
 3609TIP3   OH232317   3.194   2.364   2.523 -0.3677 -0.0325 -0.0628
 3609TIP3    H132318   3.194   2.289   2.583  0.4065  1.0054  1.2703
 3609TIP3    H232319   3.208   2.326   2.437 -1.8877 -1.5958  0.3542
 3610TIP3   OH232320   4.265   1.322  12.653 -1.1132  0.4211  0.4302
 3610TIP3    H132321   4.177   1.341  12.620 -0.9921  1.6146  0.7710
 3610TIP3    H232322   4.313   1.404  12.639 -0.5315  0.3156  1.7951
 3611TIP3   OH232323   1.751   2.761  12.034  0.4542  0.3252  0.5002
 3611TIP3    H132324   1.815   2.792  11.970  0.3948  0.1788  0.3693
 3611TIP3    H232325   1.670   2.751  11.984  0.3334  0.4912  0.6629
 3612TIP3   OH232326   0.230   2.106  12.236  0.1811 -0.4381  1.6356
 3612TIP3    H132327   0.219   2.012  12.243  1.0725 -0.5373  1.7307
 3612TIP3    H232328   0.145   2.142  12.261 -0.9047 -1.2918 -0.6776
 3613TIP3   OH232329   4.671   2.482  11.405  0.4293 -0.4017 -0.1030
 3613TIP3    H132330   4.636   2.560  11.449 -1.8876 -1.3395 -0.2356
 3613TIP3    H232331   4.655   2.497  11.312  2.5199  0.1831 -0.3994
 3614TIP3   OH232332   1.409   4.623  13.935  0.1413 -0.2574 -0.3476
 3614TIP3    H132333   1.500   4.646  13.917  0.0474 -0.6413 -1.3339
 3614TIP3    H232334   1.414   4.556  14.004  0.5114  1.0529  0.9459
 3615TIP3   OH232335   6.345   2.158   1.777  0.6842  0.1093 -0.1083
 3615TIP3    H132336   6.251   2.147   1.765  1.0719 -1.4404 -1.9959
 3615TIP3    H232337   6.358   2.253   1.776 -0.8255  0.3334  0.0038
 3616TIP3   OH232338   5.209   2.583  12.842  0.1017 -0.0700  0.1819
 3616TIP3    H132339   5.215   2.514  12.909 -1.7901 -0.2767  0.1768
 3616TIP3    H232340   5.283   2.567  12.785 -0.8035 -2.7163 -0.3448
 3617TIP3   OH232341   4.095   0.851   0.241  0.2188  0.1169 -0.7141
 3617TIP3    H132342   4.103   0.943   0.268 -2.1587 -0.0337  0.6325
 3617TIP3    H232343   4.069   0.805   0.320 -0.0971 -1.4869 -1.7318
 3618TIP3   OH232344   5.000   2.991  13.461  0.0042  0.5805  0.1760
 3618TIP3    H132345   5.083   3.001  13.508 -0.3016  0.7580  0.6787
 3618TIP3    H232346   4.976   3.080  13.435  0.7040  0.3682 -1.2406
 3619TIP3   OH232347   4.938   6.816  17.266  0.1070 -0.3050 -0.1930
 3619TIP3    H132348   5.032   6.825  17.280  0.0771 -0.3933  0.0870
 3619TIP3    H232349   4.926   6.818  17.171  0.2096  1.4465 -0.1749
 3620TIP3   OH232350   4.397   5.863   5.855  0.1661  0.1188 -0.1243
 3620TIP3    H132351   4.461   5.836   5.789 -2.6504 -3.5400 -1.5070
 3620TIP3    H232352   4.392   5.790   5.916  1.0384  2.5185  2.9287
 3621TIP3   OH232353   5.018   6.214  16.019 -0.7535  0.2551 -0.2355
 3621TIP3    H132354   5.099   6.256  16.046  0.3659 -1.5715 -0.6331
 3621TIP3    H232355   5.029   6.198  15.925 -1.5210 -0.1011 -0.2680
 3622TIP3   OH232356   6.628   1.835  12.200 -0.5735 -0.3006 -0.2915
 3622TIP3    H132357   6.680   1.819  12.121 -0.7528  0.0127 -0.4731
 3622TIP3    H232358   6.634   1.753  12.250  0.5439 -0.0815 -0.0551
 3623TIP3   OH232359   2.450   1.472   1.684 -0.4443 -0.0070  0.3684
 3623TIP3    H132360   2.483   1.442   1.599 -2.3734  0.9539 -0.7769
 3623TIP3    H232361   2.471   1.565   1.687 -0.4433 -0.0227  0.9017
 3624TIP3   OH232362   1.651   3.249  14.970  0.0380 -0.2507  0.0294
 3624TIP3    H132363   1.576   3.252  15.029 -0.2152 -1.9553 -0.1759
 3624TIP3    H232364   1.637   3.321  14.909 -1.4064 -0.5450  0.0137
 3625TIP3   OH232365   0.311   0.372   0.344 -0.4913 -0.2686  0.0159
 3625TIP3    H132366   0.224   0.410   0.331 -0.6218 -0.6896 -0.3645
 3625TIP3    H232367   0.297   0.304   0.411 -0.0920  0.9337  1.3492
 3626TIP3   OH232368   5.014   5.529  11.659 -0.0474  0.2652 -0.1703
 3626TIP3    H132369   5.104   5.545  11.687  0.1647 -2.2233  0.6694
 3626TIP3    H232370   5.022   5.467  11.587 -1.0872  0.3186 -0.3416
 3627TIP3   OH232371   2.692   5.612   0.960 -0.0140 -0.9504 -0.0009
 3627TIP3    H132372   2.737   5.662   1.029 -2.0161 -1.2112  1.5439
 3627TIP3    H232373   2.685   5.673   0.887  1.8666 -0.5528  0.1272
 3628TIP3   OH232374   6.621   2.954   0.328 -0.2251  0.3738  0.0204
 3628TIP3    H132375   6.652   2.954   0.419  1.5988  0.5167 -0.5699
 3628TIP3    H232376   6.595   3.045   0.312 -2.8150 -0.1308  1.1005
 3629TIP3   OH232377   1.033   4.572   1.683 -0.3173  0.1607 -0.1322
 3629TIP3    H132378   1.019   4.499   1.743  0.8049  0.1619  0.1381
 3629TIP3    H232379   0.945   4.601   1.659 -0.7923 -2.0003 -1.1369
 3630TIP3   OH232380   2.306   0.259   5.552  0.2690  0.0341 -0.1920
 3630TIP3    H132381   2.378   0.223   5.604  0.8669 -0.7327 -1.5000
 3630TIP3    H232382   2.240   0.189   5.552 -0.9691  1.1611  1.9171
 3631TIP3   OH232383   0.528   5.642   2.643 -0.2071 -0.1180  0.5580
 3631TIP3    H132384   0.596   5.673   2.704 -0.6570  1.8092  0.0975
 3631TIP3    H232385   0.516   5.714   2.582 -2.4202 -0.5877  0.4045
 3632TIP3   OH232386   2.949   4.192  14.899  0.1214 -0.0659  0.2810
 3632TIP3    H132387   3.033   4.146  14.899  1.9762  3.1089 -2.2352
 3632TIP3    H232388   2.900   4.153  14.826  0.0439 -0.7900  0.7136
 3633TIP3   OH232389   3.499   3.293   5.515 -0.2848  0.3789 -0.0663
 3633TIP3    H132390   3.539   3.208   5.498 -0.3150  0.1758  0.8664
 3633TIP3    H232391   3.426   3.298   5.453  1.0414  0.6685 -1.6369
 3634TIP3   OH232392   1.001   3.734   5.790  0.6036  0.0947  0.3173
 3634TIP3    H132393   0.922   3.764   5.836  0.9657 -0.5981  1.3958
 3634TIP3    H232394   1.054   3.813   5.780 -0.4731  0.6844 -0.9465
 3635TIP3   OH232395   2.467   4.130  15.889  0.4514 -0.2825  0.0494
 3635TIP3    H132396   2.484   4.201  15.827 -0.2910 -1.0144 -1.0154
 3635TIP3    H232397   2.549   4.082  15.895  0.4565 -0.3581 -0.5820
 3636TIP3   OH232398   6.021   2.525  15.745 -0.1966  0.1893 -0.4061
 3636TIP3    H132399   6.061   2.449  15.787 -3.5204 -1.9271 -0.8728
 3636TIP3    H232400   5.989   2.578  15.818  0.9841  0.5135 -0.1120
 3637TIP3   OH232401   2.295   4.263  10.846 -1.1233 -0.2899 -0.0479
 3637TIP3    H132402   2.283   4.175  10.810  0.6613  0.7523 -3.3527
 3637TIP3    H232403   2.388   4.282  10.833 -1.0708  1.3957  2.3507
 3638TIP3   OH232404   6.787   4.351  13.254 -0.5131 -0.2070  0.2645
 3638TIP3    H132405   6.828   4.273  13.216 -2.6294 -1.0839 -0.3069
 3638TIP3    H232406   6.850   4.383  13.318  1.0820 -1.4641 -0.6453
 3639TIP3   OH232407   2.299   5.862  16.420 -0.1520  0.5269  0.6300
 3639TIP3    H132408   2.348   5.834  16.343 -1.7776  0.0665 -0.2576
 3639TIP3    H232409   2.317   5.956  16.427 -2.4370  1.2386 -2.1620
 3640TIP3   OH232410   1.840   3.033  11.862 -0.2681  0.0524 -0.0829
 3640TIP3    H132411   1.854   3.102  11.797 -0.0810 -0.4686 -0.6054
 3640TIP3    H232412   1.921   2.981  11.859  0.0654  0.4973  1.1416
 3641TIP3   OH232413   3.602   5.959   3.924 -0.0522 -0.3180 -0.3847
 3641TIP3    H132414   3.668   6.024   3.947  1.1192 -1.5803 -0.0957
 3641TIP3    H232415   3.638   5.876   3.954 -1.2353 -1.1958 -1.3012
 3642TIP3   OH232416   1.505   5.757   4.846  0.2698  0.1287  0.0414
 3642TIP3    H132417   1.586   5.804   4.868  0.8981 -0.4287 -1.0099
 3642TIP3    H232418   1.525   5.665   4.862 -0.0771 -0.0335 -0.4265
 3643TIP3   OH232419   5.793   5.900  14.095 -0.5226 -0.1539  0.5373
 3643TIP3    H132420   5.868   5.845  14.072  0.2652  0.4991  1.4921
 3643TIP3    H232421   5.780   5.957  14.020 -1.2153 -1.5064 -0.3764
 3644TIP3   OH232422   5.475   4.131  11.438 -0.4247  0.2412  0.2449
 3644TIP3    H132423   5.488   4.139  11.343 -1.3572  0.2002  0.1055
 3644TIP3    H232424   5.548   4.179  11.476  0.1754 -0.0687 -0.4940
 3645TIP3   OH232425   2.472   5.013  11.881  0.0186  0.1002  0.1936
 3645TIP3    H132426   2.413   4.942  11.854 -0.9620  1.2665 -0.8005
 3645TIP3    H232427   2.506   4.985  11.965 -0.6527 -1.3813 -0.0104
 3646TIP3   OH232428   5.025   5.973  14.562  0.0851  0.3375  0.7830
 3646TIP3    H132429   5.004   6.036  14.631  1.1823 -0.9354  2.3127
 3646TIP3    H232430   4.951   5.912  14.562 -1.4448  2.1422 -1.3572
 3647TIP3   OH232431   5.979   0.511   0.031  0.4504 -0.1132 -0.3915
 3647TIP3    H132432   5.982   0.418   0.055  3.4849  0.0472  0.0610
 3647TIP3    H232433   6.027   0.515  -0.052 -0.9100  0.8677 -1.1387
 3648TIP3   OH232434   6.359   1.943  12.639 -0.3034  0.6240 -0.2132
 3648TIP3    H132435   6.440   1.924  12.591 -1.2324  0.0488 -1.5770
 3648TIP3    H232436   6.319   1.857  12.654 -0.1374  0.8191  1.4157
 3649TIP3   OH232437   4.192   1.567   5.375 -0.2506 -0.0301  0.4551
 3649TIP3    H132438   4.215   1.483   5.334  1.9237 -0.2927  2.1094
 3649TIP3    H232439   4.212   1.554   5.468  1.5664  2.7710  0.5165
 3650TIP3   OH232440   2.851   5.086   3.910 -0.6683  0.1163 -0.1541
 3650TIP3    H132441   2.773   5.097   3.965 -0.7986 -0.9209 -0.1129
 3650TIP3    H232442   2.819   5.101   3.820 -0.6550  0.8718 -0.0375
 3651TIP3   OH232443   0.168   6.340  10.829  0.1221 -0.7374 -0.0210
 3651TIP3    H132444   0.248   6.295  10.801 -0.4569 -1.2768 -0.8161
 3651TIP3    H232445   0.099   6.275  10.819 -0.4359 -0.2402  0.5756
 3652TIP3   OH232446   4.500   5.983   0.273 -0.6526  0.0688  0.0113
 3652TIP3    H132447   4.550   5.907   0.242  0.5190  1.0403 -0.5669
 3652TIP3    H232448   4.562   6.056   0.266 -1.2704  0.8133  2.0293
 3653TIP3   OH232449   3.109   4.161   5.550  0.2063  0.3900 -0.4028
 3653TIP3    H132450   3.149   4.113   5.477 -1.7195 -0.6875 -0.7993
 3653TIP3    H232451   3.138   4.251   5.539  2.3922 -0.3269 -0.7434
 3654TIP3   OH232452   5.481   2.165  15.581  0.0197 -0.0217 -0.0704
 3654TIP3    H132453   5.404   2.109  15.590 -0.1224  0.3784  1.3522
 3654TIP3    H232454   5.546   2.110  15.536  0.0255 -1.4757  1.6418
 3655TIP3   OH232455   6.777   3.270  14.167 -0.1779 -0.2425 -0.3490
 3655TIP3    H132456   6.858   3.244  14.211 -0.9578 -0.3572  1.0705
 3655TIP3    H232457   6.738   3.187  14.138 -0.1359 -0.2474 -0.3916
 3656TIP3   OH232458   5.839   2.036  16.793 -0.5041 -0.4171  0.0371
 3656TIP3    H132459   5.862   2.129  16.793  0.3749 -0.6289 -1.6665
 3656TIP3    H232460   5.899   1.996  16.730 -0.0382 -2.3529  1.6678
 3657TIP3   OH232461   0.544   3.162  15.469 -0.0619  0.6846  0.2983
 3657TIP3    H132462   0.457   3.193  15.494  0.0551  0.4457  1.0005
 3657TIP3    H232463   0.539   3.154  15.374 -1.1844 -0.4723  0.4400
 3658TIP3   OH232464   6.172   4.469   5.588 -0.2651 -0.2365 -0.1912
 3658TIP3    H132465   6.102   4.532   5.579  1.4428  1.6961 -0.3585
 3658TIP3    H232466   6.151   4.420   5.667 -2.3728 -0.4784 -0.8691
 3659TIP3   OH232467   1.204   6.359   3.113 -0.2865 -0.3223 -0.2955
 3659TIP3    H132468   1.276   6.382   3.172 -0.0081 -2.2943  0.1464
 3659TIP3    H232469   1.155   6.292   3.160 -1.1904 -0.5165 -1.5059
 3660TIP3   OH232470   1.516   0.287   1.142 -1.1142 -0.0893 -0.1658
 3660TIP3    H132471   1.536   0.380   1.143 -0.9266 -0.1223 -0.9948
 3660TIP3    H232472   1.577   0.249   1.078 -1.3324 -0.7482  0.0067
 3661TIP3   OH232473   6.746   3.848  15.137  0.2790  0.3627  0.2138
 3661TIP3    H132474   6.733   3.764  15.095 -1.1129  1.2071 -1.0976
 3661TIP3    H232475   6.840   3.853  15.155  0.3907 -1.3526  0.0965
 3662TIP3   OH232476   1.942   1.147  11.698  0.0180  0.2231 -0.1040
 3662TIP3    H132477   1.890   1.087  11.644  1.4316 -0.9663 -0.1721
 3662TIP3    H232478   1.960   1.096  11.778 -1.8283  1.8549  1.4123
 3663TIP3   OH232479   1.933   3.966   0.892 -0.7366  0.0930 -0.2702
 3663TIP3    H132480   1.873   3.893   0.908 -2.3722  1.2999 -0.8830
 3663TIP3    H232481   1.917   4.027   0.964 -1.9124  1.4955 -1.7099
 3664TIP3   OH232482   2.313   4.424   2.088  0.6403  0.8525  0.4275
 3664TIP3    H132483   2.317   4.331   2.108 -0.8742  0.4897 -0.8657
 3664TIP3    H232484   2.346   4.431   1.999 -1.5666  1.2108 -0.3956
 3665TIP3   OH232485   4.688   0.902   1.112  0.2289  0.3437  0.2628
 3665TIP3    H132486   4.711   0.928   1.023  0.4976 -1.1074 -0.1088
 3665TIP3    H232487   4.769   0.911   1.161  0.2875  0.3438  0.1669
 3666TIP3   OH232488   1.040   5.559  14.506  0.7327 -0.1627  0.4541
 3666TIP3    H132489   1.047   5.466  14.487  0.0068 -0.2966  0.8215
 3666TIP3    H232490   0.954   5.584  14.472  1.9886  0.9637 -2.0374
 3667TIP3   OH232491   6.474   3.668  17.096 -0.0547  0.0362  0.0706
 3667TIP3    H132492   6.393   3.671  17.147 -0.7259 -0.7051 -0.9405
 3667TIP3    H232493   6.529   3.605  17.142 -0.9889 -1.2849 -0.5921
 3668TIP3   OH232494   3.358   5.772   6.660  0.4334 -0.0321 -0.1061
 3668TIP3    H132495   3.263   5.767   6.673  0.6388 -4.4370  0.4462
 3668TIP3    H232496   3.384   5.683   6.639  4.4144  1.2110 -0.9356
 3669TIP3   OH232497   6.470   1.006  10.740  0.2066 -0.3605  0.6301
 3669TIP3    H132498   6.525   0.949  10.686  1.7512  0.3597  1.3879
 3669TIP3    H232499   6.382   0.972  10.730  0.9891 -2.4195  0.4701
 3670TIP3   OH232500   2.072   6.386  15.688  0.0736 -0.2533  0.4532
 3670TIP3    H132501   2.155   6.370  15.733 -0.1742 -1.0128  0.6437
 3670TIP3    H232502   2.042   6.470  15.723  0.4254 -0.3035  0.8794
 3671TIP3   OH232503   6.312   6.067  13.657 -0.6117  0.0019 -0.0218
 3671TIP3    H132504   6.337   6.133  13.721 -1.0520  0.2922 -0.1463
 3671TIP3    H232505   6.250   6.011  13.703 -0.3020 -0.2800  0.0574
 3672TIP3   OH232506   6.690   3.217   1.951  0.0373  0.1019  0.2455
 3672TIP3    H132507   6.612   3.169   1.976  0.4914 -0.5777  0.3589
 3672TIP3    H232508   6.724   3.170   1.875  0.3331  0.4038  0.1871
 3673TIP3   OH232509   0.732   4.711  17.175  0.0553  0.0024 -0.3440
 3673TIP3    H132510   0.638   4.705  17.156 -0.1317 -3.9287  1.3482
 3673TIP3    H232511   0.741   4.793  17.224 -2.4020  0.5935 -0.8021
 3674TIP3   OH232512   5.708   1.227  11.361 -0.2637  0.2182 -0.1003
 3674TIP3    H132513   5.778   1.195  11.304 -0.9255 -0.9877 -0.2534
 3674TIP3    H232514   5.718   1.322  11.361  0.8813  0.1021 -0.7500
 3675TIP3   OH232515   4.720   2.255   2.044  0.0811 -0.0340  0.2233
 3675TIP3    H132516   4.714   2.253   1.949 -0.8058 -1.7120  0.2900
 3675TIP3    H232517   4.794   2.198   2.065 -2.4431 -3.3276  0.6792
 3676TIP3   OH232518   5.896   5.259   4.242 -0.3453  0.0184  0.2149
 3676TIP3    H132519   5.889   5.339   4.190 -0.7255 -0.4599 -0.4631
 3676TIP3    H232520   5.907   5.189   4.178  0.7948 -0.3905  0.8362
 3677TIP3   OH232521   4.847   0.549  15.548  0.2551  0.1573  0.5093
 3677TIP3    H132522   4.868   0.642  15.546 -2.5569  0.7934 -0.3626
 3677TIP3    H232523   4.874   0.516  15.463  1.5851  0.0774  0.9498
 3678TIP3   OH232524   0.192   4.712   2.455  0.1209  0.7713 -0.8992
 3678TIP3    H132525   0.178   4.795   2.499 -0.8080  0.0782  0.1628
 3678TIP3    H232526   0.132   4.714   2.381 -1.3064  0.2851  0.2151
 3679TIP3   OH232527   6.555   1.124   5.888  0.0885 -0.3425  0.5131
 3679TIP3    H132528   6.473   1.161   5.923 -0.6191 -1.0994 -0.3041
 3679TIP3    H232529   6.555   1.033   5.917 -1.4632 -1.5345 -2.9338
 3680TIP3   OH232530   6.444   0.160  10.663  0.0198  0.0457  0.3086
 3680TIP3    H132531   6.435   0.247  10.624 -0.5558 -0.7164 -1.2828
 3680TIP3    H232532   6.356   0.137  10.691 -0.1805 -0.7818 -0.9468
 3681TIP3   OH232533   2.321   6.375   3.747 -0.1384 -0.4998 -0.4368
 3681TIP3    H132534   2.360   6.451   3.704 -2.6218 -0.4320 -2.6703
 3681TIP3    H232535   2.242   6.408   3.789 -0.7657 -1.6656 -0.6669
 3682TIP3   OH232536   2.376   1.994  14.578  0.3649  0.2350  0.3262
 3682TIP3    H132537   2.442   1.942  14.532 -0.4457  0.1424 -0.7518
 3682TIP3    H232538   2.427   2.053  14.633  1.3356 -0.3390  0.0587
 3683TIP3   OH232539   5.590   5.387   0.353 -0.0696  0.0776  0.6800
 3683TIP3    H132540   5.653   5.374   0.424  0.0321  0.3810  0.6465
 3683TIP3    H232541   5.634   5.353   0.275 -0.2649 -0.4585  0.7956
 3684TIP3   OH232542   0.359   0.180  16.941 -0.5604  0.0006  0.3965
 3684TIP3    H132543   0.300   0.246  16.905  1.2107  0.7728 -1.1110
 3684TIP3    H232544   0.404   0.143  16.865  0.4044 -1.0690  1.4668
 3685TIP3   OH232545   6.469   2.412   3.339 -0.2972 -0.1967 -0.5756
 3685TIP3    H132546   6.519   2.364   3.405  0.6422 -1.9701 -2.5069
 3685TIP3    H232547   6.391   2.357   3.325 -1.4540  1.1416  0.3878
 3686TIP3   OH232548   6.606   0.337   1.260 -0.2431 -0.0013 -0.0474
 3686TIP3    H132549   6.607   0.395   1.183 -0.1160  0.7953  0.5477
 3686TIP3    H232550   6.533   0.277   1.243 -1.2979  1.2355 -0.0157
 3687TIP3   OH232551   4.631   5.872   3.049  0.0299  0.7874  0.5866
 3687TIP3    H132552   4.698   5.927   3.089 -0.5219  2.1283 -0.3185
 3687TIP3    H232553   4.661   5.859   2.959 -0.4853  0.6661  0.4316
 3688TIP3   OH232554   4.034   2.812  12.719 -0.1206 -0.0023  0.2467
 3688TIP3    H132555   3.957   2.759  12.699  0.2604  0.1751 -1.7849
 3688TIP3    H232556   4.075   2.768  12.793 -1.7088 -0.5664  0.8110
 3689TIP3   OH232557   1.126   4.043  10.688  0.3945 -0.1849  0.0135
 3689TIP3    H132558   1.120   3.952  10.660 -0.5915  0.4504 -1.9207
 3689TIP3    H232559   1.079   4.046  10.772  0.5225 -1.4620  0.1344
 3690TIP3   OH232560   1.052   2.977   1.884  0.4337 -0.3575 -0.3184
 3690TIP3    H132561   1.111   2.962   1.958  0.4363 -1.3870 -0.5326
 3690TIP3    H232562   1.108   3.012   1.815  0.5152  0.1397 -0.0087
 3691TIP3   OH232563   3.728   2.307  13.257 -0.1015 -0.0121  0.0424
 3691TIP3    H132564   3.692   2.395  13.270 -1.3085 -0.6660  1.2992
 3691TIP3    H232565   3.793   2.297  13.326  0.5463  0.1386 -0.5359
 3692TIP3   OH232566   2.452   3.899  13.890 -0.4453 -0.5853  0.2290
 3692TIP3    H132567   2.461   3.888  13.795  1.4070  0.8689  0.2025
 3692TIP3    H232568   2.483   3.817  13.927 -1.8322 -1.4299 -0.4273
 3693TIP3   OH232569   6.720   6.689  14.885 -0.5845  0.0393 -0.2198
 3693TIP3    H132570   6.802   6.648  14.912 -0.0869  1.3322  0.2367
 3693TIP3    H232571   6.672   6.702  14.966 -1.4470 -1.1308 -0.5321
 3694TIP3   OH232572   0.895   0.413   6.189  0.0194  0.0634  0.1899
 3694TIP3    H132573   0.876   0.505   6.205  1.5506  0.1670  1.5433
 3694TIP3    H232574   0.857   0.367   6.263  2.6013  0.0186  1.5471
 3695TIP3   OH232575   2.386   5.785  11.100  0.1609 -0.4132  0.5576
 3695TIP3    H132576   2.336   5.714  11.058 -1.3465  0.2075  1.2427
 3695TIP3    H232577   2.471   5.784  11.056 -0.6761 -1.0813 -1.1034
 3696TIP3   OH232578   1.601   3.316  12.470 -0.0853  0.4605  0.0907
 3696TIP3    H132579   1.605   3.339  12.563 -2.0948 -0.7020  0.4938
 3696TIP3    H232580   1.531   3.372  12.436 -0.7906 -0.6077 -0.2462
 3697TIP3   OH232581   6.016   2.871  15.069 -0.4469  0.5989 -0.1668
 3697TIP3    H132582   5.968   2.819  15.133  0.0919 -1.6806 -1.5689
 3697TIP3    H232583   6.030   2.812  14.995  2.3264  1.9719 -0.8134
 3698TIP3   OH232584   2.342   3.203   3.850  0.0010  0.1042  0.3559
 3698TIP3    H132585   2.300   3.288   3.868  0.5919  0.4311  0.1943
 3698TIP3    H232586   2.320   3.149   3.925  0.8047  0.8450  1.1366
 3699TIP3   OH232587   1.966   2.950   2.909 -0.1993 -0.1393 -0.1446
 3699TIP3    H132588   1.996   2.889   2.843  1.3491  0.4317 -0.0053
 3699TIP3    H232589   2.030   3.021   2.907  0.8801 -0.9262  3.1310
 3700TIP3   OH232590   5.039   1.316   6.228  0.5127 -0.1927  0.3788
 3700TIP3    H132591   5.090   1.364   6.293 -0.8487  1.4442  0.2750
 3700TIP3    H232592   4.990   1.252   6.279  1.8924 -1.1026  0.5884
 3701TIP3   OH232593   0.050   3.036  15.111  0.2499  0.7558  0.0374
 3701TIP3    H132594   0.037   3.054  15.018  1.4883  0.0393 -0.2801
 3701TIP3    H232595   0.113   2.964  15.114 -1.1593 -0.4434  1.4027
 3702TIP3   OH232596   4.412   0.557   5.668 -0.1848  0.1158  0.2788
 3702TIP3    H132597   4.352   0.557   5.743  1.4703 -0.6755  1.6553
 3702TIP3    H232598   4.362   0.516   5.597 -2.0146  1.4943  0.7322
 3703TIP3   OH232599   0.175   1.772  11.525 -0.2486 -0.1856 -0.6415
 3703TIP3    H132600   0.110   1.779  11.455  0.2605 -0.1220 -1.1096
 3703TIP3    H232601   0.239   1.709  11.491 -0.0597 -0.2374 -0.1870
 3704TIP3   OH232602   1.536   6.056   5.088 -0.1259 -0.4312 -0.2365
 3704TIP3    H132603   1.451   6.068   5.045  0.1819 -1.6040 -1.1914
 3704TIP3    H232604   1.597   6.040   5.016  0.8768  0.1828  0.4619
 3705TIP3   OH232605   6.073   5.050  10.293  0.5686 -0.5445 -0.1570
 3705TIP3    H132606   6.063   5.128  10.239  0.3432 -0.8322 -0.5354
 3705TIP3    H232607   6.071   5.082  10.383 -1.3412 -0.3267 -0.2605
 3706TIP3   OH232608   6.415   1.280   3.321 -0.6713  0.0727  0.3773
 3706TIP3    H132609   6.504   1.244   3.332 -0.8526 -1.0738 -1.6491
 3706TIP3    H232610   6.361   1.228   3.380 -0.2383 -0.2337  0.5097
 3707TIP3   OH232611   6.412   5.991  13.414 -0.0604 -0.0733 -0.0437
 3707TIP3    H132612   6.367   6.010  13.497  1.4794  0.1096  0.7629
 3707TIP3    H232613   6.459   5.909  13.431 -0.6302 -0.6223 -1.1015
 3708TIP3   OH232614   3.843   6.478  10.434  0.1042  0.3207  0.6774
 3708TIP3    H132615   3.925   6.520  10.407  0.2791 -1.3290 -1.4749
 3708TIP3    H232616   3.856   6.386  10.413 -1.2952 -0.4055  2.8376
 3709TIP3   OH232617   0.627   0.691   4.872 -0.7368 -0.0024 -0.8332
 3709TIP3    H132618   0.624   0.719   4.963 -0.3555 -0.5085 -0.6635
 3709TIP3    H232619   0.592   0.766   4.823 -0.1200  0.6117 -0.3546
 3710TIP3   OH232620   1.358   2.280   5.685  0.1855 -0.0704 -0.1594
 3710TIP3    H132621   1.423   2.290   5.755 -0.8945  1.6226  0.6367
 3710TIP3    H232622   1.322   2.192   5.699 -1.2135  0.8643  2.5013
 3711TIP3   OH232623   0.837   6.370   3.757 -0.0125 -0.0045 -0.0319
 3711TIP3    H132624   0.880   6.296   3.714  1.2739  0.9377 -0.3957
 3711TIP3    H232625   0.745   6.361   3.734 -0.0234 -2.0288  0.7159
 3712TIP3   OH232626   1.752   3.460  12.275 -0.4724 -0.6838 -0.4472
 3712TIP3    H132627   1.690   3.423  12.338  1.8553 -2.3785  0.9501
 3712TIP3    H232628   1.763   3.391  12.209  0.9852 -1.0056  0.1034
 3713TIP3   OH232629   3.888   5.159  10.957  0.4388  0.0628 -0.0232
 3713TIP3    H132630   3.922   5.070  10.947  2.2859  0.7005  0.4979
 3713TIP3    H232631   3.937   5.196  11.030 -0.2909  1.5428 -0.2532
 3714TIP3   OH232632   1.388   6.610  16.711 -0.0109  0.1148  0.1661
 3714TIP3    H132633   1.312   6.566  16.748 -1.1315  1.0813 -0.9665
 3714TIP3    H232634   1.375   6.702  16.731  0.7552  0.3081 -0.2062
 3715TIP3   OH232635   1.371   3.674   5.541  1.0867  0.8782 -0.2331
 3715TIP3    H132636   1.401   3.607   5.479  1.9369 -1.2705  2.4156
 3715TIP3    H232637   1.380   3.756   5.492 -0.5880 -0.9070 -3.7819
 3716TIP3   OH232638   1.413   2.502   6.618  0.2773 -0.2290 -0.1550
 3716TIP3    H132639   1.401   2.430   6.679 -0.7481 -0.8487 -1.0668
 3716TIP3    H232640   1.457   2.570   6.669 -0.6226 -0.7033  1.2802
 3717TIP3   OH232641   1.911   3.836  11.418  0.0383  0.0650  0.6113
 3717TIP3    H132642   1.964   3.901  11.465 -1.0039  0.1535  1.6789
 3717TIP3    H232643   1.946   3.838  11.329  1.3809  0.6146  1.1229
 3718TIP3   OH232644   4.557   2.798  14.091  0.0309  0.0128  0.3525
 3718TIP3    H132645   4.543   2.779  14.184 -0.0232 -0.7844  0.1906
 3718TIP3    H232646   4.600   2.719  14.057 -3.0973 -1.1597 -1.0354
 3719TIP3   OH232647   5.075   3.609  16.895  0.2768  0.1321  0.1324
 3719TIP3    H132648   5.142   3.613  16.964  0.9711  2.6008 -0.6679
 3719TIP3    H232649   5.070   3.697  16.860 -1.3657 -0.6812 -1.8025
 3720TIP3   OH232650   6.049   1.598   4.752  1.0415  0.1639  0.0693
 3720TIP3    H132651   6.022   1.688   4.734 -1.0237 -0.5625 -0.7021
 3720TIP3    H232652   6.092   1.569   4.672  0.2148 -0.0429 -0.3150
 3721TIP3   OH232653   2.735   3.524   4.930 -0.6697  0.3345 -0.9728
 3721TIP3    H132654   2.758   3.589   4.997 -0.5192  0.8312 -1.5006
 3721TIP3    H232655   2.727   3.575   4.850 -2.5281  0.0173 -1.0151
 3722TIP3   OH232656   2.384   0.960   5.882 -0.9609  0.5895  0.3631
 3722TIP3    H132657   2.341   1.039   5.852 -0.9049  0.5683  0.2262
 3722TIP3    H232658   2.463   0.991   5.927 -1.2964  0.6454  0.9176
 3723TIP3   OH232659   3.495   0.518  12.209 -0.1160  0.4539  0.3290
 3723TIP3    H132660   3.481   0.591  12.148  0.6542  1.2885  1.1284
 3723TIP3    H232661   3.472   0.554  12.295 -0.3508 -0.4494  0.6439
 3724TIP3   OH232662   1.887   4.412   4.764 -0.6308 -0.0494 -0.2500
 3724TIP3    H132663   1.951   4.350   4.727  1.6678  0.9118  1.9351
 3724TIP3    H232664   1.815   4.357   4.794  0.1628 -1.3968 -0.7460
 3725TIP3   OH232665   5.789   2.053   4.422  0.1693 -0.4190  0.3802
 3725TIP3    H132666   5.780   2.073   4.329 -0.5936 -0.3317  0.4733
 3725TIP3    H232667   5.760   2.132   4.467 -1.7652 -1.3024  0.7273
 3726TIP3   OH232668   6.399   1.463  16.657 -0.4674 -0.4545 -0.4704
 3726TIP3    H132669   6.306   1.445  16.667 -0.4485 -0.5465 -0.4477
 3726TIP3    H232670   6.441   1.378  16.674 -0.5370 -0.9988 -2.9004
 3727TIP3   OH232671   2.665   0.084   2.101 -0.0918 -0.2597  0.4797
 3727TIP3    H132672   2.692   0.165   2.144  0.2457  0.4637 -1.0942
 3727TIP3    H232673   2.740   0.025   2.109  0.2472  0.1385  0.2056
 3728TIP3   OH232674   0.154   3.415  17.152  0.3856  0.7659  0.6943
 3728TIP3    H132675   0.240   3.389  17.185  1.0147  1.4887 -0.3498
 3728TIP3    H232676   0.096   3.345  17.180  1.5210 -0.3052  0.4422
 3729TIP3   OH232677   6.723   3.448   2.401 -0.3382  0.5882  1.1560
 3729TIP3    H132678   6.674   3.457   2.319  0.7724  1.1908  0.5436
 3729TIP3    H232679   6.811   3.478   2.379  1.0017 -2.8494  1.5945
 3730TIP3   OH232680   3.940   2.029  11.134 -0.4784  0.1457  0.3669
 3730TIP3    H132681   3.879   1.956  11.147  1.5412 -1.7195 -0.2506
 3730TIP3    H232682   3.994   2.002  11.060  0.6444  2.0670  0.4420
 3731TIP3   OH232683   5.412   2.545  13.246 -0.2971  0.5864  0.0943
 3731TIP3    H132684   5.441   2.635  13.231  1.5815  0.1227  0.8129
 3731TIP3    H232685   5.336   2.554  13.304 -2.0481  1.8572 -2.2930
 3732TIP3   OH232686   6.127   6.596   0.986  0.8273  0.0899  0.1306
 3732TIP3    H132687   6.076   6.544   1.048 -0.6025 -0.8129 -1.7365
 3732TIP3    H232688   6.199   6.538   0.960  0.1432 -0.3967 -0.7294
 3733TIP3   OH232689   1.002   6.320   2.399 -0.1268  0.5165  0.2778
 3733TIP3    H132690   1.028   6.293   2.311 -0.7827  1.9129 -0.3568
 3733TIP3    H232691   0.924   6.267   2.419 -0.3965  0.7120 -0.2668
 3734TIP3   OH232692   5.055   1.149  12.023 -0.5100  0.0789 -0.0884
 3734TIP3    H132693   5.061   1.226  11.966 -0.3486 -0.0083 -0.1890
 3734TIP3    H232694   5.116   1.087  11.985  0.1933  0.3166  0.6621
 3735TIP3   OH232695   2.771   0.372  11.886 -0.1174 -0.4317 -0.2869
 3735TIP3    H132696   2.788   0.390  11.978  0.8319 -3.1298  0.1148
 3735TIP3    H232697   2.677   0.354  11.882 -0.1393 -0.4342  0.1972
 3736TIP3   OH232698   5.960   2.014  15.635  0.4548  0.0364  0.0054
 3736TIP3    H132699   5.886   2.071  15.654  0.7888  0.4290  0.1636
 3736TIP3    H232700   6.001   2.053  15.558 -0.9107 -1.5773 -1.5514
 3737TIP3   OH232701   1.559   0.951  11.444  0.1892 -0.2710  0.0709
 3737TIP3    H132702   1.583   0.868  11.485  0.1209  0.4484  1.5956
 3737TIP3    H232703   1.545   0.929  11.352  1.1979 -1.7482  0.2562
 3738TIP3   OH232704   2.602   5.189  15.417 -0.0283 -0.5076 -0.3087
 3738TIP3    H132705   2.654   5.261  15.381 -0.1812 -0.2375  0.0077
 3738TIP3    H232706   2.592   5.127  15.344 -1.5208  0.6796 -1.1201
 3739TIP3   OH232707   1.218   2.306   2.271  0.8681  0.5221 -0.2401
 3739TIP3    H132708   1.281   2.305   2.343  0.1336  1.1029  0.4251
 3739TIP3    H232709   1.135   2.330   2.313  0.5839  1.5838 -1.4073
 3740TIP3   OH232710   3.178   6.078  12.434  0.4130  0.6408 -0.0673
 3740TIP3    H132711   3.184   6.039  12.346 -1.4471  1.9466 -0.8007
 3740TIP3    H232712   3.220   6.014  12.491 -1.4612 -1.8980 -1.4012
 3741TIP3   OH232713   2.436   5.157   1.784  0.6851  0.0343 -0.2373
 3741TIP3    H132714   2.520   5.140   1.827 -0.2326  0.9791  1.9723
 3741TIP3    H232715   2.371   5.123   1.845 -0.7474  3.2662  0.1363
 3742TIP3   OH232716   5.377   4.286  16.322 -0.0095 -0.8304 -0.2691
 3742TIP3    H132717   5.420   4.220  16.267  1.6669 -0.7385  0.8900
 3742TIP3    H232718   5.425   4.282  16.405  0.5329  2.2983 -0.3907
 3743TIP3   OH232719   0.161   0.200   3.926  0.0288  0.0534 -0.4564
 3743TIP3    H132720   0.189   0.291   3.941  0.0997 -0.0707  0.1756
 3743TIP3    H232721   0.170   0.158   4.011 -0.1693 -0.5069 -0.7107
 3744TIP3   OH232722   6.751   5.740   0.910  0.3750 -0.5814 -0.3229
 3744TIP3    H132723   6.703   5.758   0.991  0.3702  1.1578 -0.7034
 3744TIP3    H232724   6.706   5.791   0.843  2.8493  1.2669 -0.6393
 3745TIP3   OH232725   5.662   2.131  13.573  0.3419  0.2006 -0.0454
 3745TIP3    H132726   5.640   2.076  13.648 -1.8088  0.2577 -0.5996
 3745TIP3    H232727   5.691   2.069  13.506  1.1084  0.0468  0.4189
 3746TIP3   OH232728   3.206   1.459   2.631  0.2966  0.1676  0.1110
 3746TIP3    H132729   3.140   1.434   2.566  0.9879 -0.7083 -0.2721
 3746TIP3    H232730   3.190   1.551   2.648 -0.1623  0.2963 -1.0037
 3747TIP3   OH232731   6.299   4.914   5.941  0.0860  0.4323 -0.3137
 3747TIP3    H132732   6.343   4.952   5.865 -1.1273  2.0582 -0.2297
 3747TIP3    H232733   6.308   4.819   5.928  0.1633  0.6808 -2.3456
 3748TIP3   OH232734   4.858   3.297  11.183  0.4673 -0.1929  0.3216
 3748TIP3    H132735   4.803   3.373  11.163  1.4362  0.4846  0.2030
 3748TIP3    H232736   4.903   3.277  11.101 -1.2376 -2.1191 -0.1768
 3749TIP3   OH232737   1.433   3.637   4.380 -0.7990 -0.3103  0.2395
 3749TIP3    H132738   1.435   3.732   4.371 -2.0097 -0.1973  1.0663
 3749TIP3    H232739   1.414   3.605   4.292 -2.4580  0.3079  0.3639
 3750TIP3   OH232740   6.717   4.923  15.239 -0.5277  0.0050  0.1696
 3750TIP3    H132741   6.716   5.010  15.278  1.0847  0.8271 -1.5221
 3750TIP3    H232742   6.797   4.882  15.272  1.8719  1.4096 -3.5900
 3751TIP3   OH232743   6.123   6.439   0.116  0.2851 -1.0951  0.0383
 3751TIP3    H132744   6.087   6.509   0.170 -2.6413 -1.9027 -0.7372
 3751TIP3    H232745   6.202   6.411   0.161  0.3004  1.2002  1.5182
 3752TIP3   OH232746   5.892   5.151  14.401 -0.4992 -0.2040 -0.0549
 3752TIP3    H132747   5.970   5.205  14.391 -0.4961  0.0418  1.3177
 3752TIP3    H232748   5.911   5.073  14.349 -0.5774  1.1599 -2.1935
 3753TIP3   OH232749   4.702   4.830  14.023 -0.0299  0.6783 -0.3485
 3753TIP3    H132750   4.683   4.755  13.968  0.4937  0.3292 -0.0569
 3753TIP3    H232751   4.782   4.868  13.986 -0.5458  1.3603 -0.7713
 3754TIP3   OH232752   5.555   3.898   2.974  0.3207  0.0208 -0.0678
 3754TIP3    H132753   5.510   3.975   3.009  1.5244 -0.6693  3.1950
 3754TIP3    H232754   5.605   3.931   2.900 -0.3244  2.1029  0.3886
 3755TIP3   OH232755   5.026   5.462  16.472 -0.1433 -0.4528  0.0607
 3755TIP3    H132756   5.083   5.485  16.545  0.4102 -1.5049 -0.0261
 3755TIP3    H232757   5.048   5.371  16.452 -1.5763 -0.7456 -0.2354
 3756TIP3   OH232758   2.272   0.317  12.686 -0.7556  0.4946  0.7494
 3756TIP3    H132759   2.357   0.343  12.650 -0.4983  1.4416  1.9837
 3756TIP3    H232760   2.284   0.226  12.714  0.1002  0.8778  1.6501
 3757TIP3   OH232761   0.064   4.125  17.040  0.3809 -0.1665  0.0727
 3757TIP3    H132762   0.136   4.177  17.005 -0.8690 -0.6715 -3.5125
 3757TIP3    H232763   0.106   4.050  17.081  1.9608  0.2536 -0.7339
 3758TIP3   OH232764   0.479   5.987   6.218 -0.4035  0.7395 -0.5903
 3758TIP3    H132765   0.476   5.914   6.155  0.5479 -0.7242  1.0427
 3758TIP3    H232766   0.558   5.971   6.270 -0.7053  2.4243  0.4080
 3759TIP3   OH232767   3.586   1.003  15.679 -0.1777 -0.0738  0.2786
 3759TIP3    H132768   3.636   0.922  15.690 -1.3046 -0.5292  2.3978
 3759TIP3    H232769   3.650   1.073  15.693  0.4571 -0.6222  0.1348
 3760TIP3   OH232770   4.629   5.921   4.857 -0.2158  0.0240 -0.7110
 3760TIP3    H132771   4.694   5.990   4.841 -1.5371  1.5158  0.1605
 3760TIP3    H232772   4.550   5.953   4.813 -1.2199 -0.2877  0.8288
 3761TIP3   OH232773   4.000   4.110  11.444  0.2787 -0.6750 -0.5732
 3761TIP3    H132774   3.999   4.014  11.436  2.3873 -0.8776  1.1097
 3761TIP3    H232775   3.908   4.135  11.432 -0.4940 -3.0128  0.0218
 3762TIP3   OH232776   6.776   3.315  11.124  0.3020 -0.4728  0.0816
 3762TIP3    H132777   6.861   3.273  11.138  0.3589 -0.4882 -0.2953
 3762TIP3    H232778   6.784   3.355  11.038  0.5259  0.9988  0.7716
 3763TIP3   OH232779   0.560   1.235   1.049 -0.2061 -0.5864 -0.0601
 3763TIP3    H132780   0.583   1.323   1.077 -0.4851 -0.9724  1.4241
 3763TIP3    H232781   0.568   1.237   0.954  0.2754  0.8945  0.0031
 3764TIP3   OH232782   6.341   1.199   1.461  0.3065  0.0386 -0.2723
 3764TIP3    H132783   6.385   1.215   1.545  0.6401 -1.5597 -0.1250
 3764TIP3    H232784   6.324   1.104   1.461  0.4365  0.0014 -2.0616
 3765TIP3   OH232785   2.029   6.677   6.660  0.5862 -0.5333  0.0898
 3765TIP3    H132786   2.039   6.708   6.750 -0.5441  0.3965 -0.0944
 3765TIP3    H232787   2.106   6.622   6.644  1.0548 -0.2667  1.4416
 3766TIP3   OH232788   4.030   1.587   2.699  0.0604 -0.0258 -0.3536
 3766TIP3    H132789   4.103   1.623   2.751  1.2047 -1.9090 -0.6031
 3766TIP3    H232790   4.072   1.523   2.641 -1.4901  0.5877 -2.1770
 3767TIP3   OH232791   3.534   0.321  13.562  0.1173  0.3053  0.7460
 3767TIP3    H132792   3.606   0.359  13.512  1.2200  1.4520  3.1286
 3767TIP3    H232793   3.541   0.227  13.548  1.3123  0.5149 -0.0560
 3768TIP3   OH232794   5.609   4.002   0.800  0.4609 -0.4212 -0.0206
 3768TIP3    H132795   5.545   4.054   0.751 -0.5130 -0.1628  1.4942
 3768TIP3    H232796   5.556   3.939   0.849  1.4795 -1.2002  0.0934
 3769TIP3   OH232797   2.605   3.136  11.754  0.1735 -0.2864 -0.1108
 3769TIP3    H132798   2.590   3.152  11.847  2.2370  1.0027  0.0204
 3769TIP3    H232799   2.630   3.044  11.749 -0.1516 -0.4143  0.5861
 3770TIP3   OH232800   5.367   0.161   2.517  0.0034 -0.2904  0.0071
 3770TIP3    H132801   5.301   0.148   2.585 -0.3889  0.1361 -0.2866
 3770TIP3    H232802   5.423   0.231   2.551 -1.6245  1.6220 -1.1422
 3771TIP3   OH232803   0.712   5.482  12.571  0.1376  0.1802  0.4268
 3771TIP3    H132804   0.783   5.421  12.594 -0.3713  0.3645  2.5766
 3771TIP3    H232805   0.741   5.523  12.489  0.5489 -2.8462 -1.0284
 3772TIP3   OH232806   4.372   1.075   4.653 -0.3459 -0.3189  0.0657
 3772TIP3    H132807   4.310   1.044   4.587  0.9869 -0.9619 -0.8971
 3772TIP3    H232808   4.404   0.995   4.695  2.9378 -0.3036 -2.2697
 3773TIP3   OH232809   4.235   5.282  10.676  0.6579 -0.0509  0.0779
 3773TIP3    H132810   4.230   5.213  10.742 -1.4855 -0.6875 -0.7057
 3773TIP3    H232811   4.150   5.328  10.683  0.7489  0.3986 -1.6541
 3774TIP3   OH232812   4.170   0.898   6.638  0.1402 -0.2341  0.6805
 3774TIP3    H132813   4.209   0.823   6.594  1.9769  0.7959  0.4838
 3774TIP3    H232814   4.240   0.933   6.693 -0.8308  1.0407  1.1501
 3775TIP3   OH232815   3.578   2.806   4.257  0.7755 -0.1967 -0.0321
 3775TIP3    H132816   3.614   2.730   4.302  1.9710  0.1723 -0.3590
 3775TIP3    H232817   3.526   2.769   4.185  0.0739 -0.7402  0.7481
 3776TIP3   OH232818   0.179   2.027  16.600  0.1028 -0.3385 -0.0770
 3776TIP3    H132819   0.235   2.100  16.628  1.6713 -2.2586  1.9329
 3776TIP3    H232820   0.240   1.956  16.582 -1.6093 -2.1304  1.0646
 3777TIP3   OH232821   5.589   6.358  12.593  0.1298 -0.0088  0.2734
 3777TIP3    H132822   5.683   6.365  12.577  0.6461  1.5663  3.5421
 3777TIP3    H232823   5.552   6.436  12.552  0.3631 -0.0681 -0.0588
 3778TIP3   OH232824   3.411   4.721   4.458 -0.0717 -0.2510 -0.2873
 3778TIP3    H132825   3.380   4.801   4.500  2.1850  0.7433 -0.4593
 3778TIP3    H232826   3.395   4.652   4.523 -0.9602  0.5105  0.3133
 3779TIP3   OH232827   0.020   0.725  15.814  0.1311  0.0273  0.5679
 3779TIP3    H132828   0.114   0.742  15.810 -0.1906  1.2709 -3.3042
 3779TIP3    H232829   0.009   0.639  15.774 -0.3636 -0.2820  1.3506
 3780TIP3   OH232830   4.642   5.337   6.488  0.4581 -0.0928 -0.7063
 3780TIP3    H132831   4.708   5.395   6.451  1.5578  0.6068  2.2111
 3780TIP3    H232832   4.563   5.390   6.495  1.3866  1.0351  1.6995
 3781TIP3   OH232833   2.677   6.527  15.557  0.0188  0.0703  0.4205
 3781TIP3    H132834   2.760   6.483  15.544  0.6664  2.1539 -3.0020
 3781TIP3    H232835   2.699   6.605  15.608 -0.0540 -0.0047  0.5696
 3782TIP3   OH232836   1.357   0.591   6.434  0.6318  0.0936  0.5555
 3782TIP3    H132837   1.300   0.601   6.510  1.7271  0.8013  1.2927
 3782TIP3    H232838   1.377   0.680   6.406 -0.5524 -0.1625 -1.1760
 3783TIP3   OH232839   4.711   1.318   0.540  0.2851  0.1901 -0.0236
 3783TIP3    H132840   4.717   1.225   0.557 -1.4981 -0.2727 -1.7261
 3783TIP3    H232841   4.665   1.325   0.455 -1.8081  2.6261  1.2108
 3784TIP3   OH232842   6.747   4.689   2.297  0.1522  0.1376  0.2176
 3784TIP3    H132843   6.751   4.594   2.300  0.3777  0.1691  1.5153
 3784TIP3    H232844   6.666   4.711   2.345  1.3450  0.6676  2.0745
 3785TIP3   OH232845   3.336   4.237  15.019  0.0273  0.1422  0.3158
 3785TIP3    H132846   3.245   4.247  15.047 -0.3833 -0.6636 -0.6906
 3785TIP3    H232847   3.386   4.226  15.100 -0.5807  1.9775  0.9538
 3786TIP3   OH232848   6.011   6.444  12.411 -0.5441  0.7610 -0.0372
 3786TIP3    H132849   6.085   6.504  12.416 -0.1731  0.2253  0.8722
 3786TIP3    H232850   5.990   6.423  12.502 -0.2675 -0.9836 -0.3544
 3787TIP3   OH232851   6.341   6.319   0.622 -0.0293 -0.0337 -0.0160
 3787TIP3    H132852   6.405   6.274   0.567  1.6137  1.5068  0.5988
 3787TIP3    H232853   6.345   6.411   0.594  1.5469  0.9795  3.2736
 3788TIP3   OH232854   4.540   4.669   4.921 -0.2136  0.0585 -0.6210
 3788TIP3    H132855   4.574   4.734   4.983  1.7134 -0.5819 -0.9738
 3788TIP3    H232856   4.562   4.705   4.835  0.0087 -0.6067 -0.8396
 3789TIP3   OH232857   5.038   6.733   4.960 -0.2095  0.2695 -0.2711
 3789TIP3    H132858   4.995   6.670   5.018  2.1061  0.4353  1.6604
 3789TIP3    H232859   5.086   6.791   5.018  0.4028  1.7998 -2.2452
 3790TIP3   OH232860   0.068   3.412   5.656  0.3492  0.5965 -0.8166
 3790TIP3    H132861  -0.010   3.451   5.695 -0.0310  0.1660 -1.1382
 3790TIP3    H232862   0.079   3.330   5.703  0.5796  0.6341 -0.8072
 3791TIP3   OH232863   3.346   5.520   4.808  0.5425  0.1673 -0.0964
 3791TIP3    H132864   3.306   5.497   4.724  1.9449  0.0867 -0.7496
 3791TIP3    H232865   3.367   5.613   4.801  0.5968  0.1780  0.1938
 3792TIP3   OH232866   4.922   1.012   1.293 -0.0249  0.2452 -0.2906
 3792TIP3    H132867   4.830   1.037   1.284 -0.4116 -1.8054 -2.7035
 3792TIP3    H232868   4.930   0.977   1.381 -1.8197 -0.6049 -0.4619
 3793TIP3   OH232869   2.212   5.587   4.874  0.2125  0.0725  0.1822
 3793TIP3    H132870   2.272   5.520   4.906  2.6939  1.6522 -0.9745
 3793TIP3    H232871   2.228   5.592   4.780 -2.8693 -0.4969 -0.4508
 3794TIP3   OH232872   3.958   6.043  13.238  0.2809 -0.0927 -0.2413
 3794TIP3    H132873   3.988   6.073  13.152  1.9719 -0.2841  0.2641
 3794TIP3    H232874   3.942   6.123  13.287 -0.0450  0.0103 -0.5140
 3795TIP3   OH232875   5.097   2.454   2.530  0.0575 -0.3761 -0.3054
 3795TIP3    H132876   5.020   2.437   2.584  0.6579 -0.5772  0.5032
 3795TIP3    H232877   5.171   2.435   2.587  0.7105 -0.6468 -1.2256
 3796TIP3   OH232878   1.519   0.971   2.906 -0.1457 -0.5640 -0.0738
 3796TIP3    H132879   1.519   0.885   2.864 -0.6005 -1.4867  1.7821
 3796TIP3    H232880   1.548   0.954   2.995 -1.5994  0.9971  0.7257
 3797TIP3   OH232881   1.047   3.447   0.697  0.2046 -0.2721  0.1411
 3797TIP3    H132882   1.054   3.372   0.638  0.5531  0.7301 -1.1267
 3797TIP3    H232883   1.134   3.486   0.697  0.1879 -0.2185  1.2737
 3798TIP3   OH232884   5.702   4.062   5.320 -0.0955 -0.2740  0.1308
 3798TIP3    H132885   5.640   4.113   5.267  0.8362  0.8112  0.0647
 3798TIP3    H232886   5.685   4.088   5.410 -0.9918 -1.3714  0.2938
 3799TIP3   OH232887   2.555   2.298  11.563 -0.3855  0.2988 -0.1685
 3799TIP3    H132888   2.641   2.298  11.605 -0.4847  0.5292  0.0386
 3799TIP3    H232889   2.515   2.381  11.591 -0.6931  0.1690 -0.2252
 3800TIP3   OH232890   2.837   3.559  15.007 -0.6399  0.3557 -0.3232
 3800TIP3    H132891   2.784   3.492  15.050 -0.8398 -0.0347 -1.1546
 3800TIP3    H232892   2.791   3.641  15.023 -0.0375  0.3980  1.2883
 3801TIP3   OH232893   6.063   6.332   3.029  0.2439 -0.5031  0.3023
 3801TIP3    H132894   6.119   6.375   3.094 -0.2880  0.3268  0.2200
 3801TIP3    H232895   6.097   6.362   2.945  0.7518 -1.3546  0.1894
 3802TIP3   OH232896   2.798   1.385   0.953 -0.3153  0.5173  0.3435
 3802TIP3    H132897   2.787   1.419   1.042  0.0022 -0.1573  0.6408
 3802TIP3    H232898   2.730   1.429   0.902  0.7664  2.4208  0.4976
 3803TIP3   OH232899   0.809   5.780   4.313 -0.3734  0.2730 -0.0074
 3803TIP3    H132900   0.839   5.690   4.327  0.8232  0.8186  0.9773
 3803TIP3    H232901   0.724   5.770   4.270  0.3694 -1.3109 -1.1500
 3804TIP3   OH232902   2.090   0.636   4.161  0.2566 -0.4170  0.0731
 3804TIP3    H132903   2.117   0.627   4.253  3.1496 -0.7935 -0.7561
 3804TIP3    H232904   2.051   0.551   4.140 -0.8409 -0.1768  1.0671
 3805TIP3   OH232905   5.552   6.678   6.466 -0.2076 -0.2997 -0.1085
 3805TIP3    H132906   5.500   6.731   6.405 -0.7067 -1.5508 -0.7885
 3805TIP3    H232907   5.512   6.591   6.462  0.8191 -0.8152  0.7306
 3806TIP3   OH232908   2.414   2.599  16.509 -0.0080  0.1165  0.1457
 3806TIP3    H132909   2.341   2.538  16.515 -0.4358  0.5798 -0.2907
 3806TIP3    H232910   2.404   2.639  16.422  0.1142  1.0022  0.5404
 3807TIP3   OH232911   3.041   4.788  14.995  0.6922 -0.8067 -0.2447
 3807TIP3    H132912   3.016   4.714  14.940  1.3014 -0.7805 -0.5661
 3807TIP3    H232913   3.055   4.860  14.934 -1.6389  0.0855  0.2177
 3808TIP3   OH232914   5.442   4.338   1.842  0.3328 -0.0900  0.2089
 3808TIP3    H132915   5.377   4.311   1.777  1.7629 -1.3123 -0.7289
 3808TIP3    H232916   5.391   4.354   1.921 -1.4985  1.8115 -1.2746
 3809TIP3   OH232917   3.183   4.859   0.163  0.3343  0.4558  0.3399
 3809TIP3    H132918   3.277   4.857   0.180  1.0756  0.6763 -3.2863
 3809TIP3    H232919   3.168   4.946   0.127 -1.2340  0.2998  0.5895
 3810TIP3   OH232920   0.903   3.172   2.030  0.3354 -0.0306  0.5647
 3810TIP3    H132921   0.923   3.088   1.989 -0.9597 -0.7260  1.3239
 3810TIP3    H232922   0.857   3.221   1.962  0.8587 -0.0316  0.2064
 3811TIP3   OH232923   6.515   2.502   1.360  0.6252 -0.1975  0.1239
 3811TIP3    H132924   6.456   2.492   1.285 -1.7089  1.1580  1.7333
 3811TIP3    H232925   6.500   2.424   1.413  0.2526  0.1581  0.5453
 3812TIP3   OH232926   0.260   3.770   4.338 -0.3474  0.4493 -0.6299
 3812TIP3    H132927   0.183   3.811   4.379 -0.0172 -0.9667  1.4954
 3812TIP3    H232928   0.321   3.843   4.324 -0.4826  0.9826  1.4078
 3813TIP3   OH232929   4.849   3.488  12.452 -0.2509  0.1950 -0.3691
 3813TIP3    H132930   4.767   3.515  12.494 -1.8569 -1.0858 -2.5602
 3813TIP3    H232931   4.844   3.525  12.364  2.1723  1.2102 -0.1178
 3814TIP3   OH232932   1.824   1.532  15.369  0.3836  0.4234 -0.4640
 3814TIP3    H132933   1.807   1.494  15.455  0.8252 -0.4552 -0.7538
 3814TIP3    H232934   1.742   1.521  15.321  0.7324 -0.8708 -0.7937
 3815TIP3   OH232935   0.992   2.040  12.087  0.3099 -0.6929 -0.1954
 3815TIP3    H132936   1.028   1.951  12.088 -0.3833 -1.0001 -1.3914
 3815TIP3    H232937   1.062   2.094  12.051 -0.2231 -1.2092 -2.0597
 3816TIP3   OH232938   3.323   5.085   2.536 -0.1618  0.4272  0.6111
 3816TIP3    H132939   3.377   5.067   2.613 -0.0778  0.7411  0.6229
 3816TIP3    H232940   3.239   5.045   2.556 -0.1828  0.6342  0.9208
 3817TIP3   OH232941   6.018   4.296  11.010 -0.1680 -0.3172  0.5146
 3817TIP3    H132942   5.948   4.349  10.972  1.8795  1.8065 -0.4191
 3817TIP3    H232943   6.075   4.276  10.936  2.6588  1.9146  1.9808
 3818TIP3   OH232944   6.652   1.628   1.652 -0.7160 -0.4979  0.1958
 3818TIP3    H132945   6.589   1.665   1.590 -0.8913  0.2164  0.7980
 3818TIP3    H232946   6.675   1.701   1.710  1.1480 -0.5713 -0.3996
 3819TIP3   OH232947   0.650   2.089   4.717 -0.6111  0.6159  0.2707
 3819TIP3    H132948   0.680   2.173   4.680 -0.9336  0.2604 -0.8117
 3819TIP3    H232949   0.696   2.082   4.800  1.2200  0.7582 -0.7103
 3820TIP3   OH232950   5.419   3.827   2.457 -0.4976  0.1514  0.3769
 3820TIP3    H132951   5.401   3.821   2.363 -1.0582  0.2648  0.4748
 3820TIP3    H232952   5.509   3.794   2.466 -0.8481 -0.9454 -0.0479
 3821TIP3   OH232953   4.436   4.438  15.619  0.6248  0.0224  0.2457
 3821TIP3    H132954   4.345   4.429  15.592  0.5888 -2.1700  1.0056
 3821TIP3    H232955   4.451   4.532  15.622 -1.3233  0.3848 -0.8515
 3822TIP3   OH232956   4.425   2.760   5.012  0.0317  0.3111  0.7224
 3822TIP3    H132957   4.347   2.705   5.001  0.4287 -0.1599  0.2192
 3822TIP3    H232958   4.485   2.707   5.064 -0.0462  0.7387  1.2524
 3823TIP3   OH232959   6.476   4.536  15.465  0.5384  0.0386 -0.1260
 3823TIP3    H132960   6.412   4.537  15.536 -1.2080  0.2471 -1.6490
 3823TIP3    H232961   6.473   4.624  15.428 -0.2490 -0.7023 -1.8820
 3824TIP3   OH232962   3.112   2.479  15.366 -0.2403 -0.0862 -0.1451
 3824TIP3    H132963   3.125   2.409  15.303  2.1955 -0.0249  0.2610
 3824TIP3    H232964   3.182   2.542  15.348 -1.5246  1.5669  0.4278
 3825TIP3   OH232965   4.792   3.289  11.533 -0.2020  0.2104 -0.5242
 3825TIP3    H132966   4.706   3.323  11.558 -0.5882 -1.8402  1.0402
 3825TIP3    H232967   4.850   3.365  11.538 -1.6057  1.2679  0.0135
 3826TIP3   OH232968   5.364   1.741   4.120  0.2247  0.4696 -0.6294
 3826TIP3    H132969   5.413   1.720   4.199 -0.5428  2.9331  0.5629
 3826TIP3    H232970   5.350   1.657   4.077 -1.1628 -1.2290  2.9148
 3827TIP3   OH232971   5.821   1.115   0.569  0.3767  0.1778 -0.6799
 3827TIP3    H132972   5.865   1.036   0.538  0.0703  0.3675 -1.6343
 3827TIP3    H232973   5.729   1.090   0.575  0.3049  0.4051 -0.8141
 3828TIP3   OH232974   6.059   4.898  15.152  0.1354  0.5658  0.0517
 3828TIP3    H132975   6.048   4.976  15.096 -0.1836  1.3575  1.1987
 3828TIP3    H232976   6.049   4.824  15.092 -0.2651  1.4025 -0.9379
 3829TIP3   OH232977   5.671   2.121   1.774 -0.0844  0.5036  0.1912
 3829TIP3    H132978   5.697   2.050   1.833  2.0509  0.9848 -0.1228
 3829TIP3    H232979   5.590   2.156   1.812  0.8645  0.3312  2.4131
 3830TIP3   OH232980   3.317   0.802  13.654 -0.1758 -0.2062 -0.5512
 3830TIP3    H132981   3.248   0.854  13.613 -0.1735 -0.1518 -0.4866
 3830TIP3    H232982   3.299   0.808  13.748 -0.0057 -0.0796 -0.5250
 3831TIP3   OH232983   1.964   6.328   6.085 -0.2799 -0.0488 -0.2812
 3831TIP3    H132984   2.028   6.389   6.123 -3.0520  1.1447  2.6748
 3831TIP3    H232985   1.952   6.359   5.995  1.8166  0.8718 -0.2801
 3832TIP3   OH232986   3.016   1.254  12.270 -0.1112 -0.1344  0.0672
 3832TIP3    H132987   3.097   1.260  12.321  0.4174  1.9021 -0.9582
 3832TIP3    H232988   3.015   1.165  12.236  0.4097 -0.9562  2.1872
 3833TIP3   OH232989   2.452   3.943  11.163  0.9048  0.5770  0.1925
 3833TIP3    H132990   2.541   3.975  11.148  0.3783  1.7188 -0.5447
 3833TIP3    H232991   2.427   3.904  11.079  2.3441 -3.8466  1.6814
 3834TIP3   OH232992   3.645   3.825   5.271  0.0828 -0.1026 -0.4096
 3834TIP3    H132993   3.657   3.737   5.236 -1.0587 -0.2057 -0.5748
 3834TIP3    H232994   3.552   3.843   5.258 -1.9466 -2.4653  7.6381
 3835TIP3   OH232995   1.707   3.399   4.409 -0.0076  0.1136  0.3683
 3835TIP3    H132996   1.706   3.493   4.392 -0.6048  0.0023 -0.2592
 3835TIP3    H232997   1.672   3.360   4.329 -1.8650 -0.5064  1.4454
 3836TIP3   OH232998   3.456   4.299  16.203 -0.1193 -0.2666  0.8044
 3836TIP3    H132999   3.388   4.365  16.218  0.5756  0.7887 -0.5358
 3836TIP3    H233000   3.512   4.338  16.135  0.6438 -1.9955  0.4257
 3837TIP3   OH233001   3.743   4.779   1.171  0.1519  0.0701  0.3459
 3837TIP3    H133002   3.707   4.712   1.230 -1.2098 -0.0735 -0.6176
 3837TIP3    H233003   3.719   4.862   1.212 -0.0555 -0.0318  0.4340
 3838TIP3   OH233004   0.627   1.651   2.233  0.0161 -0.0749 -0.4717
 3838TIP3    H133005   0.570   1.712   2.279 -0.4210 -0.6936 -0.1825
 3838TIP3    H233006   0.651   1.586   2.299  2.2926  1.0044 -0.1852
 3839TIP3   OH233007   2.846   2.922  12.861 -0.5583 -0.1261  0.0400
 3839TIP3    H133008   2.750   2.914  12.862 -0.5368 -0.3718  0.2687
 3839TIP3    H233009   2.876   2.855  12.922 -0.2790  0.4909  0.5792
 3840TIP3   OH233010   4.510   1.565  17.283 -0.2562 -0.1495  0.0074
 3840TIP3    H133011   4.590   1.588  17.331  0.3967 -3.0326  0.4111
 3840TIP3    H233012   4.513   1.620  17.205  0.6383  1.8427  1.3974
 3841TIP3   OH233013   4.305   5.720   1.044 -0.4418 -0.6673 -0.0478
 3841TIP3    H133014   4.377   5.711   0.981  0.1695  0.0823  0.5422
 3841TIP3    H233015   4.310   5.640   1.097  1.1058  0.2096  1.1683
 3842TIP3   OH233016   0.879   4.430  15.360  0.0727  0.1108  0.9161
 3842TIP3    H133017   0.868   4.485  15.282 -0.5127 -0.2201  0.7640
 3842TIP3    H233018   0.974   4.423  15.371  0.2305 -2.3672 -1.5556
 3843TIP3   OH233019   4.045   0.416  12.372 -0.0813 -0.2772  0.0997
 3843TIP3    H133020   4.043   0.512  12.370  0.6543 -0.2603  0.0946
 3843TIP3    H233021   4.116   0.394  12.432 -2.5185 -0.8455  2.8827
 3844TIP3   OH233022   6.588   6.670   5.539  0.1020  0.3134 -0.0218
 3844TIP3    H133023   6.673   6.675   5.583 -0.3771  2.3258  0.7192
 3844TIP3    H233024   6.575   6.756   5.500 -1.9905  0.3517  0.6659
 3845TIP3   OH233025   0.083   5.231   5.502  0.3305 -0.2485  0.1689
 3845TIP3    H133026   0.101   5.315   5.460 -0.7337 -0.1976 -0.2018
 3845TIP3    H233027   0.159   5.177   5.479  0.6126  0.3356 -0.3190
 3846TIP3   OH233028   6.570   2.518   2.254 -0.0611 -0.2307  0.2620
 3846TIP3    H133029   6.618   2.521   2.337  1.1670  0.7914 -0.4675
 3846TIP3    H233030   6.614   2.451   2.203 -1.1129 -1.1954  0.5925
 3847TIP3   OH233031   2.562   4.921  12.961  0.0937  0.2276  0.5746
 3847TIP3    H133032   2.613   4.873  12.896  1.1114  1.2383  0.6052
 3847TIP3    H233033   2.504   4.977  12.910  1.0455  1.1795  0.5332
 3848TIP3   OH233034   6.165   1.867  15.335  0.3376  0.3379 -0.1346
 3848TIP3    H133035   6.260   1.857  15.338  0.4296  1.2474  0.1053
 3848TIP3    H233036   6.148   1.949  15.381 -0.5669  0.1747 -0.1642
 3849TIP3   OH233037   0.127   1.247   6.360  0.2932  0.3945  0.6393
 3849TIP3    H133038   0.148   1.311   6.428  1.0187  2.0688 -1.0917
 3849TIP3    H233039   0.211   1.219   6.325 -0.0811  0.3185 -0.2352
 3850TIP3   OH233040   4.848   5.841   5.806 -0.4764  0.3283 -0.1655
 3850TIP3    H133041   4.833   5.817   5.898  2.9084  0.5652  0.5536
 3850TIP3    H233042   4.810   5.929   5.798 -2.2638 -0.3573  0.5298
 3851TIP3   OH233043   4.905   6.736   1.902 -0.2911  0.2045  0.1347
 3851TIP3    H133044   4.909   6.689   1.985  0.3043  1.2229  0.6951
 3851TIP3    H233045   4.984   6.708   1.855 -0.9046 -0.7868 -0.3285
 3852TIP3   OH233046   0.960   6.016  12.767 -0.1187 -0.4823  0.6024
 3852TIP3    H133047   0.932   5.943  12.712  0.3049  0.5550 -1.0045
 3852TIP3    H233048   1.030   5.979  12.821  1.2234 -0.8799 -1.3461
 3853TIP3   OH233049   4.185   3.404  11.710 -0.2420  0.0580 -0.7226
 3853TIP3    H133050   4.214   3.385  11.799 -0.7084  1.6231 -0.2238
 3853TIP3    H233051   4.127   3.331  11.688  0.6692 -0.8566 -0.1289
 3854TIP3   OH233052   4.321   2.219   5.334  0.3426  0.8658  0.0128
 3854TIP3    H133053   4.249   2.239   5.275  1.4574  1.9494 -1.0090
 3854TIP3    H233054   4.335   2.125   5.326 -2.0224  0.3543  1.4751
 3855TIP3   OH233055   0.854   0.444   0.138 -0.1244 -0.4586 -0.1715
 3855TIP3    H133056   0.791   0.491   0.083 -0.6725 -0.9479  0.0261
 3855TIP3    H233057   0.809   0.363   0.162 -0.0565 -0.0765  1.3276
 3856TIP3   OH233058   6.336   0.351   1.040  0.2229  0.8040 -0.1100
 3856TIP3    H133059   6.395   0.349   0.964 -0.8455 -1.4895 -0.9150
 3856TIP3    H233060   6.377   0.293   1.104 -0.2825  0.5510 -0.0125
 3857TIP3   OH233061   6.337   2.308   4.476  0.1067 -0.2235  0.0404
 3857TIP3    H133062   6.386   2.366   4.535  0.0602 -0.4954  0.3458
 3857TIP3    H233063   6.276   2.366   4.430  1.2064  0.2389 -0.8684
 3858TIP3   OH233064   0.891   3.755  13.595  0.5661 -0.3298 -0.1598
 3858TIP3    H133065   0.915   3.800  13.676  1.4193 -0.7333 -0.1917
 3858TIP3    H233066   0.946   3.677  13.593 -1.1866 -1.6275  0.1129
 3859TIP3   OH233067   5.980   2.405  12.975 -0.0430  0.0152  0.2917
 3859TIP3    H133068   6.016   2.323  12.942  2.1057  0.8831  0.3798
 3859TIP3    H233069   6.049   2.469  12.959 -1.7006  1.8067  0.2076
 3860TIP3   OH233070   2.045   4.677   3.565  0.0688 -0.6701 -0.9909
 3860TIP3    H133071   2.139   4.659   3.575  0.3355  1.5544  1.0944
 3860TIP3    H233072   2.035   4.704   3.474  1.6910  0.3274 -0.8939
 3861TIP3   OH233073   4.842   4.472  11.876  0.6061 -0.1440 -0.2647
 3861TIP3    H133074   4.838   4.557  11.832  1.3303  0.9770  1.7671
 3861TIP3    H233075   4.935   4.457  11.891  0.5414 -1.6873 -1.2963
 3862TIP3   OH233076   5.576   6.095  12.786  0.0333 -0.0337  0.1180
 3862TIP3    H133077   5.636   6.152  12.738  0.3258  0.8938  1.5554
 3862TIP3    H233078   5.537   6.039  12.719  2.8278 -0.9612 -0.7866
 3863TIP3   OH233079   4.804   4.579   2.182  0.0929 -0.1041 -0.1954
 3863TIP3    H133080   4.871   4.553   2.245 -0.9635 -1.6509  0.3274
 3863TIP3    H233081   4.721   4.557   2.224 -0.6259 -1.5038 -2.2236
 3864TIP3   OH233082   5.553   0.798   5.603 -0.1109 -0.1616 -0.2246
 3864TIP3    H133083   5.518   0.818   5.689 -1.4690  1.2527 -1.0870
 3864TIP3    H233084   5.476   0.776   5.550  0.4939  0.9522 -1.6019
 3865TIP3   OH233085   1.164   0.097  15.683  0.4451  0.2197  0.1610
 3865TIP3    H133086   1.122   0.014  15.703 -1.7912  1.5058  0.9519
 3865TIP3    H233087   1.092   0.157  15.667  1.9885  2.3609  1.0015
 3866TIP3   OH233088   6.386   3.886  13.510 -0.3702 -0.3926 -0.1090
 3866TIP3    H133089   6.318   3.946  13.542  0.4146  0.9652 -0.9464
 3866TIP3    H233090   6.429   3.853  13.589 -2.0342 -1.3143  0.4339
 3867TIP3   OH233091   2.584   6.089  12.604 -0.1904  0.2065  0.1549
 3867TIP3    H133092   2.590   6.125  12.515  2.6241  0.0176  0.2277
 3867TIP3    H233093   2.655   6.131  12.652 -0.0677 -1.6152  1.6313
 3868TIP3   OH233094   5.597   6.257   1.164 -0.2226  0.1707  0.3711
 3868TIP3    H133095   5.640   6.312   1.229 -1.8912  0.2131  1.4714
 3868TIP3    H233096   5.624   6.168   1.186 -0.3464  0.2348  0.7917
 3869TIP3   OH233097   3.149   5.016  15.891  0.3845  0.5997  1.0568
 3869TIP3    H133098   3.148   5.107  15.861 -1.5095  0.2020 -0.2110
 3869TIP3    H233099   3.174   4.966  15.813  2.2622  0.0951  1.9734
 3870TIP3   OH233100   1.209   3.653   5.237 -0.4824  0.1324 -0.1453
 3870TIP3    H133101   1.139   3.714   5.259 -0.8640 -0.3065 -0.1322
 3870TIP3    H233102   1.280   3.708   5.204 -1.4684  0.4376 -1.8057
 3871TIP3   OH233103   1.013   0.806   0.014  0.3550 -0.0204 -0.0852
 3871TIP3    H133104   0.938   0.866   0.013  0.5049  0.1602 -0.9969
 3871TIP3    H233105   1.036   0.797   0.107 -0.5938  0.1756  0.1716
 3872TIP3   OH233106   6.184   6.172   4.988 -0.1202  0.2071  0.5301
 3872TIP3    H133107   6.225   6.090   5.015  0.9700  0.4052 -0.4819
 3872TIP3    H233108   6.129   6.197   5.062  0.4576 -0.8320  1.3190
 3873TIP3   OH233109   5.295   4.636  11.051  0.0729  0.3777 -0.1062
 3873TIP3    H133110   5.317   4.728  11.065  2.0863 -0.0445 -0.2427
 3873TIP3    H233111   5.202   4.630  11.071  0.2663  2.1208  1.4569
 3874TIP3   OH233112   2.344   5.288  17.017 -0.1999  0.3378 -0.1378
 3874TIP3    H133113   2.432   5.253  17.031  0.2095  1.1104 -0.7861
 3874TIP3    H233114   2.306   5.232  16.949 -0.6719 -0.7728  1.0065
 3875TIP3   OH233115   2.035   5.279   0.251  0.1418  0.1262  0.3489
 3875TIP3    H133116   1.970   5.253   0.317  0.1521 -1.1071 -0.1104
 3875TIP3    H233117   2.119   5.276   0.297  0.2979 -1.9110  0.0046
 3876TIP3   OH233118   6.421   6.345  14.687 -0.4656  0.4702  0.0582
 3876TIP3    H133119   6.360   6.304  14.749 -0.7234  0.8690  0.0674
 3876TIP3    H233120   6.496   6.285  14.684 -0.8203  0.0182  0.1134
 3877TIP3   OH233121   2.666   2.930   1.675 -0.0878  0.4396 -0.3413
 3877TIP3    H133122   2.697   2.965   1.759  0.2457  0.3893 -0.4404
 3877TIP3    H233123   2.742   2.884   1.639  0.3871  2.1300 -1.5755
 3878TIP3   OH233124   3.885   2.156  13.611  0.0921 -0.0113  0.2361
 3878TIP3    H133125   3.936   2.136  13.690  2.1052 -0.2488 -1.0647
 3878TIP3    H233126   3.807   2.102  13.617 -0.0705  0.4256  2.3429
 3879TIP3   OH233127   0.258   4.481  17.067 -0.2427  0.2088 -0.0374
 3879TIP3    H133128   0.246   4.395  17.026  1.6818 -0.1500  0.0942
 3879TIP3    H233129   0.286   4.461  17.156 -0.1737  0.9861  0.1167
 3880TIP3   OH233130   3.183   2.010  15.023 -0.8207  0.2092 -0.3647
 3880TIP3    H133131   3.110   1.949  15.014  0.6589 -1.4000 -1.9239
 3880TIP3    H233132   3.196   2.045  14.934  2.1384 -1.7732 -0.7992
 3881TIP3   OH233133   2.485   3.706   6.446  0.3030  0.4129  0.3443
 3881TIP3    H133134   2.452   3.782   6.399  1.4485  0.8054  0.1605
 3881TIP3    H233135   2.510   3.644   6.377 -0.1401  0.0769  0.4835
 3882TIP3   OH233136   0.701   1.245   0.448  0.3515  0.2914  0.1525
 3882TIP3    H133137   0.664   1.255   0.360  1.2033 -1.8620 -0.4920
 3882TIP3    H233138   0.626   1.255   0.506 -0.1884  1.9525 -0.7823
 3883TIP3   OH233139   1.620   0.895  12.006  0.4762  0.6639 -0.2561
 3883TIP3    H133140   1.544   0.872  11.953  2.3663 -0.8045 -2.4412
 3883TIP3    H233141   1.603   0.985  12.035 -2.7968 -0.1927  0.6775
 3884TIP3   OH233142   1.838   3.919   4.381 -0.6559  0.0668  0.1640
 3884TIP3    H133143   1.864   3.927   4.289 -0.5673 -0.2987  0.1561
 3884TIP3    H233144   1.919   3.930   4.430 -0.9355  1.7824  0.2699
 3885TIP3   OH233145   5.274   4.905   3.017 -0.3342 -0.4719  0.1783
 3885TIP3    H133146   5.196   4.950   2.984 -0.3369  1.4973  2.7984
 3885TIP3    H233147   5.339   4.916   2.947 -1.4848  0.4380 -0.7660
 3886TIP3   OH233148   5.813   2.618  13.047  0.2257  0.0154  0.5200
 3886TIP3    H133149   5.745   2.658  12.993  2.8511  3.3019 -0.5405
 3886TIP3    H233150   5.838   2.539  12.999 -1.3506 -0.1015 -0.1419
 3887TIP3   OH233151   6.287   5.514  15.768 -0.1048  0.2751 -0.6575
 3887TIP3    H133152   6.290   5.421  15.790 -1.8108  0.4955  0.6578
 3887TIP3    H233153   6.340   5.556  15.836 -0.8950  0.4245 -0.1179
 3888TIP3   OH233154   1.828   2.802   4.724 -0.2787  0.2273  0.3662
 3888TIP3    H133155   1.800   2.715   4.696 -0.3144  0.3133  0.1253
 3888TIP3    H233156   1.909   2.818   4.675  0.8958 -0.5542  2.0429
 3889TIP3   OH233157   5.605   0.531   3.387 -0.3111  0.7935 -0.3264
 3889TIP3    H133158   5.659   0.569   3.318  0.8547 -1.4582 -0.7107
 3889TIP3    H233159   5.529   0.496   3.342  1.1492 -1.9972 -0.7499
 3890TIP3   OH233160   6.271   3.660   3.588 -0.1260 -0.2819 -0.1007
 3890TIP3    H133161   6.180   3.633   3.605 -0.6017  0.7968 -0.8230
 3890TIP3    H233162   6.271   3.754   3.604  0.5732 -0.0749 -1.2444
 3891TIP3   OH233163   3.473   4.240   5.219  0.3186  0.2344  0.1271
 3891TIP3    H133164   3.531   4.315   5.230  0.2394  0.1267  1.2585
 3891TIP3    H233165   3.397   4.275   5.172  1.1000  0.4602 -1.0096
 3892TIP3   OH233166   1.600   6.348  13.984 -0.2152 -0.2670  0.0142
 3892TIP3    H133167   1.543   6.296  14.040  1.7803 -0.6984  1.7333
 3892TIP3    H233168   1.677   6.365  14.039  1.0138  0.8218 -2.0092
 3893TIP3   OH233169   5.374   3.890  11.707 -0.3939  0.1782 -0.2119
 3893TIP3    H133170   5.294   3.916  11.753 -0.3571 -0.8131  0.4345
 3893TIP3    H233171   5.437   3.871  11.776  0.0252 -0.1980 -0.6849
 3894TIP3   OH233172   3.787   3.424  14.466 -0.0698 -0.2795 -0.4473
 3894TIP3    H133173   3.720   3.483  14.432 -1.3383 -0.8788  0.9609
 3894TIP3    H233174   3.742   3.340  14.476  0.6560 -0.4849  1.2713
 3895TIP3   OH233175   5.575   4.919  10.698 -0.4370 -0.7102  0.1473
 3895TIP3    H133176   5.620   5.003  10.700 -0.3514 -0.7613  0.2933
 3895TIP3    H233177   5.505   4.931  10.634  1.2093 -1.3473 -1.8228
 3896TIP3   OH233178   3.638   1.797   6.207  0.4760  0.6917  0.2496
 3896TIP3    H133179   3.597   1.748   6.136 -0.3105  2.3350 -0.4453
 3896TIP3    H233180   3.574   1.794   6.278  0.5052  0.5464  0.2691
 3897TIP3   OH233181   2.878   4.999  14.457  0.2486 -0.1166  0.3953
 3897TIP3    H133182   2.921   4.934  14.512 -0.4357 -0.5010  0.4767
 3897TIP3    H233183   2.912   5.083  14.488  1.3612 -0.4486  0.0841
 3898TIP3   OH233184   4.750   4.012  14.831 -0.0150  0.1949  0.0299
 3898TIP3    H133185   4.823   4.074  14.826 -1.2870  1.7015 -0.4284
 3898TIP3    H233186   4.774   3.942  14.771  1.5139  0.1688  0.6565
 3899TIP3   OH233187   2.912   3.473   0.268 -0.8328 -0.2813  0.2465
 3899TIP3    H133188   3.001   3.508   0.270 -0.5375 -0.9607 -1.0525
 3899TIP3    H233189   2.920   3.385   0.304 -1.0115 -0.2747  0.3025
 3900TIP3   OH233190   6.164   1.411   6.307 -0.3047 -0.4752 -0.1407
 3900TIP3    H133191   6.070   1.427   6.301 -0.0249  0.8321 -1.0920
 3900TIP3    H233192   6.172   1.351   6.381 -1.8604 -0.3811  0.1358
 3901TIP3   OH233193   3.389   6.025   1.414  0.0326 -0.2684 -0.1286
 3901TIP3    H133194   3.468   6.050   1.365 -0.3877 -0.4021 -0.8842
 3901TIP3    H233195   3.393   5.930   1.419 -1.9956 -0.6139 -3.5087
 3902TIP3   OH233196   5.685   2.323   2.041 -0.0863  0.3150  0.5553
 3902TIP3    H133197   5.628   2.382   2.090  1.4563  0.9562  1.6465
 3902TIP3    H233198   5.730   2.380   1.979  0.6301  0.1209  0.8904
 3903TIP3   OH233199   1.715   2.637  12.291 -0.3317 -0.4229  0.2388
 3903TIP3    H133200   1.796   2.642  12.342  0.3206 -1.1272 -0.6874
 3903TIP3    H233201   1.738   2.679  12.208 -1.9192  2.3774  1.1714
 3904TIP3   OH233202   1.960   5.696  11.815  0.5768 -0.3664  0.3674
 3904TIP3    H133203   1.966   5.749  11.735  1.2587 -1.4255 -0.2915
 3904TIP3    H233204   1.945   5.760  11.885 -2.0093  0.4216 -0.8325
 3905TIP3   OH233205   1.213   0.639   0.783  0.2465  0.0542  0.0133
 3905TIP3    H133206   1.187   0.552   0.815 -0.9027  0.3072 -0.2180
 3905TIP3    H233207   1.245   0.684   0.861  0.1545 -0.3273  0.2725
 3906TIP3   OH233208   3.808   6.617  15.363 -0.1600  0.2933 -0.0534
 3906TIP3    H133209   3.852   6.672  15.299 -0.5380  0.3206 -0.2916
 3906TIP3    H233210   3.859   6.536  15.364  1.4119  1.2827  1.5602
 3907TIP3   OH233211   4.015   3.286  13.281  0.4700 -0.0939 -0.8441
 3907TIP3    H133212   4.092   3.234  13.305  0.7516 -0.1363 -1.8229
 3907TIP3    H233213   3.964   3.228  13.225  0.2377  0.2997 -1.0394
 3908TIP3   OH233214   6.552   6.323   2.685 -0.0376  0.7714  0.1202
 3908TIP3    H133215   6.526   6.277   2.765  0.3999  1.8011  0.8676
 3908TIP3    H233216   6.643   6.349   2.701 -0.1576  1.5579 -0.4463
 3909TIP3   OH233217   6.810   3.298   6.226 -0.1226  0.0996  0.2496
 3909TIP3    H133218   6.887   3.295   6.283  1.1357 -0.2781 -1.4358
 3909TIP3    H233219   6.840   3.346   6.149 -1.5249 -0.2337 -0.5095
 3910TIP3   OH233220   5.484   3.910  14.261 -0.2043  0.0916 -0.3952
 3910TIP3    H133221   5.403   3.926  14.212 -0.9943 -0.5288  0.6984
 3910TIP3    H233222   5.455   3.871  14.343  1.2064 -0.0454  0.0433
 3911TIP3   OH233223   2.384   2.648   5.416  0.6242  0.3021 -0.1087
 3911TIP3    H133224   2.405   2.732   5.458 -0.8638  0.2013  0.8899
 3911TIP3    H233225   2.298   2.663   5.377  0.1207 -0.9264  0.5269
 3912TIP3   OH233226   1.056   2.794  15.589  0.1581  0.4135 -0.2578
 3912TIP3    H133227   1.005   2.817  15.667  1.3183  0.7034  0.4341
 3912TIP3    H233228   1.126   2.738  15.623  0.5208  0.3398 -1.1299
 3913TIP3   OH233229   0.159   0.881  14.637 -0.6923 -0.2282 -0.0733
 3913TIP3    H133230   0.140   0.975  14.643 -2.2246 -0.5948  1.1021
 3913TIP3    H233231   0.142   0.848  14.725  0.2811 -1.5381 -0.3709
 3914TIP3   OH233232   1.000   5.404   2.717 -0.1147  0.4723  0.2764
 3914TIP3    H133233   0.976   5.494   2.739  1.3387  1.4737 -2.0112
 3914TIP3    H233234   1.092   5.397   2.742  0.2133  0.1374 -0.9943
 3915TIP3   OH233235   0.564   4.428  16.936 -0.0560 -0.3923  0.2183
 3915TIP3    H133236   0.620   4.461  16.866 -0.5582 -0.1246 -0.0570
 3915TIP3    H233237   0.510   4.503  16.961  0.6528 -0.2766  1.4212
 3916TIP3   OH233238   2.334   6.485  15.821 -0.1283  0.6451  0.2539
 3916TIP3    H133239   2.365   6.545  15.889 -0.8357 -0.4149  1.5340
 3916TIP3    H233240   2.370   6.400  15.846  0.4448  0.4309 -1.2624
 3917TIP3   OH233241   3.746   6.047   1.465 -0.6051 -0.3582 -0.1455
 3917TIP3    H133242   3.835   6.024   1.439 -0.9227 -1.2480 -0.4669
 3917TIP3    H233243   3.690   5.989   1.414 -1.4190  0.7974 -0.5979
 3918TIP3   OH233244   0.017   1.305   1.672 -0.3084 -0.6073 -0.1333
 3918TIP3    H133245   0.031   1.393   1.707  0.2032 -0.6297 -0.2791
 3918TIP3    H233246   0.094   1.256   1.699 -0.4938 -0.9575 -0.2346
 3919TIP3   OH233247   1.182   2.367   0.660  0.0658 -0.0919  0.4282
 3919TIP3    H133248   1.106   2.391   0.606 -0.3242  1.1023  1.4698
 3919TIP3    H233249   1.172   2.420   0.739  1.6827 -0.3651  0.8236
 3920TIP3   OH233250   6.415   6.497   3.531 -0.0119  0.1744  0.0101
 3920TIP3    H133251   6.482   6.518   3.596  0.6537  0.0307 -0.6247
 3920TIP3    H233252   6.382   6.582   3.500  0.6312  0.2555 -0.4530
 3921TIP3   OH233253   3.370   4.058  10.909  0.0467 -0.7629 -0.3238
 3921TIP3    H133254   3.436   4.125  10.891 -1.0464  0.4051 -0.0619
 3921TIP3    H233255   3.411   3.976  10.884  2.0338 -0.1862  0.9361
 3922TIP3   OH233256   5.008   2.828   2.763 -0.6641  0.0342 -0.1686
 3922TIP3    H133257   5.053   2.753   2.802  0.8692 -0.0497 -2.0046
 3922TIP3    H233258   5.073   2.866   2.704 -1.9141  1.9421 -0.3533
 3923TIP3   OH233259   4.230   6.400  11.897  0.2446 -0.7630 -0.2360
 3923TIP3    H133260   4.274   6.322  11.931 -0.3819 -0.5573  1.0753
 3923TIP3    H233261   4.285   6.472  11.926  0.1654 -0.6397 -0.3960
 3924TIP3   OH233262   3.287   6.281   2.018 -0.5264  0.2760  0.1564
 3924TIP3    H133263   3.346   6.212   2.051 -1.3684 -0.5065  0.0364
 3924TIP3    H233264   3.307   6.286   1.925 -0.7414 -0.0871  0.0884
 3925TIP3   OH233265   0.502   1.794   5.423  0.1192 -0.2219  0.3821
 3925TIP3    H133266   0.481   1.833   5.508  1.2600 -0.2091  0.6590
 3925TIP3    H233267   0.507   1.869   5.363 -0.4071 -0.2060  0.3530
 3926TIP3   OH233268   2.153   4.678   0.197  0.2512 -0.3110  0.1691
 3926TIP3    H133269   2.231   4.732   0.201  0.6331 -0.8676  0.2824
 3926TIP3    H233270   2.119   4.692   0.109  0.1808  0.3421  0.2996
 3927TIP3   OH233271   0.408   3.900   4.145  0.3500  0.3782 -0.3315
 3927TIP3    H133272   0.454   3.945   4.074  1.2740 -1.0509 -0.6536
 3927TIP3    H233273   0.398   3.810   4.114  0.1123 -0.0800  1.0517
 3928TIP3   OH233274   5.551   1.405   3.343 -0.6082  0.3748 -0.2736
 3928TIP3    H133275   5.609   1.360   3.281  0.3681  1.7525 -0.3966
 3928TIP3    H233276   5.488   1.451   3.287 -1.9304 -1.2212 -0.1370
 3929TIP3   OH233277   6.668   3.488  11.866  0.2742 -0.4350 -0.4652
 3929TIP3    H133278   6.624   3.460  11.785  0.2471 -1.5843 -0.0619
 3929TIP3    H233279   6.752   3.522  11.836 -1.5121  3.4547 -1.4420
 3930TIP3   OH233280   2.681   0.175  17.116 -0.3295 -0.1272  0.0119
 3930TIP3    H133281   2.607   0.143  17.168  0.7393 -4.0239 -0.7222
 3930TIP3    H233282   2.675   0.126  17.034  0.1869  3.2154 -2.1156
 3931TIP3   OH233283   5.928   5.593  12.466 -0.1640 -0.4793 -0.3087
 3931TIP3    H133284   5.973   5.577  12.382  0.1302 -1.4343  0.0180
 3931TIP3    H233285   5.999   5.608  12.528 -0.4457  3.6179 -0.8425
 3932TIP3   OH233286   0.778   0.658   1.120  0.2392  0.7193 -0.1185
 3932TIP3    H133287   0.786   0.630   1.211  0.2520 -1.0602 -0.6445
 3932TIP3    H233288   0.849   0.722   1.109  1.4525 -0.4550  0.6196
 3933TIP3   OH233289   2.631   3.195   2.116  0.1778 -0.4568  0.6829
 3933TIP3    H133290   2.571   3.171   2.188 -0.5293  0.8219  0.5398
 3933TIP3    H233291   2.589   3.271   2.075  2.0604  0.6387  0.7656
 3934TIP3   OH233292   1.758   1.715   4.109 -0.5368  0.2386  0.1486
 3934TIP3    H133293   1.720   1.719   4.022  1.1602 -2.1059 -0.7785
 3934TIP3    H233294   1.853   1.718   4.094 -0.1732 -1.7725  1.7506
 3935TIP3   OH233295   1.161   3.965   5.663  0.5200 -0.1733  0.1482
 3935TIP3    H133296   1.157   3.915   5.581 -1.5308 -0.5403  0.4352
 3935TIP3    H233297   1.120   4.049   5.642  0.0549 -0.2394  0.7666
 3936TIP3   OH233298   5.595   1.794   0.954  0.5818  0.4082  0.2734
 3936TIP3    H133299   5.515   1.755   0.989  0.2569  1.7352  1.0209
 3936TIP3    H233300   5.616   1.741   0.877 -0.6670 -0.3185  0.4262
 3937TIP3   OH233301   0.752   2.190   1.862 -0.0592  0.3320  0.1339
 3937TIP3    H133302   0.837   2.207   1.902  0.0076  0.7708 -0.1934
 3937TIP3    H233303   0.703   2.271   1.872  0.3047  0.7852 -1.5376
 3938TIP3   OH233304   4.582   1.967  12.533  0.0573  0.0688  0.6435
 3938TIP3    H133305   4.628   2.037  12.580 -0.2369 -0.3638  1.5884
 3938TIP3    H233306   4.549   1.910  12.602 -2.1111  0.5000 -0.0265
 3939TIP3   OH233307   4.026   2.883   0.554 -0.5458  0.6820 -0.1375
 3939TIP3    H133308   4.095   2.889   0.621 -0.8109 -0.0349  0.2052
 3939TIP3    H233309   3.945   2.885   0.604 -0.7342 -0.8407 -0.3554
 3940TIP3   OH233310   3.723   5.900  13.270 -0.2795 -0.2432  0.1173
 3940TIP3    H133311   3.709   5.938  13.356 -0.9505 -0.0838 -0.0556
 3940TIP3    H233312   3.804   5.940  13.238 -0.4525  0.2967  0.3487
 3941TIP3   OH233313   3.189   4.657   6.082 -0.4889 -0.2069  0.3556
 3941TIP3    H133314   3.150   4.613   6.007 -0.2110 -0.9246  0.6166
 3941TIP3    H233315   3.237   4.587   6.128  0.7810  0.5635  0.2425
 3942TIP3   OH233316   3.646   5.028  14.110 -0.2822 -0.0085 -0.2802
 3942TIP3    H133317   3.561   5.072  14.113 -1.7430 -2.7998  0.8591
 3942TIP3    H233318   3.687   5.049  14.194 -0.2364  0.5631 -0.4417
 3943TIP3   OH233319   5.189   4.206  13.604  0.3199  0.1845  0.3482
 3943TIP3    H133320   5.172   4.180  13.514 -0.5424 -0.2860  0.6452
 3943TIP3    H233321   5.139   4.287  13.616  2.2939  1.5625 -0.3024
 3944TIP3   OH233322   3.353   4.480  11.859  0.3912 -0.1977  0.4535
 3944TIP3    H133323   3.345   4.528  11.776 -2.1195  1.0540  1.3398
 3944TIP3    H233324   3.383   4.393  11.834  1.7006  0.7922 -1.5597
 3945TIP3   OH233325   2.087   5.552   0.542  0.4355 -0.0114  0.5475
 3945TIP3    H133326   2.114   5.502   0.619  0.3393  0.5594  0.9478
 3945TIP3    H233327   1.999   5.520   0.523 -0.0447  0.7706  1.4459
 3946TIP3   OH233328   1.725   5.926  11.577  0.1727  0.6374  0.2111
 3946TIP3    H133329   1.813   5.905  11.544  0.4988 -2.3079  2.7209
 3946TIP3    H233330   1.741   5.966  11.663 -0.9679 -0.8761  1.1359
 3947TIP3   OH233331   3.295   2.766  14.823  0.2182  0.2709 -0.3534
 3947TIP3    H133332   3.294   2.681  14.779 -1.1468  0.3579 -0.5129
 3947TIP3    H233333   3.246   2.824  14.765  0.0980  0.8689  0.3398
 3948TIP3   OH233334   3.024   6.298   1.416 -0.0561 -0.3656 -0.6489
 3948TIP3    H133335   2.966   6.328   1.486  0.4046 -0.2387 -0.3196
 3948TIP3    H233336   3.017   6.365   1.349 -1.4920 -1.1231 -1.2861
 3949TIP3   OH233337   6.722   2.795  15.892  0.1063 -0.4984 -0.0336
 3949TIP3    H133338   6.708   2.765  15.802  1.3014  1.1904 -0.7973
 3949TIP3    H233339   6.643   2.767  15.939 -0.6321 -1.1786 -1.6453
 3950TIP3   OH233340   2.656   3.055  15.374  0.2155 -0.4505 -0.2436
 3950TIP3    H133341   2.685   3.128  15.429  0.2991 -0.0363 -0.8382
 3950TIP3    H233342   2.567   3.037  15.404  0.0286  0.1915 -0.3969
 3951TIP3   OH233343   0.468   2.271   2.797 -0.8337 -0.2895 -0.2104
 3951TIP3    H133344   0.471   2.359   2.835 -0.9670 -0.1863 -0.4397
 3951TIP3    H233345   0.387   2.234   2.832  0.0357 -0.9111  1.1850
 3952TIP3   OH233346   0.923   0.246  16.323  0.1677  0.8601 -0.1274
 3952TIP3    H133347   0.982   0.287  16.386 -0.6469  0.3110  1.0403
 3952TIP3    H233348   0.859   0.199  16.378  0.0705 -0.5234 -1.3819
 3953TIP3   OH233349   0.766   1.151  14.767  0.5944 -0.4412 -0.3591
 3953TIP3    H133350   0.858   1.127  14.783  1.3731  2.4106 -0.3585
 3953TIP3    H233351   0.749   1.120  14.678  2.2472  0.8705 -1.1739
 3954TIP3   OH233352   3.503   6.723  11.974 -0.0428  0.7400 -0.2982
 3954TIP3    H133353   3.494   6.814  11.947  0.7351  0.6531 -0.8557
 3954TIP3    H233354   3.597   6.710  11.985 -0.1670  0.0762  0.0401
 3955TIP3   OH233355   4.764   0.066   5.246 -0.2706 -0.4540  0.0692
 3955TIP3    H133356   4.675   0.037   5.223 -1.1144  0.0478  2.5052
 3955TIP3    H233357   4.775   0.148   5.200 -1.2029 -0.3823 -0.0471
 3956TIP3   OH233358   4.539   2.293  17.013 -0.8085 -0.3225 -0.5846
 3956TIP3    H133359   4.615   2.267  16.962 -0.3401 -0.8203  0.3408
 3956TIP3    H233360   4.476   2.326  16.949 -0.1521 -0.7270 -1.4385
 3957TIP3   OH233361   0.061   1.836  13.463 -0.1020  0.4343  0.6273
 3957TIP3    H133362   0.136   1.894  13.473 -0.7902  1.7647 -1.7233
 3957TIP3    H233363   0.099   1.751  13.442  0.7654  0.8472  0.5360
 3958TIP3   OH233364   2.026   3.121  15.270  0.2273 -0.6062  0.3715
 3958TIP3    H133365   1.989   3.034  15.258 -1.7374  0.4319 -1.5574
 3958TIP3    H233366   1.973   3.161  15.339 -1.2436  0.3056 -1.2548
 3959TIP3   OH233367   0.328   3.819   5.923  0.5951  0.1365  0.2004
 3959TIP3    H133368   0.326   3.745   5.983  0.0749  0.0873  0.1262
 3959TIP3    H233369   0.236   3.843   5.911  0.8426  1.6664  1.2911
 3960TIP3   OH233370   3.069   5.034  11.718 -0.2063 -0.1979  0.1754
 3960TIP3    H133371   3.137   5.009  11.656  0.6570 -0.1688  1.1099
 3960TIP3    H233372   3.110   5.099  11.775 -0.3596 -1.7218  2.0710
 3961TIP3   OH233373   5.026   3.465   2.600  0.0047  0.0926  0.4230
 3961TIP3    H133374   5.086   3.435   2.532  1.1769 -0.1954  1.5753
 3961TIP3    H233375   5.047   3.557   2.612  0.4678 -0.0968  1.0793
 3962TIP3   OH233376   6.317   6.668  11.538  0.3916 -0.0252  0.5570
 3962TIP3    H133377   6.226   6.657  11.565  0.4450 -0.7887  0.4292
 3962TIP3    H233378   6.349   6.579  11.524  1.0384  0.2606  0.1984
 3963TIP3   OH233379   0.655   0.895   0.315  0.3399 -0.4323  0.3930
 3963TIP3    H133380   0.627   0.931   0.399  1.0418 -0.4383  0.6330
 3963TIP3    H233381   0.616   0.808   0.311 -1.3024  0.3009 -0.1508
 3964TIP3   OH233382   3.016   6.585  13.927  0.2478  0.7516 -0.0433
 3964TIP3    H133383   3.092   6.552  13.880  0.6381 -0.2030  1.2278
 3964TIP3    H233384   2.950   6.515  13.919  0.6141  0.2014  1.5165
 3965TIP3   OH233385   2.077   1.328  16.715 -0.2862  0.0304 -0.2534
 3965TIP3    H133386   2.022   1.263  16.671 -0.6974  0.2256 -0.0308
 3965TIP3    H233387   2.093   1.395  16.648  1.8593 -1.3024 -1.1323
 3966TIP3   OH233388   1.937   3.514  17.029 -0.4200  0.0388 -0.0727
 3966TIP3    H133389   1.905   3.604  17.040  0.6932  0.4947 -0.5820
 3966TIP3    H233390   1.864   3.460  17.060 -1.3809  1.0915 -0.4290
 3967TIP3   OH233391   1.319   0.774  15.788  0.3820 -0.4357  0.0002
 3967TIP3    H133392   1.376   0.848  15.768 -1.6606  1.4841  1.1041
 3967TIP3    H233393   1.257   0.770  15.714  1.4405 -2.0630 -0.8410
 3968TIP3   OH233394   1.029   2.631   3.961 -0.2841 -0.2711  0.2989
 3968TIP3    H133395   1.051   2.546   3.922 -0.7950 -0.1557 -0.2580
 3968TIP3    H233396   1.101   2.650   4.021  0.0802 -0.8653  0.0521
 3969TIP3   OH233397   0.016   0.480  15.672  0.5633  1.4342  0.4617
 3969TIP3    H133398   0.024   0.473  15.577  0.7926 -0.6014  0.6110
 3969TIP3    H233399   0.056   0.400  15.706  0.3950  2.0872  2.2731
 3970TIP3   OH233400   2.723   3.058  14.503  0.3777  0.3251 -0.1870
 3970TIP3    H133401   2.802   3.005  14.497  0.8253  1.0306 -0.6881
 3970TIP3    H233402   2.663   3.020  14.440  1.3287  1.4473 -1.8064
 3971TIP3   OH233403   3.659   2.167  15.359 -0.3610 -0.3422 -0.2300
 3971TIP3    H133404   3.591   2.233  15.368  0.6731  0.6060  0.8355
 3971TIP3    H233405   3.647   2.109  15.435  0.3892  0.1888  0.3033
 3972TIP3   OH233406   6.638   4.986   1.419  0.1137 -0.6862 -0.4670
 3972TIP3    H133407   6.705   5.049   1.393 -0.5827 -0.6376 -2.2211
 3972TIP3    H233408   6.635   4.923   1.348  0.3130 -2.3236  0.9543
 3973TIP3   OH233409   4.658   4.937  13.544  0.2645  0.6293 -0.1096
 3973TIP3    H133410   4.648   4.858  13.491 -1.5345  0.4093  0.5384
 3973TIP3    H233411   4.592   4.929  13.613  0.8076  2.1715  0.6180
 3974TIP3   OH233412   1.926   4.649   1.813  0.3868 -0.1461 -0.7972
 3974TIP3    H133413   2.020   4.668   1.814  0.5348 -0.8761  0.2799
 3974TIP3    H233414   1.920   4.557   1.789 -0.0190 -0.2179 -0.4351
 3975TIP3   OH233415   6.202   5.480  10.457  0.1255  0.0635 -0.1705
 3975TIP3    H133416   6.112   5.463  10.486 -0.3119  1.4864 -0.6625
 3975TIP3    H233417   6.240   5.531  10.529 -0.4299  2.1111 -1.2848
 3976TIP3   OH233418   1.371   2.021   5.788  0.4958 -0.1924  0.0079
 3976TIP3    H133419   1.461   2.015   5.819  0.8982  0.4838 -1.0264
 3976TIP3    H233420   1.322   1.963   5.847  1.5869 -0.5165  0.6108
 3977TIP3   OH233421   5.214   2.435   3.171 -0.0633  0.3182 -0.7258
 3977TIP3    H133422   5.296   2.419   3.219 -0.8608  1.0590  0.9182
 3977TIP3    H233423   5.213   2.530   3.157 -0.4473  0.2563 -1.1259
 3978TIP3   OH233424   2.639   6.117  14.319  0.4986 -0.1181 -0.4182
 3978TIP3    H133425   2.619   6.202  14.280 -0.1891  0.4486  1.1494
 3978TIP3    H233426   2.559   6.066  14.306  0.4565 -0.1018 -0.2251
 3979TIP3   OH233427   0.526   3.995  10.585 -0.8111  0.2741  0.5413
 3979TIP3    H133428   0.619   4.014  10.598 -0.6561  0.3932 -0.6584
 3979TIP3    H233429   0.482   4.078  10.602 -0.5088  0.7214 -0.8018
 3980TIP3   OH233430   1.181   5.194   0.368  0.1144  0.0185  0.1219
 3980TIP3    H133431   1.093   5.162   0.348 -0.0488  0.8994 -0.5908
 3980TIP3    H233432   1.210   5.237   0.288  0.9194  0.3479  0.5808
 3981TIP3   OH233433   5.502   0.574   0.910 -0.9262 -0.0771  0.4772
 3981TIP3    H133434   5.536   0.662   0.927 -0.0770  0.0269 -1.5943
 3981TIP3    H233435   5.477   0.541   0.996 -0.4088  1.8481  1.3932
 3982TIP3   OH233436   5.043   6.740   5.439  0.1691 -0.1350 -0.3773
 3982TIP3    H133437   4.971   6.783   5.485  0.5352 -1.9664  2.0007
 3982TIP3    H233438   5.115   6.740   5.502  1.0282 -1.7534 -1.3253
 3983TIP3   OH233439   3.869   5.583  13.874  0.3214  0.9967 -0.2756
 3983TIP3    H133440   3.820   5.524  13.932 -0.4337 -0.3550 -2.2579
 3983TIP3    H233441   3.808   5.655  13.856  0.3036  1.0571  0.0189
 3984TIP3   OH233442   3.437   3.902  16.440  0.0055  0.4423  0.2010
 3984TIP3    H133443   3.452   3.990  16.406 -0.8170  0.7895  0.7277
 3984TIP3    H233444   3.417   3.914  16.533  1.6406 -0.4559  0.7035
 3985TIP3   OH233445   1.430   0.458  11.364 -0.2312  0.3877  0.5282
 3985TIP3    H133446   1.470   0.505  11.437 -1.2726 -0.6426  1.7802
 3985TIP3    H233447   1.463   0.368  11.373 -3.9104 -0.8475  2.4542
 3986TIP3   OH233448   2.094   0.082  12.939 -0.3118 -0.3030  0.2009
 3986TIP3    H133449   2.039   0.034  12.877  0.3294 -1.3643  0.4460
 3986TIP3    H233450   2.047   0.075  13.022 -0.6836  0.2932  0.0460
 3987TIP3   OH233451   2.929   6.146   2.707  0.0071 -0.0752  0.2051
 3987TIP3    H133452   3.019   6.177   2.704  0.0557 -0.2492 -0.3017
 3987TIP3    H233453   2.905   6.148   2.799  0.4400  0.2259  0.3127
 3988TIP3   OH233454   6.329   6.017   1.141 -0.2524  0.4665 -0.1647
 3988TIP3    H133455   6.295   5.927   1.138  1.4988 -0.1755 -2.0625
 3988TIP3    H233456   6.286   6.056   1.218 -0.5751 -2.1714  1.0649
 3989TIP3   OH233457   0.665   6.214   5.428  0.2759  0.2007 -0.1252
 3989TIP3    H133458   0.746   6.179   5.390  0.8709 -0.3906  1.6368
 3989TIP3    H233459   0.613   6.241   5.353  1.8095 -0.0877 -1.3208
 3990TIP3   OH233460   3.290   0.676   2.682 -0.2221 -1.3929  0.3677
 3990TIP3    H133461   3.311   0.585   2.662 -1.5945 -1.3788 -1.2802
 3990TIP3    H233462   3.368   0.725   2.653  0.2240 -1.9678  0.5769
 3991TIP3   OH233463   1.823   5.962  11.227 -0.2805 -0.4081 -0.0229
 3991TIP3    H133464   1.776   6.033  11.271 -1.7431 -0.7627 -1.0027
 3991TIP3    H233465   1.915   5.988  11.232 -0.8693  2.0139 -1.1794
 3992TIP3   OH233466   0.133   0.282  15.830 -0.0496  0.1295 -0.4571
 3992TIP3    H133467   0.079   0.220  15.878  1.3514 -2.6459 -2.3618
 3992TIP3    H233468   0.193   0.318  15.896 -0.5532 -0.8990  0.5639
 3993TIP3   OH233469   2.618   0.302   4.372  0.3457 -0.1360 -0.3704
 3993TIP3    H133470   2.558   0.374   4.352  0.1651 -0.3261 -0.5238
 3993TIP3    H233471   2.597   0.278   4.462 -0.5907 -0.9414 -0.7892
 3994TIP3   OH233472   5.604   2.013  16.290  0.1257 -0.6449 -0.3241
 3994TIP3    H133473   5.672   1.967  16.339 -0.6411 -0.1227  1.2548
 3994TIP3    H233474   5.651   2.056  16.219  1.0910 -2.3589 -0.7388
 3995TIP3   OH233475   4.002   3.284  14.620 -0.0071  0.2122 -0.6635
 3995TIP3    H133476   3.930   3.307  14.561 -1.4613  0.7904  1.3107
 3995TIP3    H233477   3.960   3.270  14.705  2.4599  2.6315  1.0010
 3996TIP3   OH233478   5.356   2.025  11.402  0.3929 -0.7427  0.5706
 3996TIP3    H133479   5.268   2.047  11.369  1.2547  1.1752 -0.5137
 3996TIP3    H233480   5.340   1.993  11.491 -1.4029 -0.3387  0.4236
 3997TIP3   OH233481   3.305   0.719   4.050 -0.4394 -0.1382 -0.9609
 3997TIP3    H133482   3.320   0.788   3.985  2.7370 -0.2401 -0.4144
 3997TIP3    H233483   3.342   0.641   4.010 -2.0121 -1.0900 -0.6222
 3998TIP3   OH233484   6.165   1.330   1.727 -0.1720  0.2885  0.2386
 3998TIP3    H133485   6.080   1.355   1.764 -0.1810  0.0415  0.3818
 3998TIP3    H233486   6.147   1.311   1.635 -0.2077  0.5772  0.1830
 3999TIP3   OH233487   4.900   6.703  15.105  0.1651 -0.3389  0.3409
 3999TIP3    H133488   4.863   6.618  15.081 -1.7523  0.3697  0.7207
 3999TIP3    H233489   4.912   6.698  15.200 -1.4356  0.3597  0.5966
 4000TIP3   OH233490   1.962   3.073   2.476 -0.2724 -0.6119 -0.1751
 4000TIP3    H133491   1.990   3.077   2.385 -0.9300 -0.7683 -0.3840
 4000TIP3    H233492   1.867   3.084   2.473 -0.2471 -0.1661  0.5245
 4001TIP3   OH233493   1.119   4.195  11.621  0.8912 -0.3132  0.0809
 4001TIP3    H133494   1.134   4.144  11.542  3.1454 -0.0088  0.2734
 4001TIP3    H233495   1.127   4.286  11.593  0.7109 -0.1754  0.4672
 4002TIP3   OH233496   0.233   0.447   4.805  0.1457  0.2034  0.1092
 4002TIP3    H133497   0.251   0.379   4.740 -0.4851 -1.3085  1.4678
 4002TIP3    H233498   0.165   0.501   4.765  0.7014  0.0721 -1.0192
 4003TIP3   OH233499   2.473   4.427   0.753 -0.3444 -0.3114 -0.5959
 4003TIP3    H133500   2.399   4.429   0.813  0.3883 -3.0893  0.4847
 4003TIP3    H233501   2.433   4.421   0.666 -1.3796  0.8591 -0.2128
 4004TIP3   OH233502   5.898   6.325   1.664 -0.3627  0.3820  0.5161
 4004TIP3    H133503   5.829   6.260   1.657  1.6244 -1.6669 -0.9265
 4004TIP3    H233504   5.969   6.281   1.710  0.9848  1.5636 -0.3744
 4005TIP3   OH233505   3.128   4.263  16.293 -0.2579  0.1550  0.1499
 4005TIP3    H133506   3.040   4.288  16.323  0.0567  1.4913  0.0228
 4005TIP3    H233507   3.160   4.342  16.248  1.4984  0.1017  1.2832
 4006TIP3   OH233508   5.876   1.329   2.843  0.1078 -0.0885 -0.1353
 4006TIP3    H133509   5.839   1.300   2.759 -0.9298  2.8716 -0.7379
 4006TIP3    H233510   5.965   1.358   2.822 -0.2397  0.8917 -0.2787
 4007TIP3   OH233511   4.408   3.650  15.783  0.3632 -1.1053  0.0680
 4007TIP3    H133512   4.359   3.729  15.760  0.0638 -0.9400  1.2577
 4007TIP3    H233513   4.496   3.666  15.750 -0.5176 -1.6792 -2.6631
 4008TIP3   OH233514   3.410   6.161  14.516  0.8064 -0.0850 -0.3981
 4008TIP3    H133515   3.489   6.181  14.567 -0.0530  1.9122  0.2244
 4008TIP3    H233516   3.391   6.242  14.468 -1.6574 -0.0454  0.5546
 4009TIP3   OH233517   4.528   6.352   5.203 -0.6756 -0.4030  0.6668
 4009TIP3    H133518   4.530   6.257   5.205  3.2733 -0.3787  2.3510
 4009TIP3    H233519   4.513   6.378   5.294 -0.0332  0.5663  0.5035
 4010TIP3   OH233520   0.313   3.984  15.857 -0.1439 -0.2034  0.8177
 4010TIP3    H133521   0.343   4.004  15.769 -2.3043  3.5190  0.7975
 4010TIP3    H233522   0.225   3.947  15.844 -0.9987  1.5654  1.4168
 4011TIP3   OH233523   2.713   6.136   5.013 -0.9831  0.4228  0.1979
 4011TIP3    H133524   2.651   6.106   5.079 -1.4977  1.4754  0.2140
 4011TIP3    H233525   2.704   6.231   5.013  1.2279  0.6625  0.7654
 4012TIP3   OH233526   2.585   4.679   5.421  0.0872 -0.5616  0.2406
 4012TIP3    H133527   2.546   4.592   5.417  0.3349 -0.7274  1.1822
 4012TIP3    H233528   2.657   4.670   5.484 -0.5371  0.5692  1.1319
 4013TIP3   OH233529   4.763   1.392   5.146  0.4053 -0.1650 -0.1550
 4013TIP3    H133530   4.749   1.406   5.052  0.6376  4.5360  0.3738
 4013TIP3    H233531   4.854   1.363   5.152  0.8159  0.8537 -1.2858
 4014TIP3   OH233532   0.961   1.327   1.592  0.1539  0.4301  0.4079
 4014TIP3    H133533   0.892   1.296   1.533  0.6801 -0.5745  0.3170
 4014TIP3    H233534   1.008   1.393   1.541  1.4830 -1.4275 -0.8181
 4015TIP3   OH233535   0.243   1.342   0.460 -0.0241 -0.1300 -0.2432
 4015TIP3    H133536   0.163   1.338   0.513  0.1322 -1.1468 -0.0810
 4015TIP3    H233537   0.212   1.357   0.371 -0.3358  0.5837 -0.0224
 4016TIP3   OH233538   1.732   4.704   2.918  0.2106  0.5841  0.6070
 4016TIP3    H133539   1.807   4.693   2.858 -0.6639  2.0741 -0.7842
 4016TIP3    H233540   1.723   4.799   2.928 -0.6457  0.3782  1.8641
 4017TIP3   OH233541   2.357   3.988   3.043 -0.2011  0.3439  0.1379
 4017TIP3    H133542   2.328   4.061   2.987 -0.6497  1.2713  1.5519
 4017TIP3    H233543   2.296   3.917   3.024 -1.4437  1.2371  0.7468
 4018TIP3   OH233544   4.939   4.145  14.556  0.2182  0.6284  0.1969
 4018TIP3    H133545   4.864   4.110  14.506  0.2595 -0.9194  1.1752
 4018TIP3    H233546   4.963   4.074  14.615  3.4098  0.5718 -1.0954
 4019TIP3   OH233547   3.330   3.204  12.958 -0.4924 -0.1308 -0.2237
 4019TIP3    H133548   3.296   3.291  12.981  0.9313 -0.1000  1.8970
 4019TIP3    H233549   3.425   3.214  12.960 -0.2904 -0.9855 -3.0756
 4020TIP3   OH233550   1.403   6.706   0.531 -0.7160 -0.4103 -0.7666
 4020TIP3    H133551   1.319   6.751   0.533 -0.6190 -0.0732 -3.1131
 4020TIP3    H233552   1.466   6.772   0.561 -1.1432 -0.3634  0.0446
 4021TIP3   OH233553   4.381   2.441   3.687 -0.0900  0.3078  0.9259
 4021TIP3    H133554   4.418   2.529   3.693  1.0491 -0.2280  1.9930
 4021TIP3    H233555   4.443   2.385   3.734  0.5425 -1.4994 -1.9094
 4022TIP3   OH233556   0.899   5.874   3.503 -0.0947  0.2370  0.4303
 4022TIP3    H133557   0.829   5.896   3.564  0.9465  0.0491  1.6996
 4022TIP3    H233558   0.977   5.917   3.537  0.8607 -1.2222  0.1686
 4023TIP3   OH233559   1.790   4.988   5.196  0.5003  0.0246  0.1601
 4023TIP3    H133560   1.805   5.055   5.130 -0.2117  0.2870  0.2552
 4023TIP3    H233561   1.715   4.939   5.162  2.1440 -1.8852 -0.8227
 4024TIP3   OH233562   2.791   5.057   6.784 -0.0700 -0.0211  0.5235
 4024TIP3    H133563   2.829   4.992   6.843  0.4238  1.0468  1.4157
 4024TIP3    H233564   2.729   5.008   6.731 -0.0629 -1.1329  1.5117
 4025TIP3   OH233565   4.453   4.471   1.805  0.4376  0.5535  0.0799
 4025TIP3    H133566   4.528   4.506   1.853  0.1333  2.6987 -0.9427
 4025TIP3    H233567   4.399   4.429   1.872  2.1982 -0.3949  0.9284
 4026TIP3   OH233568   5.902   6.359   2.268 -0.2604  0.2879 -0.2957
 4026TIP3    H133569   5.915   6.266   2.248 -0.7197  0.0840  0.3535
 4026TIP3    H233570   5.828   6.384   2.214  0.0669  0.3655 -0.7182
 4027TIP3   OH233571   2.980   0.997   4.363  0.3344  0.2638 -0.4960
 4027TIP3    H133572   3.048   0.997   4.296 -1.8463 -0.1945 -2.7558
 4027TIP3    H233573   2.943   1.086   4.360 -0.1995  0.0496 -0.3359
 4028TIP3   OH233574   0.657   2.673   6.645 -0.2817 -0.1839  0.2095
 4028TIP3    H133575   0.649   2.597   6.703  1.1648  0.3207  1.0791
 4028TIP3    H233576   0.676   2.636   6.559  1.9433 -0.7479  0.9341
 4029TIP3   OH233577   2.466   1.418  15.676 -0.0100  0.4142  0.8258
 4029TIP3    H133578   2.438   1.367  15.752  1.5710 -2.1581 -0.2621
 4029TIP3    H233579   2.561   1.408  15.673  0.0566  1.2724 -0.9215
 4030TIP3   OH233580   0.215   6.374  16.807 -0.2320 -0.2636  0.1919
 4030TIP3    H133581   0.268   6.351  16.883 -0.0206 -0.3251  0.0269
 4030TIP3    H233582   0.141   6.424  16.842 -0.5078 -0.8948  0.5105
 4031TIP3   OH233583   2.198   1.303  13.669  0.4503 -0.2398 -0.6449
 4031TIP3    H133584   2.251   1.383  13.663 -1.1551  0.8472 -0.7228
 4031TIP3    H233585   2.192   1.271  13.579 -2.8911  2.2587 -1.4162
 4032TIP3   OH233586   4.506   0.103   2.547  0.2219  0.2546  0.1002
 4032TIP3    H133587   4.423   0.150   2.545 -0.5519 -1.0372  1.4299
 4032TIP3    H233588   4.502   0.044   2.472 -0.6325 -0.7501  0.9258
 4033TIP3   OH233589   6.534   4.966   0.020 -0.4034 -0.4310 -0.1601
 4033TIP3    H133590   6.525   4.899  -0.048  0.2270 -1.2171  0.5193
 4033TIP3    H233591   6.471   4.941   0.087 -1.0331  0.3508 -0.4536
 4034TIP3   OH233592   6.545   0.994   3.651  0.4209  0.4559 -0.5653
 4034TIP3    H133593   6.606   0.923   3.672 -1.4641 -1.3742 -1.1103
 4034TIP3    H233594   6.541   1.047   3.731 -0.4407 -1.7764  0.9067
 4035TIP3   OH233595   3.460   5.170   4.100  0.1711  0.1918  0.1126
 4035TIP3    H133596   3.468   5.202   4.190 -1.4463 -0.7465  0.6081
 4035TIP3    H233597   3.401   5.095   4.106 -1.4557  1.2395 -1.9696
 4036TIP3   OH233598   0.745   4.120  15.163  0.3523  0.3079  0.3563
 4036TIP3    H133599   0.768   4.190  15.102 -0.1905  0.8231  0.7364
 4036TIP3    H233600   0.709   4.050  15.108 -2.1824  1.6212  0.2654
 4037TIP3   OH233601   1.569   6.623   2.216  0.2462  0.0247  0.2023
 4037TIP3    H133602   1.562   6.536   2.177  0.0400  0.3820 -0.5658
 4037TIP3    H233603   1.500   6.625   2.282 -0.1568 -0.1754 -0.2043
 4038TIP3   OH233604   0.857   5.986   1.115 -0.0897 -0.1177 -0.0474
 4038TIP3    H133605   0.931   6.016   1.168 -1.5278  0.8015  1.4539
 4038TIP3    H233606   0.814   5.920   1.168 -0.9889  0.1215 -0.4783
 4039TIP3   OH233607   2.665   2.916   4.133  0.4170  0.3713  0.3358
 4039TIP3    H133608   2.651   3.000   4.177  0.1645  0.6191 -0.2205
 4039TIP3    H233609   2.619   2.852   4.188 -0.1646  0.7247  0.2669
 4040TIP3   OH233610   6.427   2.959  12.688 -0.1203  0.7040  0.0534
 4040TIP3    H133611   6.419   2.938  12.782  0.0330  1.4267  0.2329
 4040TIP3    H233612   6.346   3.005  12.667  0.4076  1.6851  0.1451
 4041TIP3   OH233613   5.994   0.598  14.124  0.1460 -0.0249 -0.1577
 4041TIP3    H133614   5.984   0.567  14.034  1.2280 -0.2402 -0.2151
 4041TIP3    H233615   5.992   0.693  14.117 -2.5673 -0.0491 -0.0582
 4042TIP3   OH233616   3.850   6.283  12.613 -0.1853  0.4797  0.0096
 4042TIP3    H133617   3.851   6.378  12.608 -0.0651  0.5515  1.2858
 4042TIP3    H233618   3.772   6.256  12.564 -1.1492  1.3168  1.0779
 4043TIP3   OH233619   0.967   6.479  12.556 -0.3470 -0.3270 -0.1581
 4043TIP3    H133620   1.043   6.476  12.498  0.5523  1.7252  0.8509
 4043TIP3    H233621   1.004   6.486  12.644 -1.7101 -2.0429  0.5877
 4044TIP3   OH233622   5.017   6.520  14.272  0.0922 -0.5224  0.1348
 4044TIP3    H133623   5.061   6.463  14.210 -1.3085 -0.8178 -0.6135
 4044TIP3    H233624   4.974   6.461  14.334 -0.2770 -0.2731  0.1232
 4045TIP3   OH233625   4.017   3.707  13.637  0.2301  0.7062 -0.3312
 4045TIP3    H133626   4.023   3.790  13.592 -0.4123  0.9818  0.0820
 4045TIP3    H233627   3.988   3.645  13.570 -0.5614  1.0797 -0.3371
 4046TIP3   OH233628   2.017   2.888   3.162 -0.1489  0.0805  0.1602
 4046TIP3    H133629   1.990   2.934   3.083  0.4951 -1.0206 -0.7215
 4046TIP3    H233630   2.099   2.844   3.138 -1.2122 -2.2781  0.6590
 4047TIP3   OH233631   0.567   2.725  13.040 -0.2311  0.4311 -0.3942
 4047TIP3    H133632   0.593   2.644  13.084  1.8557  1.5997  0.6045
 4047TIP3    H233633   0.494   2.699  12.984  0.8065 -2.2828 -0.6026
 4048TIP3   OH233634   3.037   0.728   3.522  0.3314  0.0389  0.0837
 4048TIP3    H133635   3.118   0.717   3.471  0.5248  3.1290 -0.4106
 4048TIP3    H233636   3.063   0.785   3.595 -1.0925 -0.0821  0.6957
 4049TIP3   OH233637   3.209   6.234   2.639 -0.0871  0.0844  0.2646
 4049TIP3    H133638   3.148   6.307   2.627 -2.0284 -1.3850  1.1148
 4049TIP3    H233639   3.251   6.223   2.554 -1.0991  0.9936 -0.3591
 4050TIP3   OH233640   4.290   5.782   5.150 -0.4103  0.1934 -0.4396
 4050TIP3    H133641   4.375   5.765   5.110 -0.7280  0.7719 -1.3641
 4050TIP3    H233642   4.278   5.876   5.144 -0.4249  0.3162  1.1210
 4051TIP3   OH233643   2.441   5.514   3.415 -0.0951  0.2837 -0.2992
 4051TIP3    H133644   2.403   5.602   3.408  0.7674  0.7377  0.7238
 4051TIP3    H233645   2.534   5.526   3.396 -0.1318 -0.5503 -1.0299
 4052TIP3   OH233646   5.856   5.989  15.012 -0.5293  0.2834  0.4020
 4052TIP3    H133647   5.867   6.036  14.929  0.0217 -1.1023 -0.3453
 4052TIP3    H233648   5.938   5.940  15.022 -1.1590 -0.6598  1.0517
 4053TIP3   OH233649   2.667   3.723   2.548  0.0570 -0.1538  0.3824
 4053TIP3    H133650   2.644   3.781   2.621  0.5559  0.4762  0.0361
 4053TIP3    H233651   2.590   3.727   2.490 -0.1213 -0.2407  0.6132
 4054TIP3   OH233652   4.456   5.128   5.628 -0.2465 -0.0803 -0.2321
 4054TIP3    H133653   4.490   5.039   5.624 -0.7579 -0.3169  0.5788
 4054TIP3    H233654   4.520   5.180   5.581 -0.1845 -0.9499 -1.1195
 4055TIP3   OH233655   1.338   0.745   3.106 -0.0609 -0.5822 -0.0314
 4055TIP3    H133656   1.247   0.759   3.077  0.3542 -1.0980 -1.6303
 4055TIP3    H233657   1.352   0.811   3.174 -2.0287 -1.2895  1.1207
 4056TIP3   OH233658   2.774   0.604  11.302 -0.1348 -0.4335 -0.0075
 4056TIP3    H133659   2.855   0.655  11.293 -0.1130 -0.8884 -2.9809
 4056TIP3    H233660   2.705   0.663  11.272 -0.5578 -0.8914  0.0503
 4057TIP3   OH233661   3.520   0.393   0.101 -0.2893 -0.2354 -0.4290
 4057TIP3    H133662   3.566   0.477   0.106  0.5110 -0.6669 -0.4592
 4057TIP3    H233663   3.469   0.389   0.182 -0.3036  0.2638 -0.4111
 4058TIP3   OH233664   6.433   4.966  14.424 -0.2991  0.4285  0.2147
 4058TIP3    H133665   6.501   4.900  14.440 -1.2253 -0.7466 -0.5525
 4058TIP3    H233666   6.476   5.050  14.439  1.0174 -0.3388  0.8078
 4059TIP3   OH233667   2.957   1.049  16.558  0.0888  0.0301 -0.2698
 4059TIP3    H133668   2.879   1.011  16.598 -0.7908 -0.4497 -2.4086
 4059TIP3    H233669   3.023   0.979  16.563 -0.5338 -0.6299 -1.2091
 4060TIP3   OH233670   2.295   3.226   4.939  0.6074 -0.2567  0.0243
 4060TIP3    H133671   2.331   3.284   4.872 -0.5714  1.3627  0.7527
 4060TIP3    H233672   2.331   3.259   5.021 -0.7108 -0.0160  0.5219
 4061TIP3   OH233673   4.527   2.003  15.542 -0.9188 -0.0078  0.0305
 4061TIP3    H133674   4.546   2.085  15.586  2.2175  0.0680 -1.3211
 4061TIP3    H233675   4.519   2.026  15.450 -1.3752 -1.0299 -0.1954
 4062TIP3   OH233676   5.693   6.528  16.845  0.6671  0.3594  0.3157
 4062TIP3    H133677   5.686   6.575  16.762  0.0449 -2.0336 -1.0344
 4062TIP3    H233678   5.609   6.484  16.855  1.8864 -1.9798  0.5738
 4063TIP3   OH233679   6.581   4.315   4.850  0.4186 -0.1266 -0.3163
 4063TIP3    H133680   6.665   4.274   4.871  0.0360 -0.1947  1.1590
 4063TIP3    H233681   6.517   4.269   4.905 -0.8029 -0.9689 -2.3700
 4064TIP3   OH233682   1.223   1.582   1.137 -0.0884  0.0775  0.4928
 4064TIP3    H133683   1.221   1.630   1.219 -1.1592  0.3819  0.2922
 4064TIP3    H233684   1.133   1.585   1.104  0.4928  0.6793 -1.1005
 4065TIP3   OH233685   5.306   3.851  16.497 -0.2964  0.0755 -0.2423
 4065TIP3    H133686   5.283   3.925  16.553  0.0044  0.6119 -0.8230
 4065TIP3    H233687   5.223   3.820  16.462 -0.3234  0.7596 -0.7759
 4066TIP3   OH233688   2.170   1.372  15.066  0.4492 -0.0673  0.3698
 4066TIP3    H133689   2.103   1.356  15.132  0.9895 -0.0350  0.9356
 4066TIP3    H233690   2.122   1.391  14.986 -0.2156 -0.9528  0.5562
 4067TIP3   OH233691   3.641   2.350  17.084  0.6574 -0.3058  0.2409
 4067TIP3    H133692   3.624   2.403  17.162 -0.4159 -0.4770  0.1336
 4067TIP3    H233693   3.668   2.413  17.017 -0.0421  0.0512  0.2843
 4068TIP3   OH233694   3.145   4.857   3.892 -0.3402  0.5468 -0.5130
 4068TIP3    H133695   3.071   4.855   3.953 -0.1205  1.0799 -0.2285
 4068TIP3    H233696   3.139   4.773   3.846 -2.1539  1.2974 -1.7267
 4069TIP3   OH233697   0.517   1.294   1.689  0.0200  0.4405 -0.5017
 4069TIP3    H133698   0.537   1.249   1.771 -0.3152 -0.1273 -0.7302
 4069TIP3    H233699   0.592   1.352   1.675  1.2584 -1.2926 -1.0916
 4070TIP3   OH233700   5.605   4.727   2.380  0.5943 -0.2560  0.2864
 4070TIP3    H133701   5.692   4.702   2.349 -0.2270 -2.3227 -0.4777
 4070TIP3    H233702   5.570   4.646   2.419 -2.6278 -0.7139 -3.2538
 4071TIP3   OH233703   2.154   6.479   2.990 -0.7777 -0.0601 -0.3588
 4071TIP3    H133704   2.060   6.473   2.972 -0.9437 -0.0659  0.5126
 4071TIP3    H233705   2.160   6.483   3.085  0.1921 -1.4732 -0.3589
 4072TIP3   OH233706   5.264   5.455  14.128 -0.2351 -0.4640 -0.2167
 4072TIP3    H133707   5.346   5.429  14.085  0.0699  0.0951  0.0263
 4072TIP3    H233708   5.267   5.551  14.131 -0.8057 -0.4483 -0.0248
 4073TIP3   OH233709   0.964   5.953  15.597  0.2616 -0.1787  0.3107
 4073TIP3    H133710   0.996   5.901  15.670  0.0976 -1.9218 -0.8202
 4073TIP3    H233711   0.954   5.890  15.525  0.1723  1.4356 -1.1362
 4074TIP3   OH233712   3.839   2.345  16.176 -0.7739 -0.7023  0.7002
 4074TIP3    H133713   3.780   2.404  16.127  2.2050  1.1818 -0.7399
 4074TIP3    H233714   3.864   2.279  16.112 -0.4900 -0.9112  1.0291
 4075TIP3   OH233715   4.371   1.880   3.797  0.2335 -0.2637  0.3193
 4075TIP3    H133716   4.316   1.802   3.811 -1.3613  0.9582  1.1164
 4075TIP3    H233717   4.408   1.868   3.710  0.9385 -2.4719  0.8945
 4076TIP3   OH233718   1.943   0.698   5.789  0.3527  0.0062 -0.8049
 4076TIP3    H133719   1.963   0.755   5.716  5.9407 -0.3004  0.3145
 4076TIP3    H233720   1.961   0.609   5.757  0.5974 -0.3252  0.2174
 4077TIP3   OH233721   5.451   4.011  17.027  0.0797 -0.0742  0.1612
 4077TIP3    H133722   5.416   4.095  17.054  0.2213 -0.9147  3.1480
 4077TIP3    H233723   5.545   4.017  17.044  0.0026 -1.0421  0.9848
 4078TIP3   OH233724   4.834   1.456   1.262  0.3570  0.2709 -0.1230
 4078TIP3    H133725   4.919   1.445   1.220  0.1177 -0.9493 -0.3002
 4078TIP3    H233726   4.807   1.545   1.238  2.0093  1.0231  0.7453
 4079TIP3   OH233727   4.564   4.661   4.430  0.3091 -0.0297 -0.0697
 4079TIP3    H133728   4.620   4.584   4.434 -0.4504 -0.7052 -1.8363
 4079TIP3    H233729   4.475   4.625   4.422 -0.0235  1.0054 -1.2451
 4080TIP3   OH233730   0.317   5.077   0.308 -0.3294 -0.6886  0.2412
 4080TIP3    H133731   0.310   5.173   0.312 -1.9388 -0.8558  1.8921
 4080TIP3    H233732   0.345   5.059   0.218 -1.7122  1.2390 -0.6073
 4081TIP3   OH233733   4.090   6.061  11.698  0.2168 -0.7599  0.7822
 4081TIP3    H133734   4.146   6.129  11.660 -1.4120  1.2822  1.9495
 4081TIP3    H233735   4.012   6.059  11.642 -0.3408 -0.7022  1.5507
 4082TIP3   OH233736   3.952   6.457   2.584  0.1369  0.5490 -0.0832
 4082TIP3    H133737   3.949   6.384   2.646  0.8389  0.1031 -0.5620
 4082TIP3    H233738   3.986   6.418   2.503  0.0252  1.3006 -0.4927
 4083TIP3   OH233739   4.667   4.195  16.299  0.0609  0.6202 -0.2287
 4083TIP3    H133740   4.707   4.229  16.219 -1.0269 -0.1371 -1.1036
 4083TIP3    H233741   4.585   4.155  16.270  0.3310 -0.9160  1.0617
 4084TIP3   OH233742   4.796   5.111   5.079  0.0215  0.7260  0.1516
 4084TIP3    H133743   4.720   5.156   5.043 -0.4345  0.2099  0.4588
 4084TIP3    H233744   4.815   5.042   5.016 -0.2037  0.4123  0.4200
 4085TIP3   OH233745   4.033   2.508   1.069 -0.0131  0.1975 -0.1963
 4085TIP3    H133746   4.043   2.581   1.008  0.7949  0.0406 -0.2527
 4085TIP3    H233747   4.109   2.451   1.053  0.4008  0.3277  1.1782
 4086TIP3   OH233748   1.018   4.820  13.552  0.0033  0.1989  0.2483
 4086TIP3    H133749   1.028   4.774  13.469  0.3577 -0.8995  0.8796
 4086TIP3    H233750   1.078   4.894  13.546 -0.6824  0.6765 -0.8458
 4087TIP3   OH233751   2.314   2.660  15.456  0.0954 -0.4520 -0.3445
 4087TIP3    H133752   2.249   2.714  15.503 -1.6520 -2.1775 -0.7405
 4087TIP3    H233753   2.348   2.718  15.389 -0.6815  0.6398  0.1790
 4088TIP3   OH233754   4.353   6.752   5.356  0.0112 -0.2052  0.1155
 4088TIP3    H133755   4.402   6.783   5.280  1.1302 -1.7645  0.1608
 4088TIP3    H233756   4.408   6.682   5.392 -2.0978 -1.7617  0.3837
 4089TIP3   OH233757   2.392   0.816   5.100  0.1658  0.2861 -0.2577
 4089TIP3    H133758   2.486   0.799   5.101 -0.0520 -1.3114 -2.1603
 4089TIP3    H233759   2.358   0.753   5.036 -2.1697  0.9524  0.2963
 4090TIP3   OH233760   1.117   0.941   3.127  0.1324 -0.3761  0.3365
 4090TIP3    H133761   1.030   0.955   3.089  0.1705  1.4153  0.8759
 4090TIP3    H233762   1.117   0.993   3.207  1.6194 -0.5426  0.4567
 4091TIP3   OH233763   5.336   0.262  13.715 -0.2354  0.1903  0.2753
 4091TIP3    H133764   5.320   0.173  13.747 -0.0368 -0.2818 -0.9092
 4091TIP3    H233765   5.408   0.253  13.654 -1.4081  0.8657 -1.2506
 4092TIP3   OH233766   3.790   1.059   1.291 -0.1244 -0.4194 -0.6078
 4092TIP3    H133767   3.793   0.974   1.247  0.7529  1.1253 -3.6234
 4092TIP3    H233768   3.697   1.083   1.288 -0.1368 -0.5304 -1.1824
 4093TIP3   OH233769   6.519   5.460   0.247  0.3975  0.6851 -0.6678
 4093TIP3    H133770   6.594   5.439   0.191  0.0179  1.5985 -1.5276
 4093TIP3    H233771   6.557   5.506   0.322  0.7125  1.0070 -1.0244
 4094TIP3   OH233772   3.603   2.196  16.753  0.2253  0.8748  0.0475
 4094TIP3    H133773   3.553   2.273  16.781  0.4544  0.8930  0.4003
 4094TIP3    H233774   3.582   2.188  16.660  1.6311  2.4540 -0.4256
 4095TIP3   OH233775   6.529   0.697   4.370  0.4529  0.7200 -0.8634
 4095TIP3    H133776   6.548   0.617   4.419  1.7852  0.4381 -1.8166
 4095TIP3    H233777   6.540   0.672   4.278 -1.5021  1.3714 -1.2975
 4096TIP3   OH233778   4.793   2.687  16.825  0.5121  0.1778  0.1673
 4096TIP3    H133779   4.725   2.743  16.864 -0.2182  0.2424 -1.1803
 4096TIP3    H233780   4.874   2.717  16.865  0.3289  3.1783 -1.5352
 4097TIP3   OH233781   4.667   4.741  13.283 -0.1775  0.4640 -0.1156
 4097TIP3    H133782   4.584   4.696  13.300 -0.2769  0.3528 -0.8522
 4097TIP3    H233783   4.701   4.697  13.205  0.6923  0.3500  0.3252
 4098TIP3   OH233784   5.528   0.321  16.156 -0.2744 -0.5079  0.3188
 4098TIP3    H133785   5.622   0.331  16.146 -0.7889  3.1594 -1.6266
 4098TIP3    H233786   5.501   0.269  16.080  0.0683 -0.8977  0.4649
 4099TIP3   OH233787   6.665   3.852  15.585 -0.3399 -0.5361 -0.2955
 4099TIP3    H133788   6.732   3.788  15.560 -0.6112 -1.4874  1.3426
 4099TIP3    H233789   6.617   3.869  15.504  2.6658  1.1637 -1.8255
 4100TIP3   OH233790   3.066   6.558  15.283 -0.1832  0.6105  0.2345
 4100TIP3    H133791   3.063   6.477  15.231  1.1553  0.0421  1.0162
 4100TIP3    H233792   3.152   6.596  15.264 -1.0099  2.1373 -0.5373
 4101TIP3   OH233793   1.502   2.241  13.777  0.3576 -0.5191 -0.0010
 4101TIP3    H133794   1.423   2.188  13.786  0.3486 -0.5615 -0.3317
 4101TIP3    H233795   1.566   2.182  13.737  1.3036 -1.2236  2.4342
 4102TIP3   OH233796   2.474   6.175   1.266  0.4021 -0.1026  0.3487
 4102TIP3    H133797   2.541   6.192   1.332 -0.2948  0.5152  0.8994
 4102TIP3    H233798   2.523   6.168   1.184  1.2925 -1.1659  0.9710
 4103TIP3   OH233799   1.458   1.729  15.305  0.2479 -0.4101  0.2109
 4103TIP3    H133800   1.365   1.729  15.281  0.4492  0.8134 -0.5494
 4103TIP3    H233801   1.504   1.700  15.226  0.7231  1.5287 -0.2496
 4104TIP3   OH233802   3.049   5.521  12.824  0.0120 -0.0467 -0.4930
 4104TIP3    H133803   3.059   5.595  12.884  2.1826 -0.2854 -0.5041
 4104TIP3    H233804   2.966   5.537  12.778  0.0169  1.8932  0.1546
 4105TIP3   OH233805   1.121   4.471   2.314  0.4191  0.6454  0.0993
 4105TIP3    H133806   1.211   4.504   2.311 -0.3805  2.6737 -2.6469
 4105TIP3    H233807   1.068   4.546   2.341 -0.6149 -0.2118  0.4985
 4106TIP3   OH233808   6.724   1.310  10.932 -0.1611 -0.6345 -0.3646
 4106TIP3    H133809   6.680   1.291  10.849  0.8825 -1.4677 -0.7271
 4106TIP3    H233810   6.812   1.337  10.907 -0.1902  0.2107  0.4168
 4107TIP3   OH233811   4.028   0.571  15.172  0.2337 -0.4023  0.1477
 4107TIP3    H133812   4.026   0.535  15.084 -0.5646 -0.4572  0.1900
 4107TIP3    H233813   3.936   0.585  15.195  0.4761  0.5542  0.5852
 4108TIP3   OH233814   2.603   5.104   1.354 -0.2183 -0.6516 -0.4150
 4108TIP3    H133815   2.596   5.157   1.274 -0.3396  1.3131  0.8788
 4108TIP3    H233816   2.545   5.147   1.417  1.0492 -1.2920  1.2208
 4109TIP3   OH233817   3.511   2.560  14.468 -0.1689 -0.1472  0.5575
 4109TIP3    H133818   3.537   2.557  14.376 -0.7723 -1.3848  0.4185
 4109TIP3    H233819   3.590   2.587  14.514  0.3804 -0.3670 -0.2370
 4110TIP3   OH233820   3.029   0.417   6.888 -0.8709 -0.3403  0.0549
 4110TIP3    H133821   2.981   0.500   6.887 -0.5308 -0.1380  0.2073
 4110TIP3    H233822   3.118   0.442   6.913 -0.5130 -0.6133 -0.9411
 4111TIP3   OH233823   1.635   2.034   0.441 -0.2354 -0.3681  0.0536
 4111TIP3    H133824   1.581   1.999   0.512 -1.8970  0.4509 -0.7803
 4111TIP3    H233825   1.574   2.045   0.368  0.8205  1.7072 -0.5439
 4112TIP3   OH233826   6.477   0.959  17.017 -0.0055  0.2571 -0.1040
 4112TIP3    H133827   6.568   0.988  17.030  0.3488 -1.3358  1.1480
 4112TIP3    H233828   6.472   0.937  16.924  0.9864  0.1126 -0.1318
 4113TIP3   OH233829   0.842   3.943   1.790  0.1424  0.5523 -0.5764
 4113TIP3    H133830   0.832   3.878   1.721 -1.4670  1.1283 -0.9086
 4113TIP3    H233831   0.774   4.008   1.773 -0.5307  0.5168  1.7541
 4114TIP3   OH233832   1.329   5.474   5.847  0.3852  0.1170  0.0528
 4114TIP3    H133833   1.329   5.453   5.753  1.1001 -0.6303  0.2153
 4114TIP3    H233834   1.351   5.567   5.850 -1.2218  0.5225 -0.5961
 4115TIP3   OH233835   6.262   0.076   5.045 -0.1779  0.5517  0.4253
 4115TIP3    H133836   6.183   0.099   4.996 -0.2630 -1.2339 -0.2899
 4115TIP3    H233837   6.280   0.154   5.099 -0.4959  2.2561 -1.8638
 4116TIP3   OH233838   5.324   1.630  15.486 -0.6723 -0.5248  0.3162
 4116TIP3    H133839   5.320   1.592  15.399 -1.1660  0.4055 -0.0679
 4116TIP3    H233840   5.389   1.699  15.480 -0.1168 -0.9911  0.8933
 4117TIP3   OH233841   0.196   1.916  12.534 -0.5265 -0.1612  0.4490
 4117TIP3    H133842   0.199   2.007  12.563  0.5653  0.0356 -0.2310
 4117TIP3    H233843   0.103   1.898  12.520 -0.7987  0.6617  1.1627
 4118TIP3   OH233844   4.172   2.638  12.869  0.5616 -0.2240 -0.3204
 4118TIP3    H133845   4.206   2.713  12.918  1.8434 -0.2607 -1.1043
 4118TIP3    H233846   4.229   2.566  12.895  0.2026 -0.6092 -0.6057
 4119TIP3   OH233847   6.138   6.396  14.113 -0.0875 -0.3776 -0.1948
 4119TIP3    H133848   6.217   6.370  14.161 -1.0176 -3.0470  0.0040
 4119TIP3    H233849   6.091   6.454  14.172  0.9456 -0.0776  0.3295
 4120TIP3   OH233850   0.098   1.782   2.746 -0.1257  0.0699 -0.3551
 4120TIP3    H133851   0.043   1.860   2.741  1.8573  1.5256  0.3035
 4120TIP3    H233852   0.039   1.710   2.721 -2.7473  1.3843  1.7582
 4121TIP3   OH233853   2.289   1.569  12.520 -0.5480  0.4551 -0.4009
 4121TIP3    H133854   2.252   1.515  12.450 -0.1495 -0.7611  0.3236
 4121TIP3    H233855   2.232   1.553  12.595  0.6623 -0.4107  0.3501
 4122TIP3   OH233856   3.436   2.058   0.052 -0.1037  0.1760 -0.4697
 4122TIP3    H133857   3.412   2.102  -0.029 -0.2810  1.0316  0.0388
 4122TIP3    H233858   3.448   2.129   0.115  1.2864 -0.3996 -0.0706
 4123TIP3   OH233859   3.369   3.408   3.142 -0.3348 -0.2465 -0.0864
 4123TIP3    H133860   3.364   3.384   3.049 -1.4424 -0.2968 -0.0102
 4123TIP3    H233861   3.365   3.324   3.188 -1.7759 -0.0800  0.0866
 4124TIP3   OH233862   1.235   1.661  17.117 -0.5905 -0.5870  0.0026
 4124TIP3    H133863   1.187   1.644  17.198  0.7417 -0.3676  0.8598
 4124TIP3    H233864   1.284   1.580  17.101  2.3488  0.7787  1.6966
 4125TIP3   OH233865   2.912   2.311   4.304  0.3347  0.9575 -0.2505
 4125TIP3    H133866   2.844   2.301   4.238  1.7725 -1.6885 -1.3968
 4125TIP3    H233867   2.918   2.226   4.347  1.7044  1.6593  1.0422
 4126TIP3   OH233868   2.467   4.072  14.172 -0.1392 -0.2904 -0.1024
 4126TIP3    H133869   2.435   4.057  14.260 -1.7926  2.4038 -0.2046
 4126TIP3    H233870   2.421   4.008  14.118 -2.7791  1.2100  0.2980
 4127TIP3   OH233871   1.811   6.349   1.508 -0.3092 -0.0363  0.2472
 4127TIP3    H133872   1.784   6.344   1.600 -1.2586 -0.1415 -0.0353
 4127TIP3    H233873   1.730   6.364   1.460 -0.0766 -1.8372 -0.7596
 4128TIP3   OH233874   2.870   5.515  15.643  0.0947  0.8531  0.0558
 4128TIP3    H133875   2.932   5.444  15.627 -0.1254  0.9204 -1.1182
 4128TIP3    H233876   2.788   5.471  15.667 -0.0117  0.7089 -0.5643
 4129TIP3   OH233877   2.489   3.594  10.961 -0.1304 -0.3584 -0.0891
 4129TIP3    H133878   2.444   3.678  10.957 -1.2310 -0.8535  1.0819
 4129TIP3    H233879   2.470   3.552  10.877  0.3967  0.5488 -0.6573
 4130TIP3   OH233880   0.171   3.443  14.394 -0.1506  0.3866 -0.5752
 4130TIP3    H133881   0.183   3.368  14.453  1.3151  1.8462  1.0574
 4130TIP3    H233882   0.080   3.469  14.407 -0.4045 -0.5488 -0.4588
 4131TIP3   OH233883   6.776   2.413  16.332 -0.2562 -0.2680 -0.8524
 4131TIP3    H133884   6.708   2.480  16.334 -1.3500 -1.3650  1.4716
 4131TIP3    H233885   6.802   2.404  16.424  2.2314 -0.6689 -1.5848
 4132TIP3   OH233886   0.803   4.028  11.144  0.3708 -0.2577  0.0163
 4132TIP3    H133887   0.757   4.080  11.210 -0.2089  0.1336 -0.6896
 4132TIP3    H233888   0.735   3.970  11.108  0.4474  0.2389 -0.9458
 4133TIP3   OH233889   4.617   5.984  12.017  0.0084 -0.0577  0.3948
 4133TIP3    H133890   4.620   6.072  12.056 -0.2764 -0.7248  1.9427
 4133TIP3    H233891   4.708   5.955  12.016  0.2381  0.6422 -1.0659
 4134TIP3   OH233892   0.240   4.776  12.741 -0.4329 -0.6117  0.5389
 4134TIP3    H133893   0.241   4.712  12.813  1.5368  1.0100  2.0139
 4134TIP3    H233894   0.171   4.838  12.766 -0.5060 -0.6667  0.4723
 4135TIP3   OH233895   1.390   1.878  12.406 -0.3359  0.5420  0.6670
 4135TIP3    H133896   1.372   1.946  12.340 -0.6289 -1.0435 -0.9185
 4135TIP3    H233897   1.482   1.855  12.392 -0.3731  0.2642  0.8727
 4136TIP3   OH233898   5.817   2.145   3.873  0.0181  0.4573  0.5258
 4136TIP3    H133899   5.845   2.228   3.835 -0.2493  0.3808  0.1614
 4136TIP3    H233900   5.891   2.086   3.860  0.0109  0.4933  0.3261
 4137TIP3   OH233901   5.647   2.315   1.099  0.7843  0.5022  0.2729
 4137TIP3    H133902   5.583   2.375   1.060  1.2753  2.7110  2.7618
 4137TIP3    H233903   5.601   2.275   1.173  0.8983 -1.2372 -0.5642
 4138TIP3   OH233904   3.081   2.635   3.040  0.1087 -0.0122 -0.5781
 4138TIP3    H133905   3.104   2.558   3.092 -0.1846 -0.6017 -1.3194
 4138TIP3    H233906   3.134   2.627   2.961 -0.0415  0.4749 -0.7287
 4139TIP3   OH233907   1.612   0.600  14.310  0.4744  0.1018  0.1224
 4139TIP3    H133908   1.569   0.527  14.355  2.6582 -0.6199  1.1479
 4139TIP3    H233909   1.542   0.646  14.266 -1.2708 -1.2912  1.3633
 4140TIP3   OH233910   5.435   0.199   1.599  0.0912 -0.6397 -0.3838
 4140TIP3    H133911   5.516   0.237   1.565  0.7034  0.1698  1.9253
 4140TIP3    H233912   5.459   0.110   1.625  0.3620 -0.2381  0.7489
 4141TIP3   OH233913   5.059   5.365   5.854 -0.1604  0.1181  0.2297
 4141TIP3    H133914   5.012   5.364   5.937  0.5468  1.1510  0.6530
 4141TIP3    H233915   4.992   5.345   5.788 -0.8754  0.0472  0.9715
 4142TIP3   OH233916   3.154   3.424  16.441 -0.2901 -0.6400 -0.7033
 4142TIP3    H133917   3.116   3.420  16.353  0.6670 -2.1322 -1.0772
 4142TIP3    H233918   3.198   3.509  16.443 -2.2866  0.4243 -0.8059
 4143TIP3   OH233919   2.294   0.088   2.886  0.0939  0.0602  0.3020
 4143TIP3    H133920   2.372   0.131   2.921  0.5529 -1.8563  1.7096
 4143TIP3    H233921   2.320  -0.003   2.872 -1.9321 -0.6611  0.9624
 4144TIP3   OH233922   6.671   6.319  14.585 -0.0086 -0.3981 -0.3047
 4144TIP3    H133923   6.687   6.302  14.492 -0.1766  0.4607 -0.4911
 4144TIP3    H233924   6.754   6.355  14.617 -0.1571 -0.0892 -0.2672
 4145TIP3   OH233925   5.078   3.077  16.075  0.7106  0.2416  0.0076
 4145TIP3    H133926   5.115   3.166  16.079  1.0065  0.0986  0.4634
 4145TIP3    H233927   5.078   3.047  16.166  1.7691 -0.7013 -0.2861
 4146TIP3   OH233928   3.308   3.634   3.981 -0.1049  0.2173 -0.1544
 4146TIP3    H133929   3.403   3.644   3.973 -0.0428  0.8019  1.2638
 4146TIP3    H233930   3.294   3.539   3.987  0.2625  0.0427 -1.6784
 4147TIP3   OH233931   3.577   2.667  14.880  0.2931 -0.3440  0.1692
 4147TIP3    H133932   3.530   2.597  14.925 -0.1467 -1.2048 -1.5935
 4147TIP3    H233933   3.508   2.722  14.844  0.6400  0.6593  1.0088
 4148TIP3   OH233934   2.362   5.947   2.769 -0.6050  0.0897 -0.0285
 4148TIP3    H133935   2.334   5.862   2.802 -0.9060  0.5012  0.7771
 4148TIP3    H233936   2.346   5.943   2.675 -0.6383 -0.7362  0.0120
 4149TIP3   OH233937   3.213   3.599   2.103  0.7251  0.1247 -0.5282
 4149TIP3    H133938   3.301   3.617   2.069  1.0057 -1.8331 -0.9108
 4149TIP3    H233939   3.220   3.618   2.197  1.0256  1.7815 -0.8756
 4150TIP3   OH233940   3.157   3.501  15.968  0.5475 -0.3523 -0.1687
 4150TIP3    H133941   3.209   3.460  15.899  0.9469  0.9976 -0.6879
 4150TIP3    H233942   3.070   3.510  15.930  0.1181 -1.9068  0.4209
 4151TIP3   OH233943   4.006   2.263  11.375  0.0146 -0.2117  0.2570
 4151TIP3    H133944   3.959   2.183  11.396 -0.5427  0.0506  0.0315
 4151TIP3    H233945   4.097   2.236  11.364 -0.4833 -1.1740 -1.8545
 4152TIP3   OH233946   4.483   3.925  10.991 -0.3823 -0.3047  0.2897
 4152TIP3    H133947   4.445   3.904  10.905  1.4963  0.7892 -0.8398
 4152TIP3    H233948   4.431   3.999  11.022 -1.6096 -1.2265  0.5119
 4153TIP3   OH233949   2.410   5.959   7.199 -0.3834 -0.5468 -0.5025
 4153TIP3    H133950   2.487   5.960   7.143 -0.0385  1.3783 -0.0299
 4153TIP3    H233951   2.372   5.872   7.187  1.4197 -1.2287 -1.3270
 4154TIP3   OH233952   1.884   1.800   2.320 -0.1274  0.4837  0.5964
 4154TIP3    H133953   1.896   1.871   2.383 -1.6088  0.4944  0.8803
 4154TIP3    H233954   1.894   1.720   2.371 -1.2945  0.4923  0.8486
 4155TIP3   OH233955   3.506   6.222  13.194  0.1609 -0.3525  0.1318
 4155TIP3    H133956   3.501   6.316  13.214 -1.2960 -0.7273  1.6499
 4155TIP3    H233957   3.595   6.209  13.163  0.5830  1.4225  0.5279
 4156TIP3   OH233958   3.206   0.049   0.999 -0.5527 -0.4298  0.6046
 4156TIP3    H133959   3.177   0.088   0.917 -0.3367 -1.4168  0.0560
 4156TIP3    H233960   3.161   0.100   1.067  0.2099  1.1715 -0.0709
 4157TIP3   OH233961   4.521   0.076   3.489 -0.5306  0.2152  0.0943
 4157TIP3    H133962   4.577   0.074   3.411  0.3248  0.1281  0.7055
 4157TIP3    H233963   4.542  -0.005   3.535  0.4420  1.2032  1.4348
 4158TIP3   OH233964   2.698   4.151  16.555 -0.0465  0.0032  0.4105
 4158TIP3    H133965   2.630   4.096  16.593 -0.7228  0.7385  0.2866
 4158TIP3    H233966   2.780   4.103  16.570 -0.6448 -1.1273  0.1095
 4159TIP3   OH233967   3.017   1.342  11.812  0.3847  0.0060 -0.0044
 4159TIP3    H133968   2.971   1.355  11.728  0.9642 -3.3965 -0.9251
 4159TIP3    H233969   2.947   1.339  11.877 -0.2686  0.3826 -0.6767
 4160TIP3   OH233970   5.470   2.542   1.510  0.3231 -0.4753 -0.2214
 4160TIP3    H133971   5.534   2.505   1.450 -1.7156 -1.2002 -1.9925
 4160TIP3    H233972   5.501   2.631   1.527  0.6605 -0.0910 -2.7274
 4161TIP3   OH233973   0.939   0.918  16.440 -0.2724 -0.5415 -0.4549
 4161TIP3    H133974   1.022   0.937  16.484 -0.6288 -0.0465  0.0229
 4161TIP3    H233975   0.926   0.992  16.380 -0.1982 -0.7893 -0.7735
 4162TIP3   OH233976   3.911   5.214  11.886 -0.1622 -0.0140  0.2851
 4162TIP3    H133977   3.974   5.168  11.942  0.7582  0.2628 -0.5010
 4162TIP3    H233978   3.826   5.197  11.926  0.5216  0.4968  1.9844
 4163TIP3   OH233979   2.185   1.083   1.372 -0.0932 -0.3263 -0.1000
 4163TIP3    H133980   2.163   1.033   1.293 -0.9309 -0.8877  0.4775
 4163TIP3    H233981   2.121   1.053   1.437  0.4583  0.2937  0.7256
 4164TIP3   OH233982   1.786   5.713   1.782  0.2455  0.4103  0.2747
 4164TIP3    H133983   1.810   5.762   1.860 -1.4298  1.4148  0.1865
 4164TIP3    H233984   1.817   5.766   1.709  1.8250 -0.5356  0.2312
 4165TIP3   OH233985   3.076   0.402  10.907  0.1139 -0.6146 -0.0454
 4165TIP3    H133986   3.138   0.360  10.847 -0.4999 -0.9543 -0.4570
 4165TIP3    H233987   3.125   0.473  10.947  0.6626 -0.6588 -0.6281
 4166TIP3   OH233988   2.447   5.504  14.096  0.0223 -0.4733  0.1827
 4166TIP3    H133989   2.466   5.538  14.008 -1.0377  3.1949  1.2898
 4166TIP3    H233990   2.364   5.458  14.086 -0.2443  0.1734 -0.6815
 4167TIP3   OH233991   3.163   0.552  11.205 -0.0850 -0.2342 -0.4507
 4167TIP3    H133992   3.203   0.563  11.119  1.0722 -0.1171  0.0936
 4167TIP3    H233993   3.108   0.475  11.196  0.0872 -0.2650 -1.2748
 4168TIP3   OH233994   2.359   2.328   4.381  0.4303 -0.1169 -0.0559
 4168TIP3    H133995   2.285   2.270   4.398  0.7662 -0.8594 -1.0990
 4168TIP3    H233996   2.321   2.415   4.378 -0.4909 -0.5500 -1.1324
 4169TIP3   OH233997   3.000   1.282  15.615 -0.4000 -0.6095  0.5176
 4169TIP3    H133998   3.037   1.358  15.570 -3.0017 -0.1139 -0.8626
 4169TIP3    H233999   3.040   1.207  15.573  1.0006 -0.0538  0.8236
 4170TIP3   OH234000   5.564   1.742  16.100 -0.2713  0.3145 -0.2056
 4170TIP3    H134001   5.585   1.660  16.146 -0.8395  0.4675  0.3353
 4170TIP3    H234002   5.592   1.811  16.160 -0.7312  0.5153 -0.2238
 4171TIP3   OH234003   1.842   6.583  16.928  0.4369  0.2671  0.1663
 4171TIP3    H134004   1.902   6.529  16.876 -0.2937 -0.9951  0.6039
 4171TIP3    H234005   1.792   6.631  16.862  1.2191  0.5545 -0.2253
 4172TIP3   OH234006   6.798   0.433  14.211 -0.1697 -0.0743  0.2862
 4172TIP3    H134007   6.869   0.426  14.275 -1.7844 -1.0851  2.0063
 4172TIP3    H234008   6.720   0.453  14.263 -1.2193  0.7147 -1.5456
 4173TIP3   OH234009   5.252   6.027   6.391  0.1055  0.3804  0.1654
 4173TIP3    H134010   5.241   6.076   6.473 -1.1311  0.3005  0.0441
 4173TIP3    H234011   5.290   6.090   6.330  0.7774  0.5150  0.7121
 4174TIP3   OH234012   0.349   5.452  15.182 -0.4192 -0.0110  0.4537
 4174TIP3    H134013   0.388   5.509  15.247  2.4488 -1.8368  0.4311
 4174TIP3    H234014   0.365   5.496  15.098 -0.1962  0.2240  0.6197
 4175TIP3   OH234015   3.964   6.120  15.952  0.2944 -0.0321 -0.0882
 4175TIP3    H134016   3.950   6.027  15.970  3.2194 -0.7172 -1.1268
 4175TIP3    H234017   3.884   6.163  15.984 -0.2110 -2.6470  2.3435
 4176TIP3   OH234018   1.358   5.122   0.560  0.3233  0.4177  0.1236
 4176TIP3    H134019   1.438   5.150   0.516  0.0331  1.7333  0.4265
 4176TIP3    H234020   1.289   5.135   0.495  0.2806 -0.2559  0.0292
 4177TIP3   OH234021   3.633   3.262   3.930  0.4186 -0.4884 -0.0651
 4177TIP3    H134022   3.624   3.290   4.021 -1.2069 -0.3052 -0.2650
 4177TIP3    H234023   3.694   3.189   3.933  2.7306  1.4204  0.7964
 4178TIP3   OH234024   5.164   3.437  15.283  0.1879 -0.3246 -0.6373
 4178TIP3    H134025   5.162   3.478  15.196 -2.4220  0.8051 -0.0728
 4178TIP3    H234026   5.154   3.510  15.344  1.7008 -1.1523  0.6401
 4179TIP3   OH234027   1.016   2.960   4.474 -0.4168  0.3739  0.4889
 4179TIP3    H134028   0.972   3.018   4.536 -0.4333  0.7341  0.1438
 4179TIP3    H234029   1.060   2.895   4.528  0.9848  1.6812  0.9459
 4180TIP3   OH234030   2.134   5.611  11.375 -0.0311 -0.2036  0.0743
 4180TIP3    H134031   2.204   5.676  11.372  1.2587 -1.6096 -0.6264
 4180TIP3    H234032   2.154   5.550  11.304 -1.6717 -0.9329  0.2079
 4181TIP3   OH234033   0.926   4.958   4.724 -0.5440  0.0227  0.2689
 4181TIP3    H134034   0.950   5.016   4.652 -0.5091 -0.4515 -0.0983
 4181TIP3    H234035   1.009   4.927   4.759 -0.5840 -0.5261 -0.1186
 4182TIP3   OH234036   1.185   3.441  14.362  0.2406 -0.1306 -0.2617
 4182TIP3    H134037   1.138   3.493  14.428 -0.4592 -1.7575  0.5618
 4182TIP3    H234038   1.248   3.501  14.324 -0.6064  1.3386  0.6140
 4183TIP3   OH234039   6.041   0.999   1.512 -0.3649 -0.0295 -0.5563
 4183TIP3    H134040   6.030   1.017   1.605  1.0990 -0.4278 -0.2868
 4183TIP3    H234041   6.039   0.904   1.505  2.5329 -0.1426 -0.4836
 4184TIP3   OH234042   5.469   6.613  15.317 -0.3528  0.2126  0.0768
 4184TIP3    H134043   5.464   6.518  15.323 -0.6548  0.1870 -0.5084
 4184TIP3    H234044   5.405   6.636  15.250 -0.0476  0.8017 -0.0155
 4185TIP3   OH234045   4.978   0.795  15.887  0.3226  0.5170  0.2140
 4185TIP3    H134046   4.910   0.738  15.924 -0.4058 -0.1770 -2.1041
 4185TIP3    H234047   4.930   0.858  15.834  1.4393  0.3798 -0.9857
 4186TIP3   OH234048   0.706   6.053  14.124  0.0494  0.3581 -0.5106
 4186TIP3    H134049   0.708   5.996  14.201 -1.2251 -0.7325 -1.2696
 4186TIP3    H234050   0.712   6.141  14.160  0.3930 -0.1788  0.7817
 4187TIP3   OH234051   5.763   4.091  11.970  0.1862  0.0629  0.2808
 4187TIP3    H134052   5.717   4.106  12.053  0.1445  0.0245  0.2644
 4187TIP3    H234053   5.710   4.136  11.905  0.5999  0.6879  0.3762
 4188TIP3   OH234054   4.293   3.485  14.293 -0.1824 -0.0375  0.3302
 4188TIP3    H134055   4.335   3.481  14.379  2.6161 -2.1065 -1.0338
 4188TIP3    H234056   4.206   3.448  14.307  0.8306 -1.9576  1.9840
 4189TIP3   OH234057   6.720   3.731  16.009  0.6086 -0.0043  0.1384
 4189TIP3    H134058   6.644   3.777  16.044  0.4880 -1.2886  1.5650
 4189TIP3    H234059   6.725   3.649  16.058  1.6703 -0.8954 -1.3974
 4190TIP3   OH234060   2.062   3.439   5.043 -0.5377 -0.4885  0.2790
 4190TIP3    H134061   2.146   3.422   5.002  0.1394  0.8968  1.0613
 4190TIP3    H234062   2.000   3.381   4.997  0.6963 -0.9770 -0.7802
 4191TIP3   OH234063   5.199   6.114   2.164 -0.2267  0.1967  0.1636
 4191TIP3    H134064   5.175   6.195   2.209  1.4975  0.0569  1.3666
 4191TIP3    H234065   5.218   6.142   2.074 -1.3003  0.8556  0.1319
 4192TIP3   OH234066   6.676   5.940   1.721  0.0617  0.1019 -0.3624
 4192TIP3    H134067   6.617   5.865   1.718 -1.4862  1.3534 -2.5743
 4192TIP3    H234068   6.763   5.901   1.729 -0.8305 -1.8570  0.2313
 4193TIP3   OH234069   3.929   3.022   6.215  0.3981  0.2947  0.1916
 4193TIP3    H134070   3.876   2.943   6.226  0.2576  0.5700  1.5928
 4193TIP3    H234071   3.869   3.094   6.239  1.0108  0.6969  0.5230
 4194TIP3   OH234072   1.417   5.646  16.107 -0.0016 -0.2749 -0.4978
 4194TIP3    H134073   1.432   5.554  16.129  0.4302  0.1803  1.1811
 4194TIP3    H234074   1.458   5.657  16.021  0.7860 -1.4192 -0.2791
 4195TIP3   OH234075   1.353   1.515   0.779  0.1779 -0.0509 -0.1218
 4195TIP3    H134076   1.283   1.450   0.770  1.5298 -1.8872  2.0661
 4195TIP3    H234077   1.413   1.497   0.706 -0.4661  0.0597 -0.6794
 4196TIP3   OH234078   2.565   4.447   3.900 -0.4646 -0.3452 -0.1586
 4196TIP3    H134079   2.615   4.369   3.878 -0.5345  0.0603 -1.8224
 4196TIP3    H234080   2.484   4.414   3.939  0.2549 -1.0469  0.7682
 4197TIP3   OH234081   6.347   1.994   5.527 -0.4305 -0.3309 -0.0649
 4197TIP3    H134082   6.293   2.073   5.530  2.3807  1.6223  1.2663
 4197TIP3    H234083   6.349   1.962   5.617 -0.3558 -1.0791 -0.3260
 4198TIP3   OH234084   5.957   3.919  13.160  0.1157  0.2637 -0.4937
 4198TIP3    H134085   5.926   4.010  13.166 -0.5431 -0.0474  1.1192
 4198TIP3    H234086   6.008   3.906  13.240  1.1223 -0.4607 -1.2415
 4199TIP3   OH234087   4.768   0.450   4.219  0.1543 -0.5465 -0.0724
 4199TIP3    H134088   4.732   0.538   4.232 -0.2827 -0.4283 -1.9865
 4199TIP3    H234089   4.862   0.464   4.212  0.0566 -0.1812 -0.7151
 4200TIP3   OH234090   3.726   3.806  14.807  0.9330  0.1962 -0.3113
 4200TIP3    H134091   3.687   3.859  14.737 -0.3397  1.8498  1.5901
 4200TIP3    H234092   3.820   3.817  14.795  0.7043  2.7949 -0.0837
 4201TIP3   OH234093   6.603   1.942  16.130  0.4123  0.5378 -0.3965
 4201TIP3    H134094   6.683   1.994  16.129  0.2470  0.8248  0.8780
 4201TIP3    H234095   6.592   1.915  16.039  2.4420 -0.2695 -0.4298
 4202TIP3   OH234096   4.758   5.306  13.949 -0.0588  0.0884  0.4949
 4202TIP3    H134097   4.669   5.279  13.972  0.0651 -0.4893  0.2905
 4202TIP3    H234098   4.776   5.261  13.867 -0.2533  1.6216 -0.4034
 4203TIP3   OH234099   5.703   0.989  16.797  0.0798  0.1598  0.5944
 4203TIP3    H134100   5.707   1.070  16.848 -1.5278  0.2286  0.6384
 4203TIP3    H234101   5.688   1.018  16.707  0.1502 -0.0623  0.5100
 4204TIP3   OH234102   1.302   1.781  13.594 -0.2432 -0.2767 -0.1632
 4204TIP3    H134103   1.336   1.870  13.592 -2.3173  0.5999  1.6438
 4204TIP3    H234104   1.375   1.727  13.625  0.4856  1.0549  0.4622
 4205TIP3   OH234105   5.843   5.192  16.746  0.3890  0.0765 -0.0536
 4205TIP3    H134106   5.799   5.217  16.665  0.4103 -1.0673 -0.4216
 4205TIP3    H234107   5.784   5.129  16.787  0.7850 -0.0088  0.3859
 4206TIP3   OH234108   1.495   1.526  17.225 -1.0857  0.8324  0.2167
 4206TIP3    H134109   1.455   1.480  17.151  1.1401 -0.6808 -0.1032
 4206TIP3    H234110   1.520   1.456  17.286  2.3336  1.5532 -0.2459
 4207TIP3   OH234111   4.419   0.589   3.545  0.1265 -0.9416 -0.1062
 4207TIP3    H134112   4.426   0.512   3.489  0.7764 -1.2274  0.3616
 4207TIP3    H234113   4.325   0.608   3.550 -0.3664 -3.7753  2.6163
 4208TIP3   OH234114   2.320   0.045  10.683  0.8117 -0.0128 -0.4306
 4208TIP3    H134115   2.307   0.134  10.652 -2.1754 -0.4734 -0.6643
 4208TIP3    H234116   2.367   0.001  10.612  0.2291  0.7764 -1.3161
 4209TIP3   OH234117   5.760   3.358   2.860  0.0717  0.2486  0.8172
 4209TIP3    H134118   5.818   3.288   2.891 -1.5069 -0.1137  3.0549
 4209TIP3    H234119   5.776   3.430   2.920  1.9806  2.0354 -1.7152
 4210TIP3   OH234120   2.970   1.569   2.044 -0.4422 -0.4336 -0.0944
 4210TIP3    H134121   3.009   1.623   1.975 -1.5978 -1.2371 -1.3996
 4210TIP3    H234122   2.895   1.619   2.074 -1.1223 -1.0109 -0.8350
 4211TIP3   OH234123   0.739   4.902  14.156  0.2410  0.3180  0.0558
 4211TIP3    H134124   0.653   4.860  14.153 -0.0978  1.0876 -1.7547
 4211TIP3    H234125   0.722   4.989  14.190  0.3853  0.3037  0.1676
 4212TIP3   OH234126   1.149   1.553   6.535 -0.6735  0.4990 -0.6316
 4212TIP3    H134127   1.142   1.643   6.565  0.1993  0.8331 -1.3969
 4212TIP3    H234128   1.184   1.505   6.609  1.2036  1.2627 -0.9995
 4213TIP3   OH234129   3.559   0.803  11.699 -0.2259 -0.0950 -0.0122
 4213TIP3    H134130   3.529   0.713  11.712 -2.4153  0.2161 -2.5561
 4213TIP3    H234131   3.479   0.854  11.691  1.0002  1.7962 -0.6172
 4214TIP3   OH234132   6.658   5.283   1.238  0.7258  0.0211  0.2575
 4214TIP3    H134133   6.729   5.224   1.262  0.4690 -0.6379 -0.5780
 4214TIP3    H234134   6.702   5.359   1.201  1.0308 -0.0338  0.5041
 4215TIP3   OH234135   4.301   2.964   1.070  0.9893  0.0851  0.4445
 4215TIP3    H134136   4.340   2.900   1.010  0.2285 -1.7708  1.9045
 4215TIP3    H234137   4.254   3.025   1.012  1.7366 -0.6368 -0.9616
 4216TIP3   OH234138   1.283   6.761   5.098 -0.1668  0.1663 -0.6056
 4216TIP3    H134139   1.329   6.746   5.181 -0.5592 -1.1910 -0.6344
 4216TIP3    H234140   1.240   6.846   5.111 -0.4242 -0.1455  0.6754
 4217TIP3   OH234141   5.276   5.711   4.376 -0.0744 -0.3319 -0.7364
 4217TIP3    H134142   5.364   5.739   4.351 -0.1556 -1.0808 -1.9289
 4217TIP3    H234143   5.252   5.767   4.450  1.5282 -0.3584 -0.1941
 4218TIP3   OH234144   5.315   0.891   2.741 -0.1593 -0.5698  0.6279
 4218TIP3    H134145   5.363   0.872   2.660 -0.2343 -0.1935  0.4970
 4218TIP3    H234146   5.335   0.817   2.798 -0.0687 -0.8143  0.2825
 4219TIP3   OH234147   1.318   6.289   2.882  0.5120 -0.3301  0.0868
 4219TIP3    H134148   1.361   6.219   2.930  0.1679 -0.0805  0.7675
 4219TIP3    H234149   1.253   6.325   2.944  1.4327  1.2921  0.1524
 4220TIP3   OH234150   1.282   6.311   0.776 -0.1967  0.5735  0.0509
 4220TIP3    H134151   1.288   6.253   0.700 -1.1620  0.3083  0.1667
 4220TIP3    H234152   1.362   6.363   0.774  1.6614 -2.1524  1.1052
 4221TIP3   OH234153   1.903   5.871   4.564  0.5283 -0.3946  0.1625
 4221TIP3    H134154   1.955   5.896   4.640  0.2393 -0.7795  0.4880
 4221TIP3    H234155   1.967   5.837   4.501  0.7773  0.0277  0.1870
 4222TIP3   OH234156   4.673   1.945   4.404 -0.3868  0.4288 -0.1331
 4222TIP3    H134157   4.675   2.030   4.359 -1.8868  0.5970  0.1109
 4222TIP3    H234158   4.594   1.902   4.372 -0.6225 -0.1090  1.1473
 4223TIP3   OH234159   3.158   6.334  12.362 -0.1664  0.2494  0.5840
 4223TIP3    H134160   3.238   6.356  12.315 -0.1629 -0.0587  0.4403
 4223TIP3    H234161   3.167   6.241  12.382 -0.0365  0.4525  1.4638
 4224TIP3   OH234162   6.405   5.600  11.685  0.3599 -0.2438  0.2913
 4224TIP3    H134163   6.475   5.665  11.686  1.3902 -1.3473  1.1417
 4224TIP3    H234164   6.325   5.651  11.674  1.1484  1.1692  1.0101
 4225TIP3   OH234165   4.957   5.564  15.104  0.0073  0.3080  0.2698
 4225TIP3    H134166   5.003   5.600  15.180  0.7109 -0.1517  0.0631
 4225TIP3    H234167   5.024   5.553  15.037 -0.6119  0.7294 -0.4401
 4226TIP3   OH234168   0.862   3.326   3.183  0.0638  0.3272 -0.1306
 4226TIP3    H134169   0.906   3.406   3.154  0.7496  0.6613  1.8144
 4226TIP3    H234170   0.780   3.356   3.220 -0.3071 -0.0076 -0.6695
 4227TIP3   OH234171   3.273   0.888   6.332 -0.0567 -0.1664  0.2978
 4227TIP3    H134172   3.366   0.865   6.331  0.3170  1.2013  1.9906
 4227TIP3    H234173   3.260   0.932   6.416 -1.3602  3.1505 -1.5435
 4228TIP3   OH234174   4.376   3.887  12.272  0.1994  0.2728  0.1890
 4228TIP3    H134175   4.406   3.977  12.261 -0.5114  0.4869 -0.0150
 4228TIP3    H234176   4.339   3.863  12.187  2.6051 -1.0647 -0.5468
 4229TIP3   OH234177   0.369   5.235  15.533 -0.4876  0.6336  0.1516
 4229TIP3    H134178   0.304   5.264  15.469 -1.3767 -1.2712  0.1476
 4229TIP3    H234179   0.385   5.311  15.588 -3.1789  0.9587  0.5145
 4230TIP3   OH234180   4.860   2.175  13.924 -0.2847  0.1221 -0.0107
 4230TIP3    H134181   4.861   2.142  13.834  0.2842  1.9176 -0.6905
 4230TIP3    H234182   4.856   2.270  13.914  0.1030  0.3476  1.8625
 4231TIP3   OH234183   6.259   2.136   3.282  0.0626  0.2589 -0.1282
 4231TIP3    H134184   6.170   2.102   3.294  0.1452  0.1807  0.2787
 4231TIP3    H234185   6.264   2.157   3.189 -0.7384  1.2459  0.0381
 4232TIP3   OH234186   3.504   2.884   0.759  0.7459 -0.3879  0.1138
 4232TIP3    H134187   3.485   2.968   0.802 -0.0169 -1.3476  1.6739
 4232TIP3    H234188   3.479   2.818   0.823  2.6183 -1.8100 -0.5789
 4233TIP3   OH234189   4.207   0.053  13.138  0.6836 -0.5449  0.2183
 4233TIP3    H134190   4.264   0.085  13.068  0.3180 -0.0864  0.1285
 4233TIP3    H234191   4.258   0.063  13.218  0.7296 -0.1479  0.1363
 4234TIP3   OH234192   3.672   3.556  14.700 -0.0268  0.0640 -0.2855
 4234TIP3    H134193   3.682   3.651  14.710 -0.3430  0.2788 -2.0224
 4234TIP3    H234194   3.710   3.536  14.615 -0.5376 -1.2902 -0.2085
 4235TIP3   OH234195   5.335   3.856  12.767 -0.0771  0.4124 -0.1248
 4235TIP3    H134196   5.313   3.940  12.806 -2.4892 -0.5136  0.6229
 4235TIP3    H234197   5.379   3.808  12.838 -1.4236 -0.0318  0.4344
 4236TIP3   OH234198   3.348   0.123  16.313 -0.2437  0.2187  0.4718
 4236TIP3    H134199   3.275   0.158  16.364 -0.7032 -3.6375  2.6277
 4236TIP3    H234200   3.423   0.175  16.340 -1.8616  3.3462 -0.7703
 4237TIP3   OH234201   5.593   6.397   4.746 -0.4909 -0.4620 -0.0998
 4237TIP3    H134202   5.586   6.388   4.651 -1.5426  0.5611 -0.1359
 4237TIP3    H234203   5.510   6.364   4.779 -0.2281 -0.5694  0.4528
 4238TIP3   OH234204   1.512   1.871   1.407 -0.2911 -0.2383  0.2537
 4238TIP3    H134205   1.527   1.812   1.481  0.4115  1.0388  1.1428
 4238TIP3    H234206   1.561   1.832   1.335 -0.6131 -1.2521  0.5665
 4239TIP3   OH234207   5.118   0.574   3.110  0.2554  0.7595  0.0461
 4239TIP3    H134208   5.061   0.514   3.158  1.5129 -1.6813 -1.4483
 4239TIP3    H234209   5.166   0.622   3.179 -1.8017  1.1411  1.2613
 4240TIP3   OH234210   4.359   5.468  13.775  0.0728 -0.2594 -0.1849
 4240TIP3    H134211   4.288   5.423  13.730  0.7977 -0.8052 -0.7967
 4240TIP3    H234212   4.391   5.404  13.839 -0.5899  0.3165  0.7388
 4241TIP3   OH234213   0.685   4.409  10.548  0.2909  0.2006  0.3042
 4241TIP3    H134214   0.712   4.497  10.575 -0.4260  0.9153 -1.2561
 4241TIP3    H234215   0.766   4.358  10.548  1.0851  1.4424 -0.9578
 4242TIP3   OH234216   0.462   2.406  12.646 -0.3850 -0.3276  0.9863
 4242TIP3    H134217   0.442   2.475  12.584  0.5480 -1.7325 -0.9517
 4242TIP3    H234218   0.378   2.365  12.665 -0.7624  0.5213  1.1756
 4243TIP3   OH234219   0.687   0.644   0.669 -0.4214 -0.3197  0.4722
 4243TIP3    H134220   0.596   0.639   0.699 -1.0450 -0.3638 -1.3430
 4243TIP3    H234221   0.686   0.601   0.583  1.3397 -0.4197  0.4902
 4244TIP3   OH234222   6.805   2.651  16.857  0.2531  0.1978  0.5779
 4244TIP3    H134223   6.771   2.578  16.908  1.0818  0.9099  2.1677
 4244TIP3    H234224   6.860   2.700  16.918  1.7989  0.7003 -1.1705
 4245TIP3   OH234225   5.236   0.808  14.243 -0.7840  0.2706 -0.1230
 4245TIP3    H134226   5.198   0.744  14.303  1.2024  0.4199  1.3539
 4245TIP3    H234227   5.195   0.891  14.268 -0.4895  0.2141  0.5551
 4246TIP3   OH234228   5.804   2.208   2.510 -0.1905 -0.0445 -0.2697
 4246TIP3    H134229   5.839   2.184   2.596  0.9471  1.5064 -0.2730
 4246TIP3    H234230   5.711   2.223   2.525 -0.0528 -0.0456  0.6434
 4247TIP3   OH234231   3.630   2.684  13.169 -0.5066 -0.7495  0.4598
 4247TIP3    H134232   3.638   2.623  13.096 -1.8603 -1.5666  0.9756
 4247TIP3    H234233   3.697   2.656  13.231 -0.3509 -0.9851  0.1871
 4248TIP3   OH234234   2.181   0.045   3.365 -0.1989  0.0627  0.3917
 4248TIP3    H134235   2.185  -0.031   3.423  0.4831 -0.2777 -0.0997
 4248TIP3    H234236   2.180   0.009   3.277 -0.5011  0.6033  0.1708
 4249TIP3   OH234237   3.526   1.417   4.528  0.3936  0.8635  0.0989
 4249TIP3    H134238   3.588   1.352   4.494 -0.9653 -0.1192 -0.5300
 4249TIP3    H234239   3.513   1.392   4.619 -1.9405 -1.2349 -0.7433
 4250TIP3   OH234240   3.098   2.628  11.191 -0.2272  0.1518 -0.2636
 4250TIP3    H134241   3.171   2.607  11.133  0.6937  2.7149 -0.0770
 4250TIP3    H234242   3.034   2.670  11.135 -0.9433 -0.7617 -0.1352
 4251TIP3   OH234243   6.667   4.898  11.523  0.2403  0.1741  0.6529
 4251TIP3    H134244   6.577   4.877  11.495 -0.4054 -0.0892  2.8466
 4251TIP3    H234245   6.697   4.819  11.568  1.2026  0.6359  0.8366
 4252TIP3   OH234246   4.779   3.579   4.535 -0.1533 -0.1126 -0.4310
 4252TIP3    H134247   4.746   3.531   4.611 -2.2046 -1.0447 -1.8643
 4252TIP3    H234248   4.818   3.658   4.572  1.8418 -2.0759  1.8437
 4253TIP3   OH234249   5.936   5.773  14.804 -0.1582 -0.0969  0.1347
 4253TIP3    H134250   5.977   5.769  14.890  0.4625  2.1355 -0.0222
 4253TIP3    H234251   6.007   5.796  14.744 -1.3450  2.5705 -0.3242
 4254TIP3   OH234252   5.417   0.810   3.164  0.0839 -0.0031  0.5145
 4254TIP3    H134253   5.402   0.749   3.092 -0.4980  0.1783  0.4750
 4254TIP3    H234254   5.339   0.800   3.220  0.2320  0.3198  0.7796
 4255TIP3   OH234255   2.397   2.440  10.968 -0.0627  0.0403  0.1226
 4255TIP3    H134256   2.324   2.407  11.020  0.2435  1.1381  1.2616
 4255TIP3    H234257   2.445   2.361  10.942  0.1354 -0.4969  2.0425
 4256TIP3   OH234258   6.639   1.595  12.339  0.0775  0.1236 -0.1020
 4256TIP3    H134259   6.575   1.539  12.295  0.5972  0.3666 -1.1671
 4256TIP3    H234260   6.687   1.536  12.397 -0.9158 -0.1130  0.4992
 4257TIP3   OH234261   1.550   1.347   0.967  0.4244 -0.8456  0.2866
 4257TIP3    H134262   1.619   1.400   1.007 -0.0001 -0.2549  0.2421
 4257TIP3    H234263   1.596   1.293   0.903  0.5526  1.2431 -1.4524
 4258TIP3   OH234264   4.732   3.223  16.690 -0.3057  0.0079 -0.5536
 4258TIP3    H134265   4.728   3.127  16.689  0.2220 -0.0477 -3.9376
 4258TIP3    H234266   4.815   3.243  16.734 -1.2294 -1.0031  1.7298
 4259TIP3   OH234267   2.792   6.546   4.849 -0.2700  0.5020  0.6176
 4259TIP3    H134268   2.706   6.552   4.808 -0.8847 -0.2883  1.7645
 4259TIP3    H234269   2.777   6.497   4.929  1.0366  1.4119  1.4418
 4260TIP3   OH234270   1.693   1.226   5.254 -0.4042  0.1487  0.1361
 4260TIP3    H134271   1.644   1.170   5.194 -0.8744 -0.8950  1.4569
 4260TIP3    H234272   1.709   1.170   5.331  1.0999  1.1169  0.5526
 4261TIP3   OH234273   1.456   5.761   4.395  0.8531  0.3848  0.8261
 4261TIP3    H134274   1.505   5.807   4.464 -0.3696  2.4612  0.3527
 4261TIP3    H234275   1.421   5.831   4.340  1.7002 -1.2615 -1.8513
 4262TIP3   OH234276   3.076   3.869  15.448  0.1578 -0.4816  0.0862
 4262TIP3    H134277   3.062   3.792  15.393  1.3234 -2.2172  2.1422
 4262TIP3    H234278   3.155   3.849  15.498  0.4749  2.0558  0.6905
 4263TIP3   OH234279   4.056   1.616  12.163 -0.3045  0.0365 -0.0384
 4263TIP3    H134280   3.982   1.676  12.167 -2.6640 -2.6532 -1.5142
 4263TIP3    H234281   4.058   1.574  12.249  1.1394  1.8628  0.8767
 4264TIP3   OH234282   4.613   3.547  16.854  0.2791 -0.7270 -0.4994
 4264TIP3    H134283   4.576   3.472  16.900 -1.3997  0.1896 -0.3492
 4264TIP3    H234284   4.670   3.589  16.919  1.4366 -1.9933 -0.6621
 4265TIP3   OH234285   1.852   1.497   2.824  0.6457  0.0936 -0.1048
 4265TIP3    H134286   1.930   1.443   2.831  0.6589  0.2427  0.8850
 4265TIP3    H234287   1.875   1.579   2.867  0.3241  0.5636 -0.8088
 4266TIP3   OH234288   3.493   2.724  13.714 -0.1156 -0.0561 -0.3182
 4266TIP3    H134289   3.554   2.732  13.642  0.9635  0.5178  0.6411
 4266TIP3    H234290   3.422   2.784  13.693  0.4990  0.5760 -0.6129
 4267TIP3   OH234291   3.957   6.504   1.823 -0.0936  0.7299 -0.0561
 4267TIP3    H134292   3.955   6.496   1.918  0.1478 -1.9268 -0.2391
 4267TIP3    H234293   3.895   6.574   1.803  0.1270  1.5558  2.0629
 4268TIP3   OH234294   0.720   5.886   5.509 -0.2047  0.3388  0.5392
 4268TIP3    H134295   0.778   5.934   5.450 -1.7320  1.1781 -0.3080
 4268TIP3    H234296   0.778   5.826   5.556  1.2450  0.6676 -0.7916
 4269TIP3   OH234297   6.657   0.233   1.830 -0.5476  0.4134  0.0151
 4269TIP3    H134298   6.700   0.215   1.913  0.9047 -1.3250 -1.0584
 4269TIP3    H234299   6.563   0.220   1.848 -0.1278 -1.3088  1.0645
 4270TIP3   OH234300   0.003   5.255  12.011  0.2502  0.7695 -0.1378
 4270TIP3    H134301  -0.071   5.217  11.965  0.5953 -0.6735  0.4903
 4270TIP3    H234302  -0.037   5.309  12.080 -0.2083 -0.3880  0.5076
 4271TIP3   OH234303   4.293   6.638   1.803  0.5014 -0.2226 -0.2220
 4271TIP3    H134304   4.302   6.692   1.882  2.8010 -1.8996  0.6809
 4271TIP3    H234305   4.341   6.686   1.736  0.6572 -0.0386  0.0195
 4272TIP3   OH234306   4.376   2.895   3.022  0.1920 -0.3983  0.8260
 4272TIP3    H134307   4.290   2.937   3.036  1.4961  2.9662 -0.6589
 4272TIP3    H234308   4.384   2.888   2.927  1.5244 -0.8074  0.9583
 4273TIP3   OH234309   0.742   0.704   1.607 -0.0201  0.3586  0.6247
 4273TIP3    H134310   0.670   0.753   1.646 -0.3805  0.1831  0.1899
 4273TIP3    H234311   0.744   0.733   1.516  0.5037  0.4106  0.6522
 4274TIP3   OH234312   4.082   5.459  11.552 -0.2395 -0.1401  0.2688
 4274TIP3    H134313   4.114   5.545  11.526 -1.9943  0.6403  0.5573
 4274TIP3    H234314   4.016   5.478  11.619 -0.4762 -1.7138  0.4988
 4275TIP3   OH234315   0.766   1.809  13.078 -0.6760  0.1564  0.4913
 4275TIP3    H134316   0.779   1.734  13.019  2.1641  2.6841 -2.2265
 4275TIP3    H234317   0.840   1.804  13.139 -1.1664  0.0898  1.0875
 4276TIP3   OH234318   2.193   4.686  15.145 -0.0865  0.0927 -0.0088
 4276TIP3    H134319   2.101   4.709  15.159 -0.6514 -1.4837 -1.0877
 4276TIP3    H234320   2.237   4.719  15.224 -1.8644 -0.8129  1.4169
 4277TIP3   OH234321   1.727   3.588   3.755 -0.0409 -0.3869  0.7435
 4277TIP3    H134322   1.776   3.667   3.776 -2.0698  0.9865  0.4298
 4277TIP3    H234323   1.665   3.578   3.827 -2.0430  0.2131 -0.8463
 4278TIP3   OH234324   4.253   0.047  17.020  0.2044  0.0971  0.2735
 4278TIP3    H134325   4.189   0.032  17.089  0.4448  0.6084  0.6085
 4278TIP3    H234326   4.201   0.050  16.940 -0.0863 -0.3970  0.4383
 4279TIP3   OH234327   4.438   6.225  16.878  0.2906 -0.0499  0.4191
 4279TIP3    H134328   4.513   6.274  16.912  1.6190 -0.4928 -1.7571
 4279TIP3    H234329   4.454   6.220  16.783 -2.8724  0.4814 -0.1847
 4280TIP3   OH234330   0.840   2.736  13.538 -0.2472  0.0764  0.3474
 4280TIP3    H134331   0.847   2.760  13.630  0.8974 -3.7575  1.3682
 4280TIP3    H234332   0.772   2.668  13.537 -0.5870  0.4298 -1.7011
 4281TIP3   OH234333   5.111   1.603  12.856 -0.2464 -0.2945 -0.1944
 4281TIP3    H134334   5.126   1.675  12.794 -0.0814 -0.3546 -0.2223
 4281TIP3    H234335   5.046   1.638  12.917 -1.5036 -0.7261 -1.2586
 4282TIP3   OH234336   6.528   1.217  11.681  0.1806  0.0277 -0.2717
 4282TIP3    H134337   6.497   1.160  11.611  1.1827 -0.3886 -0.3816
 4282TIP3    H234338   6.498   1.304  11.656 -0.1217 -0.2329 -0.8246
 4283TIP3   OH234339   2.087   5.732   4.392 -0.1431  0.6003  0.1739
 4283TIP3    H134340   2.175   5.759   4.367 -0.2321 -0.9235 -1.9364
 4283TIP3    H234341   2.101   5.668   4.462  0.4750 -0.0988 -0.5738
 4284TIP3   OH234342   4.157   2.188  15.466 -0.3314 -0.0339 -0.0380
 4284TIP3    H134343   4.072   2.199  15.426 -0.6751 -0.6112  0.5097
 4284TIP3    H234344   4.206   2.133  15.405 -0.8694 -0.9548  0.3416
 4285TIP3   OH234345   4.202   6.533   2.277 -0.0338  0.6917 -0.1664
 4285TIP3    H134346   4.292   6.533   2.245  0.1848 -0.4420  0.4187
 4285TIP3    H234347   4.201   6.467   2.346 -1.4682  0.2494 -0.5914
 4286TIP3   OH234348   4.596   4.385   5.167  0.1034  0.1970  0.1395
 4286TIP3    H134349   4.610   4.469   5.122  1.1660  0.1762  0.4333
 4286TIP3    H234350   4.598   4.320   5.097  0.2091  0.3186  0.0305
 4287TIP3   OH234351   2.298   2.632  16.110 -0.0872 -0.2434  0.1029
 4287TIP3    H134352   2.235   2.612  16.180 -0.3716  1.5350  0.3677
 4287TIP3    H234353   2.382   2.636  16.154 -0.2824  0.9931  0.3616
 4288TIP3   OH234354   5.788   3.135   4.424  0.3857  0.0104 -0.2780
 4288TIP3    H134355   5.728   3.209   4.414  1.6981  0.9848 -1.1846
 4288TIP3    H234356   5.841   3.157   4.501 -1.1262 -1.3748  1.1961
 4289TIP3   OH234357   2.577   0.148  16.579  0.1816 -0.5187 -0.2863
 4289TIP3    H134358   2.558   0.087  16.508  0.1356 -0.1012 -0.6342
 4289TIP3    H234359   2.642   0.208  16.542 -1.1216  0.7588 -0.5387
 4290TIP3   OH234360   5.701   4.119  12.432 -0.2015 -0.6461 -0.2025
 4290TIP3    H134361   5.619   4.106  12.383  0.9297  1.2894 -2.7212
 4290TIP3    H234362   5.768   4.123  12.364  1.7783 -0.3506  1.7275
 4291TIP3   OH234363   4.535   0.917   2.970 -0.1928  0.0214  0.4067
 4291TIP3    H134364   4.566   0.969   3.044 -1.3114 -1.4927  1.9734
 4291TIP3    H234365   4.552   0.826   2.995  0.9171 -0.4466 -1.9153
 4292TIP3   OH234366   3.671   0.908  16.761 -0.6842 -0.6587 -0.2189
 4292TIP3    H134367   3.706   0.823  16.788  0.5017 -0.2880 -0.5891
 4292TIP3    H234368   3.681   0.964  16.838 -0.8592 -0.6712 -0.1864
 4293TIP3   OH234369   2.083   4.717   3.007 -0.3841  0.2461  0.1831
 4293TIP3    H134370   2.130   4.642   3.044 -0.8710  0.7646  1.8613
 4293TIP3    H234371   2.149   4.786   3.002  0.3593 -0.5635 -2.3952
 4294TIP3   OH234372   1.776   5.758  16.041 -0.1835  0.4641 -0.3198
 4294TIP3    H134373   1.751   5.685  15.985 -1.9514  0.0438  0.9904
 4294TIP3    H234374   1.738   5.835  15.998 -0.7371  0.2620 -0.1967
 4295TIP3   OH234375   0.612   6.587  11.585  0.3536 -1.0240  0.0389
 4295TIP3    H134376   0.640   6.616  11.671 -1.8834 -0.5122  0.6332
 4295TIP3    H234377   0.571   6.501  11.600  0.0219 -0.9688 -0.5274
 4296TIP3   OH234378   2.353   5.166   4.147 -0.0117  0.0856  0.8357
 4296TIP3    H134379   2.323   5.080   4.179  0.2976 -0.3278  0.0407
 4296TIP3    H234380   2.275   5.221   4.152 -0.3184 -0.3488  0.9745
 4297TIP3   OH234381   4.130   2.689  13.460  0.3001 -0.3808 -0.0344
 4297TIP3    H134382   4.190   2.707  13.387  1.9956 -1.3670  1.1002
 4297TIP3    H234383   4.160   2.607  13.497 -1.5471 -0.7127  0.7988
 4298TIP3   OH234384   6.812   4.829  16.119  0.5202 -0.0999 -0.3658
 4298TIP3    H134385   6.822   4.749  16.066 -0.3393  0.5903 -1.5904
 4298TIP3    H234386   6.753   4.884  16.068 -0.5109  0.4898  1.4292
 4299TIP3   OH234387   3.363   6.200  11.972 -0.1401 -0.3726  0.1537
 4299TIP3    H134388   3.339   6.287  11.940 -0.1288 -0.3796  0.1279
 4299TIP3    H234389   3.452   6.186  11.938 -1.3441 -1.7429 -2.5230
 4300TIP3   OH234390   2.355   6.357   6.042  0.0820 -0.1366 -0.3585
 4300TIP3    H134391   2.277   6.394   6.082 -0.0179  2.1299 -2.4872
 4300TIP3    H234392   2.426   6.416   6.068  0.4196 -0.0449 -1.4452
 4301TIP3   OH234393   6.570   3.651  11.480 -0.3583 -0.1390  0.2197
 4301TIP3    H134394   6.509   3.577  11.488 -0.9377  0.1375 -1.5780
 4301TIP3    H234395   6.540   3.699  11.404  1.8269  0.2998 -0.3997
 4302TIP3   OH234396   2.948   2.000   1.218 -0.4729  0.0209  0.2032
 4302TIP3    H134397   2.960   1.917   1.171  0.1332  0.1005  0.2091
 4302TIP3    H234398   3.035   2.040   1.219 -1.2052  1.7879 -1.9102
 4303TIP3   OH234399   2.414   0.032   3.900 -0.1048  0.0309 -0.1775
 4303TIP3    H134400   2.455   0.044   3.985  0.4020  0.1372 -0.4383
 4303TIP3    H234401   2.337  -0.023   3.918 -0.9585  1.4359  0.6028
 4304TIP3   OH234402   5.402   1.326  12.913 -0.1172  0.6879 -0.2558
 4304TIP3    H134403   5.318   1.345  12.872 -0.0709 -1.0997 -1.2085
 4304TIP3    H234404   5.381   1.271  12.988  0.1338  0.7502 -0.1386
 4305TIP3   OH234405   5.049   4.242   2.473  0.2519  0.1992  0.6352
 4305TIP3    H134406   5.073   4.195   2.552  1.6518 -0.1658  0.0009
 4305TIP3    H234407   4.990   4.183   2.426 -1.6192  0.9293  1.9908
 4306TIP3   OH234408   2.768   0.262   5.015 -0.5087 -0.3171  0.1530
 4306TIP3    H134409   2.836   0.197   4.995  0.8344  1.3051 -0.6835
 4306TIP3    H234410   2.789   0.291   5.104 -0.1019  0.1970 -0.1120
 4307TIP3   OH234411   6.490   6.008   4.039 -0.0353 -0.5630 -0.3708
 4307TIP3    H134412   6.525   6.026   4.126 -0.8075  0.6511 -0.2930
 4307TIP3    H234413   6.476   6.094   4.000  1.2961 -1.0889 -2.1233
 4308TIP3   OH234414   3.092   1.893  12.757  0.0462 -0.1839  0.1256
 4308TIP3    H134415   3.139   1.817  12.791 -0.0840 -0.5448 -0.5010
 4308TIP3    H234416   3.070   1.870  12.668  1.1228  1.0896 -0.4994
 4309TIP3   OH234417   1.777   0.194   3.969 -0.1559 -0.4458  0.2788
 4309TIP3    H134418   1.733   0.228   4.047 -1.3741 -0.1948 -0.5014
 4309TIP3    H234419   1.707   0.183   3.905  0.9173 -0.0776 -0.9785
 4310TIP3   OH234420   3.627   3.475  14.973  0.2465  0.3395  0.0212
 4310TIP3    H134421   3.641   3.516  14.887  2.4695 -0.9390 -0.2637
 4310TIP3    H234422   3.575   3.397  14.954  1.6206 -0.5138 -0.3415
 4311TIP3   OH234423   5.662   3.436   4.165 -0.1500  0.8973  0.3705
 4311TIP3    H134424   5.591   3.497   4.187 -1.0580 -0.6108  1.7224
 4311TIP3    H234425   5.674   3.384   4.244 -0.1057 -1.3818 -1.1007
 4312TIP3   OH234426   2.344   3.229   0.012  0.1858  0.3382  0.0636
 4312TIP3    H134427   2.407   3.214   0.082  0.1813  0.9366  0.1969
 4312TIP3    H234428   2.364   3.161  -0.053 -0.7450 -1.1390  1.2738
 4313TIP3   OH234429   2.028   3.821  15.963  0.1275  0.3151 -0.3313
 4313TIP3    H134430   1.972   3.843  16.037 -0.3933 -1.7240 -0.1080
 4313TIP3    H234431   2.073   3.903  15.942  0.5562  0.8303  2.4416
 4314TIP3   OH234432   5.536   3.324   0.758 -0.5835 -0.2236  0.1055
 4314TIP3    H134433   5.608   3.260   0.762  0.2931  0.8464  2.8031
 4314TIP3    H234434   5.580   3.409   0.754 -1.6776  0.4301  1.5377
 4315TIP3   OH234435   1.384   1.957   4.580 -0.7939 -0.1355 -0.2395
 4315TIP3    H134436   1.359   2.039   4.538 -2.6202 -0.9818 -0.8686
 4315TIP3    H234437   1.396   1.896   4.508 -0.7483 -0.7623  0.2988
 4316TIP3   OH234438   6.387   1.723   1.492  0.0519  0.3185 -0.0664
 4316TIP3    H134439   6.326   1.771   1.436  3.5601  1.1057 -3.4109
 4316TIP3    H234440   6.378   1.632   1.465 -1.6205 -0.0170  1.4786
 4317TIP3   OH234441   4.645   0.327   3.270 -0.3619 -0.0618  0.1281
 4317TIP3    H134442   4.550   0.321   3.266 -0.2533 -1.8355 -0.2683
 4317TIP3    H234443   4.670   0.376   3.191 -1.0504  2.0285  1.1847
 4318TIP3   OH234444   5.831   5.427   1.646 -0.3529  0.3100  0.2824
 4318TIP3    H134445   5.807   5.425   1.553 -0.6006  1.7861  0.2952
 4318TIP3    H234446   5.798   5.512   1.677  1.2815  0.5852  1.2981
 4319TIP3   OH234447   4.490   5.495   5.695  0.1445  0.4284 -1.0771
 4319TIP3    H134448   4.552   5.565   5.714  0.3324  0.1310 -0.5876
 4319TIP3    H234449   4.530   5.447   5.622  2.7649 -2.5338  2.1515
 4320TIP3   OH234450   5.424   4.675  15.612  0.1547 -0.2186  0.2448
 4320TIP3    H134451   5.508   4.695  15.570  0.1537  0.1998  0.4419
 4320TIP3    H234452   5.440   4.594  15.660  0.3778 -0.2711  0.0851
 4321TIP3   OH234453   5.168   5.153   3.439 -0.0897 -0.3759 -0.1235
 4321TIP3    H134454   5.261   5.142   3.455 -0.0649 -0.6617 -0.4678
 4321TIP3    H234455   5.125   5.101   3.507 -0.0212  1.2134  1.1593
 4322TIP3   OH234456   1.906   0.458   0.180  0.6460 -0.0186  0.3952
 4322TIP3    H134457   1.813   0.472   0.198  0.0702 -1.8984 -0.9692
 4322TIP3    H234458   1.951   0.526   0.231 -1.4884  1.2382  0.6565
 4323TIP3   OH234459   2.473   0.480  14.272 -0.1912 -0.0665  0.2384
 4323TIP3    H134460   2.502   0.483  14.181 -0.6645 -1.9667 -0.0017
 4323TIP3    H234461   2.400   0.541  14.276 -2.1912 -2.2404 -1.4523
 4324TIP3   OH234462   1.802   5.584  15.749 -0.2725 -0.5936  0.1632
 4324TIP3    H134463   1.828   5.569  15.658  0.1332 -1.2381  0.3856
 4324TIP3    H234464   1.842   5.669  15.771 -0.7594 -0.2132 -0.3993
 4325TIP3   OH234465   4.585   5.773  15.296  0.4777 -0.3138  0.2729
 4325TIP3    H134466   4.500   5.780  15.252  0.5176  0.5916  0.3254
 4325TIP3    H234467   4.564   5.785  15.389  0.2459 -3.3053  0.6572
 4326TIP3   OH234468   4.749   2.832  13.114 -0.1187  0.3909  0.5008
 4326TIP3    H134469   4.805   2.899  13.075  1.4750  0.3450  2.6290
 4326TIP3    H234470   4.663   2.874  13.121  0.3108  1.4153 -0.2966
 4327TIP3   OH234471   2.932   1.029  14.051 -0.1924  0.3323  0.8543
 4327TIP3    H134472   2.908   0.937  14.068 -0.0252 -0.5307 -3.1181
 4327TIP3    H234473   2.853   1.068  14.015  0.2384  1.2630  0.9166
 4328TIP3   OH234474   1.449   2.748  16.740  0.3291  0.1633  0.2550
 4328TIP3    H134475   1.366   2.708  16.717  1.4168 -0.7415 -2.2831
 4328TIP3    H234476   1.429   2.840  16.754 -0.9244  0.1486 -1.3946
 4329TIP3   OH234477   0.007   3.279  13.557 -0.0892  0.0522  0.4675
 4329TIP3    H134478   0.048   3.204  13.599 -0.8237 -1.9965 -2.3920
 4329TIP3    H234479   0.020   3.351  13.620 -0.1481 -2.5983  3.6524
 4330TIP3   OH234480   5.439   2.507  12.338 -0.3256 -0.6337  0.5898
 4330TIP3    H134481   5.458   2.417  12.311  0.1615 -0.0514 -1.0341
 4330TIP3    H234482   5.357   2.529  12.294  0.3899  0.2628 -0.3423
 4331TIP3   OH234483   2.577   3.317  11.525 -0.2670 -0.2495  1.4880
 4331TIP3    H134484   2.627   3.248  11.569 -0.5029 -1.5847 -0.2565
 4331TIP3    H234485   2.643   3.381  11.499  0.3971 -1.3316  0.4184
 4332TIP3   OH234486   2.916   3.520  13.630  0.1627 -0.0208  0.4237
 4332TIP3    H134487   2.887   3.540  13.719  0.3284  2.6035 -0.0682
 4332TIP3    H234488   2.856   3.570  13.574  1.6001  0.3060 -0.8505
 4333TIP3   OH234489   6.023   0.381  13.319 -0.1399  0.5205 -1.1374
 4333TIP3    H134490   6.059   0.292  13.319 -0.9852  0.1837 -0.3057
 4333TIP3    H234491   5.946   0.375  13.263 -2.6002 -0.2418  2.2307
 4334TIP3   OH234492   3.943   1.894   4.822  0.1277 -0.0571 -0.5739
 4334TIP3    H134493   3.933   1.820   4.882 -1.5143 -0.3238 -1.1258
 4334TIP3    H234494   3.907   1.862   4.739 -0.4379  1.2876 -0.8657
 4335TIP3   OH234495   0.426   3.454  14.313  0.4012 -1.0073 -0.1728
 4335TIP3    H134496   0.334   3.447  14.337  0.5298  0.7936  0.9687
 4335TIP3    H234497   0.462   3.367  14.332 -0.9283 -1.5548 -0.0846
 4336TIP3   OH234498   3.317   2.921   3.899  0.3915  0.1996  0.2623
 4336TIP3    H134499   3.362   2.876   3.828 -1.2632 -0.0349 -0.6711
 4336TIP3    H234500   3.292   3.006   3.863 -0.7518 -0.0516  0.4235
 4337TIP3   OH234501   4.601   2.736  13.519  0.0025 -0.5690 -0.1582
 4337TIP3    H134502   4.570   2.690  13.441 -0.3784  0.0395 -0.3671
 4337TIP3    H234503   4.587   2.674  13.591  2.3687 -1.9961 -0.8448
 4338TIP3   OH234504   1.830   3.068   1.922 -0.0629 -0.4404 -0.1734
 4338TIP3    H134505   1.879   2.986   1.929  0.3766 -0.2315 -0.7625
 4338TIP3    H234506   1.898   3.135   1.912 -0.4644 -0.1301 -0.8069
 4339TIP3   OH234507   5.136   1.007   0.777 -0.3984  0.2513 -0.2314
 4339TIP3    H134508   5.189   0.990   0.698 -1.1293  0.6833 -0.8278
 4339TIP3    H234509   5.112   1.100   0.769 -1.9219 -0.1464 -0.3849
 4340TIP3   OH234510   1.518   2.472   1.521 -0.3483 -0.1397 -0.1608
 4340TIP3    H134511   1.538   2.561   1.549  0.6956 -0.2297 -0.6143
 4340TIP3    H234512   1.484   2.429   1.599 -0.9734  0.6896  0.0306
 4341TIP3   OH234513   5.272   5.275   6.484  0.3235 -0.4501  1.4119
 4341TIP3    H134514   5.248   5.241   6.570 -0.7054 -2.3846  0.4050
 4341TIP3    H234515   5.189   5.275   6.435  0.9292  0.4713  0.3677
 4342TIP3   OH234516   4.589   4.964  10.756  0.1671  0.7199 -0.3353
 4342TIP3    H134517   4.671   4.918  10.740 -0.5315 -0.3231 -1.0281
 4342TIP3    H234518   4.545   4.912  10.823 -0.0274  1.1518 -0.1217
 4343TIP3   OH234519   5.290   4.089   2.297  0.3613 -0.5169 -0.2527
 4343TIP3    H134520   5.272   4.006   2.343  0.7408 -0.3702  0.1578
 4343TIP3    H234521   5.320   4.148   2.366 -0.2981  0.0877 -0.4807
 4344TIP3   OH234522   5.344   0.073   2.269  0.7876 -0.0066 -0.2818
 4344TIP3    H134523   5.322   0.106   2.356  2.3402  0.3089  0.0027
 4344TIP3    H234524   5.352   0.151   2.215  2.9790  0.0197  0.0438
 4345TIP3   OH234525   3.429   4.507  14.271  0.4530  0.1295  0.5720
 4345TIP3    H134526   3.443   4.578  14.334 -0.4921  0.6975  0.1562
 4345TIP3    H234527   3.399   4.434  14.325  0.5051  0.3396  0.8905
 4346TIP3   OH234528   6.799   0.741  15.189  0.1937  0.4185 -0.3224
 4346TIP3    H134529   6.845   0.696  15.119 -0.8734 -0.1753 -0.6368
 4346TIP3    H234530   6.730   0.681  15.216  1.1826  0.2230  1.8903
 4347TIP3   OH234531   2.775   2.184   2.266  0.0333 -0.3372 -0.5957
 4347TIP3    H134532   2.701   2.239   2.293  0.9435  0.5480  0.1360
 4347TIP3    H234533   2.744   2.140   2.187 -2.8249 -3.2612  2.0059
 4348TIP3   OH234534   3.957   0.027  13.947  0.3085 -0.7246  0.0322
 4348TIP3    H134535   3.995  -0.055  13.979 -0.7627 -1.3678 -0.3095
 4348TIP3    H234536   3.916   0.065  14.025  0.5477 -0.6658  0.1281
 4349TIP3   OH234537   3.794   1.613  16.482 -0.6633 -0.0244 -0.8556
 4349TIP3    H134538   3.820   1.698  16.517 -1.9611 -0.0107  0.0897
 4349TIP3    H234539   3.783   1.557  16.559 -1.4235 -0.5962 -1.3688
 4350TIP3   OH234540   5.344   3.976  16.180  0.1891  0.1598 -0.5617
 4350TIP3    H134541   5.343   3.902  16.241 -3.0509 -0.4460 -1.2489
 4350TIP3    H234542   5.317   3.939  16.096  0.0292  1.8435 -1.2813
 4351TIP3   OH234543   4.050   6.781   1.340  0.3741 -0.8498 -0.1544
 4351TIP3    H134544   4.090   6.843   1.279  0.7724  0.7619  1.6650
 4351TIP3    H234545   3.980   6.831   1.382 -1.8807 -2.8751 -1.4554
 4352TIP3   OH234546   1.385   2.880  12.056  0.4598 -0.2584 -0.4028
 4352TIP3    H134547   1.323   2.936  12.008 -2.4404 -1.6936  1.5644
 4352TIP3    H234548   1.383   2.797  12.009 -1.8837 -1.4554  1.7123
 4353TIP3   OH234549   1.078   2.045  11.551  0.0192  0.2660  0.4587
 4353TIP3    H134550   1.134   2.111  11.592  0.5900  0.0350  0.0358
 4353TIP3    H234551   1.130   2.008  11.481 -0.8669  0.4715 -0.3296
 4354TIP3   OH234552   6.412   2.818   2.705  0.8173 -0.4761 -1.1247
 4354TIP3    H134553   6.459   2.735   2.697  0.2137 -0.8648 -0.6966
 4354TIP3    H234554   6.411   2.835   2.799 -1.5771 -1.4545 -0.9445
 4355TIP3   OH234555   3.171   4.944   1.375 -0.3704 -0.2337  0.4938
 4355TIP3    H134556   3.097   4.988   1.334  0.5377  1.6673  0.8588
 4355TIP3    H234557   3.246   4.967   1.320 -0.0332 -2.1691  0.1083
 4356TIP3   OH234558   5.407   2.230  12.596 -0.6778 -0.4421  0.3422
 4356TIP3    H134559   5.341   2.221  12.664 -1.3553  1.4332 -0.0278
 4356TIP3    H234560   5.356   2.248  12.516  0.1969 -0.7087 -0.2831
 4357TIP3   OH234561   5.343   0.528   3.820 -0.1900  0.3527  0.0023
 4357TIP3    H134562   5.270   0.469   3.798  0.1412  0.0016 -0.1620
 4357TIP3    H234563   5.322   0.560   3.907 -0.7607  0.5859 -0.2127
 4358TIP3   OH234564   5.783   3.463   2.605  0.8755  0.3188 -0.1198
 4358TIP3    H134565   5.875   3.485   2.620  0.6417  0.9306  0.4807
 4358TIP3    H234566   5.752   3.432   2.690  0.8658 -1.1706 -0.6523
 4359TIP3   OH234567   5.832   3.560  15.551 -0.0875  0.1023  0.0737
 4359TIP3    H134568   5.917   3.598  15.573 -0.2588  0.4299  0.1692
 4359TIP3    H234569   5.799   3.615  15.480  0.2571 -0.6649 -0.6989
 4360TIP3   OH234570   0.149   0.415  15.405  0.7037 -0.2553  0.1562
 4360TIP3    H134571   0.079   0.404  15.341  0.6059  0.3185  0.1580
 4360TIP3    H234572   0.195   0.331  15.405 -0.3853 -0.8638  0.6445
 4361TIP3   OH234573   6.623   3.863  14.391  0.5605  0.1407 -0.5301
 4361TIP3    H134574   6.558   3.922  14.429 -1.5978 -3.0089  0.8820
 4361TIP3    H234575   6.613   3.875  14.296 -0.7871  1.0904 -0.2846
 4362TIP3   OH234576   6.220   3.507  11.522  0.5727  1.2147 -0.5174
 4362TIP3    H134577   6.130   3.533  11.505  0.4908  0.4413 -1.2976
 4362TIP3    H234578   6.260   3.583  11.564 -0.1541  1.9348 -1.1227
 4363TIP3   OH234579   1.950   3.698   2.602  0.1157  0.1119 -0.3621
 4363TIP3    H134580   2.002   3.695   2.683 -1.4453 -0.8578  0.6225
 4363TIP3    H234581   1.901   3.615   2.602  0.1780  0.0608 -2.3577
 4364TIP3   OH234582   3.856   5.866   3.588 -0.1776 -0.7175 -0.5645
 4364TIP3    H134583   3.829   5.803   3.521  2.6527 -1.6401 -0.9027
 4364TIP3    H234584   3.888   5.812   3.660 -1.4950  0.3005  0.8224
 4365TIP3   OH234585   3.664   5.340  16.969 -0.6958 -0.4096 -0.0534
 4365TIP3    H134586   3.712   5.421  16.953  0.8483 -1.2724  0.0402
 4365TIP3    H234587   3.591   5.342  16.907 -0.7026  1.0645 -0.0022
 4366TIP3   OH234588   2.245   1.138  12.616  0.1934 -0.1889  0.2836
 4366TIP3    H134589   2.191   1.195  12.562  0.0490 -0.9681 -0.3943
 4366TIP3    H234590   2.288   1.079  12.554  0.1791 -0.9574  1.0002
 4367TIP3   OH234591   0.709   1.138   3.224 -0.1897 -0.0524  0.1978
 4367TIP3    H134592   0.731   1.123   3.132  1.8802  1.0974  0.4767
 4367TIP3    H234593   0.667   1.224   3.226  3.5725  1.9022  0.7951
 4368TIP3   OH234594   3.867   4.528  17.059  0.2746  0.3510  0.0927
 4368TIP3    H134595   3.796   4.592  17.058  1.7674  2.0402  0.3563
 4368TIP3    H234596   3.827   4.449  17.097 -1.9740  0.6135 -1.6243
 4369TIP3   OH234597   6.282   5.388   3.199 -0.0260  0.3987  0.6668
 4369TIP3    H134598   6.371   5.365   3.171  0.1801  1.8292  0.1162
 4369TIP3    H234599   6.289   5.479   3.230 -0.8599 -0.1580  2.6179
 4370TIP3   OH234600   3.635   1.073   3.173  0.5832  0.0670 -0.2450
 4370TIP3    H134601   3.642   1.044   3.082 -1.0952  0.7714 -0.6072
 4370TIP3    H234602   3.723   1.105   3.194  0.5457  1.5089 -2.1770
 4371TIP3   OH234603   0.626   0.449  15.871  0.0893  0.0925  0.2614
 4371TIP3    H134604   0.614   0.398  15.791 -0.5734 -1.3177  1.2461
 4371TIP3    H234605   0.698   0.406  15.917 -0.7794 -0.2490  1.3248
 4372TIP3   OH234606   0.224   5.473  10.740 -0.1018 -0.2691  0.2537
 4372TIP3    H134607   0.183   5.484  10.654  2.8272 -1.3857 -1.3795
 4372TIP3    H234608   0.225   5.378  10.753  1.4987 -0.2377  0.4445
 4373TIP3   OH234609   2.370   4.604   4.297 -0.0364 -0.0198 -0.0078
 4373TIP3    H134610   2.293   4.554   4.271  0.1120 -0.3044  0.0905
 4373TIP3    H234611   2.418   4.618   4.215 -0.0903 -0.0210 -0.0400
 4374TIP3   OH234612   2.443   5.966  11.872  0.3213  0.0036 -0.0847
 4374TIP3    H134613   2.436   6.056  11.906  4.0111  0.9191 -1.5304
 4374TIP3    H234614   2.463   5.913  11.949 -0.8943  0.5401  0.6247
 4375TIP3   OH234615   4.087   0.675  14.163  0.2546  0.1227  0.8339
 4375TIP3    H134616   4.085   0.721  14.078 -0.4692  1.3513  1.4928
 4375TIP3    H234617   4.005   0.700  14.205 -0.1154 -1.7399  1.2652
 4376TIP3   OH234618   4.384   0.229   3.879 -0.1574  0.3446 -0.5698
 4376TIP3    H134619   4.394   0.283   3.801  2.1569  0.8784  0.0453
 4376TIP3    H234620   4.422   0.282   3.949 -0.5989 -0.8535  0.5969
 4377TIP3   OH234621   3.389   4.668  13.509 -0.0104  0.3912  0.1652
 4377TIP3    H134622   3.406   4.685  13.601  0.6086  1.7990 -0.2043
 4377TIP3    H234623   3.319   4.602  13.509  1.4110 -1.1525  1.6416
 4378TIP3   OH234624   2.164   2.625  13.519  0.1272 -0.2388 -0.6777
 4378TIP3    H134625   2.133   2.663  13.601  2.9887 -1.0167  0.8267
 4378TIP3    H234626   2.085   2.588  13.479 -1.7694  2.4976  0.3771
 4379TIP3   OH234627   1.233   5.234  16.090  0.0957  0.1756 -0.1715
 4379TIP3    H134628   1.226   5.183  16.009 -1.1215  0.4697 -0.2638
 4379TIP3    H234629   1.236   5.168  16.160  0.1161 -0.0593 -0.3942
 4380TIP3   OH234630   4.504   0.631   4.441 -0.2654 -0.6072 -0.0826
 4380TIP3    H134631   4.415   0.644   4.475  0.0662  0.9695  0.2101
 4380TIP3    H234632   4.520   0.707   4.386  1.4939 -0.0772  1.1377
 4381TIP3   OH234633   1.664   6.128   2.397 -0.2069  0.3861  0.4396
 4381TIP3    H134634   1.667   6.033   2.413 -0.3615  0.2767 -0.1513
 4381TIP3    H234635   1.571   6.149   2.396 -0.1825  0.4787  0.1858
 4382TIP3   OH234636   0.972   1.059   3.582 -0.0540  0.6730 -0.1336
 4382TIP3    H134637   0.880   1.036   3.576 -0.0856  0.5905  0.5871
 4382TIP3    H234638   0.980   1.104   3.666  0.9380 -1.1390  0.7835
 4383TIP3   OH234639   3.553   4.840  13.168  0.0872  0.0060 -0.0091
 4383TIP3    H134640   3.633   4.855  13.119 -0.4491 -1.5891 -1.4042
 4383TIP3    H234641   3.494   4.798  13.106 -0.0814 -3.4291  2.3741
 4384TIP3   OH234642   4.862   6.497   2.070 -0.3254  0.4344 -0.0318
 4384TIP3    H134643   4.831   6.423   2.018 -0.3540 -0.6286  1.4625
 4384TIP3    H234644   4.783   6.535   2.109 -0.3014  1.2001 -0.7281
 4385TIP3   OH234645   5.167   5.469   3.039  0.4030  0.4742  0.1903
 4385TIP3    H134646   5.101   5.537   3.053  0.5144  0.5530  0.3490
 4385TIP3    H234647   5.141   5.398   3.097  1.4421  1.2122  1.6219
 4386TIP3   OH234648   6.049   3.476  17.290  0.7093 -0.0142 -0.0948
 4386TIP3    H134649   6.106   3.428  17.349  1.4044  1.3685  0.3778
 4386TIP3    H234650   5.969   3.491  17.340 -0.7037 -3.2486 -1.2620
 4387TIP3   OH234651   6.197   1.535   5.269  0.4911  0.7640 -0.0370
 4387TIP3    H134652   6.237   1.449   5.255  0.5619  0.5907  1.1931
 4387TIP3    H234653   6.268   1.589   5.304 -0.1758  0.6197  1.5808
 4388TIP3   OH234654   5.239   1.682  14.457 -0.4283 -0.5064 -0.2450
 4388TIP3    H134655   5.147   1.695  14.433  0.0224 -0.5320 -2.0388
 4388TIP3    H234656   5.284   1.670  14.373  0.9870 -1.9791  0.7024
 4389TIP3   OH234657   0.685   5.294  12.901  0.5103  0.2559 -0.8702
 4389TIP3    H134658   0.608   5.337  12.938  2.0036  1.6390  0.7495
 4389TIP3    H234659   0.668   5.290  12.807 -0.3331  3.0906 -0.8869
 4390TIP3   OH234660   6.503   4.447   3.841  0.4427 -0.3107  0.4805
 4390TIP3    H134661   6.427   4.421   3.788  1.5782 -0.3032 -1.1966
 4390TIP3    H234662   6.492   4.542   3.854 -0.3087 -0.4731  1.0150
 4391TIP3   OH234663   1.152   5.401   2.440 -0.8666  0.1539  0.5889
 4391TIP3    H134664   1.181   5.428   2.527 -0.2763 -0.0300  0.4532
 4391TIP3    H234665   1.229   5.415   2.384 -1.9254  2.3944 -0.3344
 4392TIP3   OH234666   2.490   2.810   6.220 -0.3101  0.0425  0.4748
 4392TIP3    H134667   2.521   2.857   6.297  0.6323 -0.4100  0.3825
 4392TIP3    H234668   2.405   2.849   6.200  1.5657  3.5088 -1.1319
 4393TIP3   OH234669   0.965   3.342  14.221 -0.2958  0.3721 -0.1777
 4393TIP3    H134670   1.046   3.354  14.269  0.6299 -3.0355 -0.7726
 4393TIP3    H234671   0.896   3.352  14.287  0.6802  1.2218  0.7277
 4394TIP3   OH234672   0.653   4.881   5.111  0.4956  0.3210  0.5361
 4394TIP3    H134673   0.630   4.802   5.159  0.4953 -0.4157 -0.6439
 4394TIP3    H234674   0.573   4.903   5.062  1.5960 -1.1002 -2.0176
 4395TIP3   OH234675   0.689   4.096  16.099 -0.2899  0.2113 -0.0191
 4395TIP3    H134676   0.626   4.025  16.092 -0.4501  0.2587  0.9353
 4395TIP3    H234677   0.642   4.165  16.147 -0.1572  0.9835 -0.9777
 4396TIP3   OH234678   2.336   5.799  11.381  0.6577  0.0267 -0.3803
 4396TIP3    H134679   2.356   5.883  11.422 -0.6481  0.0596  0.2093
 4396TIP3    H234680   2.369   5.807  11.292 -1.5704  2.0403 -1.0570
 4397TIP3   OH234681   5.905   5.366  14.908  0.3725  0.4564 -0.7011
 4397TIP3    H134682   5.981   5.422  14.925  0.2982  0.3614 -0.0352
 4397TIP3    H234683   5.942   5.288  14.868  0.7513 -0.0120  0.5169
 4398TIP3   OH234684   2.890   5.265   1.401  0.4997 -0.1874  0.2549
 4398TIP3    H134685   2.903   5.342   1.456  0.8747  0.8984 -1.3140
 4398TIP3    H234686   2.824   5.214   1.446 -0.6607  1.6655  0.7030
 4399TIP3   OH234687   2.234   1.288  11.822 -0.4116 -0.8000 -0.6186
 4399TIP3    H134688   2.139   1.298  11.824 -0.4862 -1.3269 -1.2634
 4399TIP3    H234689   2.253   1.226  11.893 -0.2565  1.4352  1.3383
 4400TIP3   OH234690   3.921   0.229  17.227  1.0468  0.5125 -0.0444
 4400TIP3    H134691   3.892   0.146  17.266  1.3063  0.7425  0.6465
 4400TIP3    H234692   3.891   0.296  17.289 -0.1015  1.0275 -1.1224
 4401TIP3   OH234693   4.649   3.750   1.983  0.4231 -0.1274  0.0747
 4401TIP3    H134694   4.595   3.775   1.908 -1.0367 -0.8298  0.8844
 4401TIP3    H234695   4.721   3.814   1.982 -1.2109  1.7717 -0.1419
 4402TIP3   OH234696   0.500   0.834   6.289  0.0239  0.0078 -0.0930
 4402TIP3    H134697   0.437   0.874   6.228 -0.1784  0.4241  0.3876
 4402TIP3    H234698   0.505   0.742   6.262  1.0044  0.4871 -1.6476
 4403TIP3   OH234699   4.095   1.833  15.606  0.2221 -0.0885 -0.1778
 4403TIP3    H134700   4.185   1.867  15.599  0.5873 -0.7960  0.9503
 4403TIP3    H234701   4.098   1.773  15.681 -1.4792  0.8148  0.6450
 4404TIP3   OH234702   1.391   2.713  14.686  0.5425  0.1519  0.4194
 4404TIP3    H134703   1.420   2.622  14.690 -0.1946 -0.2187 -1.6263
 4404TIP3    H234704   1.297   2.707  14.671  0.6592  1.2210 -0.8758
 4405TIP3   OH234705   5.105   0.600   0.966  0.0643  0.3577 -0.0057
 4405TIP3    H134706   5.055   0.681   0.958 -1.1637 -0.1612  1.9623
 4405TIP3    H234707   5.128   0.577   0.876 -0.7942  2.1215 -0.7033
 4406TIP3   OH234708   3.795   0.871  13.722 -0.2975  0.2427 -0.8635
 4406TIP3    H134709   3.818   0.828  13.805  1.2253  0.7876 -0.9796
 4406TIP3    H234710   3.710   0.912  13.739 -0.8355 -1.1554 -0.1381
 4407TIP3   OH234711   1.385   1.184   3.441  0.0393  0.6500 -0.3398
 4407TIP3    H134712   1.408   1.110   3.386 -0.8663 -0.9927  1.4332
 4407TIP3    H234713   1.450   1.183   3.512 -1.4494 -0.0000  1.0524
 4408TIP3   OH234714   3.065   2.637  16.159  0.0206  0.4043  0.2898
 4408TIP3    H134715   3.122   2.590  16.221 -2.2732 -1.4505  1.0646
 4408TIP3    H234716   3.082   2.595  16.075 -0.3633 -0.3112  0.5637
 4409TIP3   OH234717   5.638   5.280   5.019  0.0540 -0.0104 -0.4799
 4409TIP3    H134718   5.616   5.223   4.946 -1.8020  1.3845 -1.0594
 4409TIP3    H234719   5.553   5.312   5.050  0.8132 -0.5730  2.2778
 4410TIP3   OH234720   0.466   5.274  11.930  0.2757  0.1395 -0.4552
 4410TIP3    H134721   0.559   5.289  11.947  0.1760 -0.2193  0.4368
 4410TIP3    H234722   0.426   5.360  11.940  0.7163  0.5747 -2.2832
 4411TIP3   OH234723   5.317   2.796  15.116 -0.2623  0.1767  0.5002
 4411TIP3    H134724   5.239   2.742  15.101 -0.4163  0.6438 -0.4296
 4411TIP3    H234725   5.283   2.885  15.124  0.2036  0.4226 -0.2050
 4412TIP3   OH234726   1.717   5.676   5.963 -0.3232  0.2432 -0.1501
 4412TIP3    H134727   1.741   5.763   5.993 -0.2989  0.3562 -0.4988
 4412TIP3    H234728   1.796   5.623   5.976 -0.1717  0.3978 -0.4371
 4413TIP3   OH234729   4.795   0.565   4.889 -0.0389  0.0573 -0.5251
 4413TIP3    H134730   4.884   0.591   4.866  2.0845 -1.3679  5.1616
 4413TIP3    H234731   4.775   0.614   4.968 -3.8521 -0.6122 -0.9898
 4414TIP3   OH234732   4.452   6.017   1.713 -0.3044 -0.2893 -0.4758
 4414TIP3    H134733   4.505   6.075   1.767  0.8844 -2.0524  0.2990
 4414TIP3    H234734   4.475   6.040   1.623 -1.9336  2.3284 -0.2800
 4415TIP3   OH234735   3.243   5.098   0.029  0.0917  0.1154 -0.3249
 4415TIP3    H134736   3.335   5.119   0.017  0.3314 -0.7576  0.0405
 4415TIP3    H234737   3.203   5.182   0.055  1.2418 -0.1005  2.1666
 4416TIP3   OH234738   5.103   1.958   5.172 -0.1211 -0.1803  0.4617
 4416TIP3    H134739   5.066   1.980   5.257 -0.7496 -0.2349  0.2031
 4416TIP3    H234740   5.047   1.888   5.139  0.9047 -1.0581  0.5798
 4417TIP3   OH234741   3.325   6.708   3.054 -0.4805 -0.8074  0.1488
 4417TIP3    H134742   3.240   6.752   3.063 -0.1722  0.0775 -1.0212
 4417TIP3    H234743   3.388   6.772   3.087 -0.2369 -1.3088  0.6461
 4418TIP3   OH234744   5.304   1.777   0.992 -0.0239 -0.3441 -0.1407
 4418TIP3    H134745   5.266   1.863   1.009  0.8651 -0.2119  1.2364
 4418TIP3    H234746   5.308   1.734   1.077  0.5869 -1.3131 -0.6420
 4419TIP3   OH234747   6.292   1.251  13.075 -0.2442  1.1219  0.0932
 4419TIP3    H134748   6.242   1.173  13.052  0.1923  0.4127  1.5438
 4419TIP3    H234749   6.383   1.223  13.073  0.0114  1.9789 -0.8240
 4420TIP3   OH234750   4.195   5.817  14.223 -0.2647  0.2552 -0.2951
 4420TIP3    H134751   4.169   5.902  14.187 -0.1731 -0.0146 -1.0169
 4420TIP3    H234752   4.288   5.828  14.244 -0.3815  0.4942  0.1063
 4421TIP3   OH234753   5.596   6.586  16.589 -0.9315 -0.5205 -0.5148
 4421TIP3    H134754   5.603   6.501  16.545 -1.0779  0.9047 -3.4078
 4421TIP3    H234755   5.502   6.601  16.597 -0.9298  0.1156 -1.5710
 4422TIP3   OH234756   6.221   3.250   3.634 -0.0925  0.3361  0.4174
 4422TIP3    H134757   6.216   3.207   3.549 -0.3865  0.8187  0.1929
 4422TIP3    H234758   6.169   3.329   3.625  2.2269  1.8753  0.1845
 4423TIP3   OH234759   4.000   2.151  13.857 -0.6559  0.1372 -0.1153
 4423TIP3    H134760   4.087   2.112  13.862 -0.3491  0.3746 -2.8331
 4423TIP3    H234761   4.002   2.223  13.920  1.6020  0.9940 -1.1111
 4424TIP3   OH234762   3.149   0.501  14.892  0.0010 -0.6231 -0.1239
 4424TIP3    H134763   3.201   0.568  14.846 -1.1285 -0.3041 -0.9656
 4424TIP3    H234764   3.136   0.537  14.980  1.0865 -0.6536  0.0623
 4425TIP3   OH234765   6.451   6.179  15.067 -0.7163 -0.1383 -0.0478
 4425TIP3    H134766   6.510   6.104  15.055 -0.3252  0.2739 -0.7441
 4425TIP3    H234767   6.497   6.237  15.128 -0.7754 -0.2130  0.0672
 4426TIP3   OH234768   0.291   0.571  12.966 -0.5497  0.1106 -0.5595
 4426TIP3    H134769   0.290   0.633  13.039  1.5391  0.6344 -0.9178
 4426TIP3    H234770   0.209   0.523  12.974 -0.7517  0.7352  1.6277
 4427TIP3   OH234771   0.765   6.819  11.491  0.2443 -0.4899 -0.3070
 4427TIP3    H134772   0.703   6.890  11.477 -0.6859 -1.3101 -0.3136
 4427TIP3    H234773   0.711   6.742  11.507  1.1890 -0.4886  3.4731
 4428TIP3   OH234774   4.056   3.516   5.421  0.1430  0.1929  0.3404
 4428TIP3    H134775   4.059   3.605   5.387  0.3761 -0.1658 -0.5976
 4428TIP3    H234776   3.990   3.473   5.367  0.9083 -0.5368 -0.0189
 4429TIP3   OH234777   3.868   0.143   5.284  0.1322  1.3535 -0.0745
 4429TIP3    H134778   3.842   0.145   5.192 -1.4671  0.9962  0.3558
 4429TIP3    H234779   3.847   0.054   5.313 -1.8880  2.2296  1.3161
 4430TIP3   OH234780   1.575   4.601  13.107 -0.0613 -0.1662  0.3102
 4430TIP3    H134781   1.504   4.589  13.170 -0.0370 -1.5381  0.0892
 4430TIP3    H234782   1.565   4.528  13.046  0.9976  0.1443 -0.2426
 4431TIP3   OH234783   4.880   5.130  10.612  0.1893  0.0617  0.2022
 4431TIP3    H134784   4.852   5.041  10.637 -1.8080  0.0742 -1.8163
 4431TIP3    H234785   4.955   5.116  10.555 -1.0113 -0.4646 -1.3069
 4432TIP3   OH234786   1.940   4.361  13.400  0.3086  0.2367 -0.4565
 4432TIP3    H134787   1.851   4.395  13.401  0.8560  1.9183 -3.1354
 4432TIP3    H234788   1.991   4.427  13.447  0.2878 -0.3256  0.3667
 4433TIP3   OH234789   1.494   3.433  11.513  0.0234  0.3526 -0.1728
 4433TIP3    H134790   1.475   3.501  11.577 -2.1804 -2.4022  2.1632
 4433TIP3    H234791   1.417   3.430  11.457  0.4163  0.2155 -0.7178
 4434TIP3   OH234792   2.596   0.712  12.151 -0.2305 -0.6699 -0.4710
 4434TIP3    H134793   2.603   0.719  12.055 -1.0254  0.8217 -0.4421
 4434TIP3    H234794   2.685   0.700  12.181  0.0480 -0.9824 -1.3874
 4435TIP3   OH234795   5.068   6.036   3.561 -0.0397  0.1241  0.3447
 4435TIP3    H134796   5.036   5.991   3.483 -0.2396  0.2406  0.3584
 4435TIP3    H234797   5.020   5.994   3.633  0.7977 -0.5871  0.4861
 4436TIP3   OH234798   0.754   3.543   6.104  0.3674  0.2049 -0.0651
 4436TIP3    H134799   0.819   3.608   6.080  0.1378  0.6115  0.4019
 4436TIP3    H234800   0.683   3.594   6.143  0.4224 -0.3818  0.7984
 4437TIP3   OH234801   3.341   4.548  12.113 -0.0089  0.0163 -0.5416
 4437TIP3    H134802   3.280   4.622  12.111 -1.4697 -1.1768 -1.7222
 4437TIP3    H234803   3.358   4.529  12.021  0.6269 -0.9023 -0.2409
 4438TIP3   OH234804   0.420   2.851  12.313 -0.0214  0.6203 -0.2213
 4438TIP3    H134805   0.435   2.930  12.366  0.0520 -0.0800  0.8065
 4438TIP3    H234806   0.505   2.807  12.312 -0.1200  0.4422 -0.6067
 4439TIP3   OH234807   2.121   1.812  16.824  0.2463 -0.2818 -0.1658
 4439TIP3    H134808   2.174   1.864  16.764  0.4080  1.0295  1.0769
 4439TIP3    H234809   2.181   1.789  16.895 -0.3774 -0.3370  0.3434
 4440TIP3   OH234810   3.924   4.772  13.434 -0.2632  0.3676  0.2239
 4440TIP3    H134811   3.899   4.726  13.513  0.5389  1.5757  1.2183
 4440TIP3    H234812   3.929   4.705  13.367  0.9106 -1.0095  1.6345
 4441TIP3   OH234813   4.193   0.416  13.230 -0.3051  0.8583 -0.1523
 4441TIP3    H134814   4.276   0.371  13.241 -0.3747  0.0169 -2.7011
 4441TIP3    H234815   4.214   0.509  13.242  0.9426  0.6340 -0.5654
 4442TIP3   OH234816   4.173   6.537   6.810  0.6576 -0.0404  0.0088
 4442TIP3    H134817   4.110   6.609   6.815  2.3220  1.2643  3.5879
 4442TIP3    H234818   4.134   6.468   6.863  1.2720  0.0228  0.5490
 4443TIP3   OH234819   3.041   4.508  15.792  0.3853  0.6280  0.4246
 4443TIP3    H134820   3.125   4.519  15.837 -0.0359  2.4106  0.8255
 4443TIP3    H234821   3.064   4.510  15.699  0.7338  1.7907  0.5249
 4444TIP3   OH234822   4.905   3.398   5.598  0.1424 -0.9655  0.2304
 4444TIP3    H134823   4.834   3.458   5.575  0.4535 -1.1547 -1.2430
 4444TIP3    H234824   4.982   3.455   5.609 -0.0550 -0.8492  1.0897
 4445TIP3   OH234825   1.575   3.420  15.279  0.1789  0.5970 -0.1167
 4445TIP3    H134826   1.541   3.384  15.197  1.2515 -0.6917 -0.0153
 4445TIP3    H234827   1.519   3.382  15.347 -1.0653  2.0989 -0.2538
 4446TIP3   OH234828   5.278   0.474  12.609  0.2976 -0.4192  0.0160
 4446TIP3    H134829   5.288   0.482  12.704  0.5954 -1.1209  0.0473
 4446TIP3    H234830   5.312   0.387  12.589 -0.5480 -0.6025 -0.6260
 4447TIP3   OH234831   6.806   6.000   0.245  0.1410 -0.1812  0.5558
 4447TIP3    H134832   6.807   5.965   0.334 -0.7693  0.8108  0.9702
 4447TIP3    H234833   6.749   5.940   0.197  1.6878 -1.4790  0.3036
 4448TIP3   OH234834   4.250   1.465   6.270  0.1754  0.3307  0.7911
 4448TIP3    H134835   4.180   1.404   6.294 -0.7596  1.5429  1.2140
 4448TIP3    H234836   4.325   1.409   6.250 -1.2039 -1.0513 -0.6893
 4449TIP3   OH234837   1.800   2.650   0.019  0.1461 -0.3669 -0.1131
 4449TIP3    H134838   1.740   2.632   0.092 -2.1962  2.6714 -1.1492
 4449TIP3    H234839   1.756   2.613  -0.057 -0.6441  2.1351 -0.9276
 4450TIP3   OH234840   5.424   1.474  10.907  0.7359  0.9918  0.0098
 4450TIP3    H134841   5.340   1.483  10.863 -0.1404  1.4951  1.7627
 4450TIP3    H234842   5.476   1.548  10.875 -0.0750  1.6435  0.1953
 4451TIP3   OH234843   4.322   2.923   2.297 -0.3503 -0.8632  0.2364
 4451TIP3    H134844   4.372   2.922   2.215 -0.0476  1.1487  0.3879
 4451TIP3    H234845   4.234   2.949   2.270 -0.0318  0.6907  0.6500
 4452TIP3   OH234846   3.181   2.125   1.105 -0.3815  1.2245  0.3847
 4452TIP3    H134847   3.261   2.137   1.155  1.3887 -0.1616 -2.0541
 4452TIP3    H234848   3.176   2.202   1.048 -0.7715  1.2622  0.4612
 4453TIP3   OH234849   0.133   6.609   0.940 -0.1592 -0.2728 -0.8217
 4453TIP3    H134850   0.040   6.591   0.947 -0.4078  0.8492 -1.2048
 4453TIP3    H234851   0.149   6.620   0.846  0.4142 -0.7453 -0.7833
 4454TIP3   OH234852   2.085   1.024  13.543 -0.1410  0.6400  0.3467
 4454TIP3    H134853   2.154   0.979  13.592  0.1908 -3.2803 -3.4261
 4454TIP3    H234854   2.130   1.091  13.493  0.8959 -1.3582 -1.4646
 4455TIP3   OH234855   1.151   4.816  16.223  0.0921 -0.1932  0.5777
 4455TIP3    H134856   1.110   4.732  16.203  2.0894 -1.0426 -0.0766
 4455TIP3    H234857   1.238   4.794  16.257  0.8332  1.6085 -0.0395
 4456TIP3   OH234858   0.066   5.864   5.732  0.2772 -0.4076 -0.2140
 4456TIP3    H134859   0.158   5.850   5.753 -0.2902 -3.0019  0.7316
 4456TIP3    H234860   0.021   5.862   5.817 -0.5826  1.6304 -0.5814
 4457TIP3   OH234861   1.437   3.776   0.888  0.1703  0.0776 -0.0900
 4457TIP3    H134862   1.432   3.730   0.805 -0.7793 -1.4521  0.7945
 4457TIP3    H234863   1.345   3.789   0.913  0.4340 -1.7121  1.9208
 4458TIP3   OH234864   4.582   2.287   1.657 -0.2392 -0.0139  0.6871
 4458TIP3    H134865   4.500   2.255   1.620 -0.7742  1.1268  0.8730
 4458TIP3    H234866   4.643   2.214   1.645 -0.8173 -0.2568 -0.9857
 4459TIP3   OH234867   3.335   6.617  16.891 -0.6066 -0.7438  0.4022
 4459TIP3    H134868   3.321   6.595  16.799 -0.1229 -1.3203  0.4677
 4459TIP3    H234869   3.405   6.682  16.889 -1.1990 -0.0930  0.3092
 4460TIP3   OH234870   3.962   0.334   5.790 -0.0078  0.3658 -0.3436
 4460TIP3    H134871   3.947   0.241   5.807  0.5426  0.1440 -1.0221
 4460TIP3    H234872   3.907   0.354   5.714  0.4426  0.4048 -0.6626
 4461TIP3   OH234873   3.759   4.782   4.241  1.2200  0.0023 -0.1184
 4461TIP3    H134874   3.684   4.723   4.231  0.2908  0.5906  2.9265
 4461TIP3    H234875   3.750   4.845   4.170  0.0972 -1.2606 -1.1282
 4462TIP3   OH234876   5.661   0.282   2.934  0.3584 -0.0196  0.7466
 4462TIP3    H134877   5.568   0.260   2.933  0.1898  0.6273  1.3773
 4462TIP3    H234878   5.704   0.210   2.889 -0.5522  0.1355 -0.3981
 4463TIP3   OH234879   3.914   2.322   0.792  0.0738 -0.1475  0.5386
 4463TIP3    H134880   3.830   2.362   0.772  1.2098  3.1612  2.0175
 4463TIP3    H234881   3.966   2.332   0.711  0.3235  1.3472  0.8744
 4464TIP3   OH234882   5.000   0.797  13.063  0.2902 -0.0181 -0.2167
 4464TIP3    H134883   5.019   0.774  13.154 -0.0484 -1.5328 -0.5021
 4464TIP3    H234884   4.975   0.889  13.066  0.5780  0.0318  1.1777
 4465TIP3   OH234885   0.499   4.890  13.759  0.3067  0.3387 -0.7501
 4465TIP3    H134886   0.449   4.835  13.820  0.5245  1.2409  0.2537
 4465TIP3    H234887   0.492   4.844  13.675  0.7155 -1.3678  0.1260
 4466TIP3   OH234888   3.285   1.141  11.073 -0.5888 -0.2147 -0.3935
 4466TIP3    H134889   3.214   1.203  11.088 -1.2512 -1.0509 -0.0511
 4466TIP3    H234890   3.276   1.115  10.981  0.5674  1.2661 -0.9626
 4467TIP3   OH234891   5.182   2.522  11.558 -0.2246  0.1368 -0.3378
 4467TIP3    H134892   5.132   2.471  11.622  0.6805  2.1053  1.9996
 4467TIP3    H234893   5.117   2.549  11.493 -1.0190 -2.5248 -0.7272
 4468TIP3   OH234894   2.592   6.256   1.801 -0.2064  0.6006  0.1957
 4468TIP3    H134895   2.668   6.199   1.796 -0.1131  0.5178  2.1583
 4468TIP3    H234896   2.629   6.345   1.805 -0.0607  0.4828  3.0779
 4469TIP3   OH234897   0.687   0.601   2.538  0.2920  0.6675 -0.2907
 4469TIP3    H134898   0.769   0.647   2.556 -0.8418  2.1158  1.2518
 4469TIP3    H234899   0.705   0.510   2.565  0.8538  1.3323  1.6616
 4470TIP3   OH234900   3.447   5.237   3.557  0.1150  0.2769  0.3077
 4470TIP3    H134901   3.384   5.255   3.488  1.7624  3.1446 -0.5370
 4470TIP3    H234902   3.419   5.292   3.630 -0.7692 -1.6303  1.4330
 4471TIP3   OH234903   3.830   5.305  11.464 -1.1149  0.8945 -0.5601
 4471TIP3    H134904   3.922   5.324  11.446 -0.3125 -0.3024  2.0510
 4471TIP3    H234905   3.789   5.301  11.377  1.4005  0.8064 -1.7896
 4472TIP3   OH234906   4.690   6.517  16.071  0.2792 -0.5373 -0.5217
 4472TIP3    H134907   4.616   6.475  16.027 -0.3797  0.9878 -0.9137
 4472TIP3    H234908   4.650   6.574  16.136  1.1534 -0.5947  0.0736
 4473TIP3   OH234909   2.897   6.138   2.202  0.2068  0.5067  0.3534
 4473TIP3    H134910   2.820   6.137   2.259 -0.1429  1.6093 -0.0914
 4473TIP3    H234911   2.970   6.115   2.260 -0.5191 -1.1036  0.6588
 4474TIP3   OH234912   4.440   5.916   4.392 -0.0865  0.2455  0.0114
 4474TIP3    H134913   4.493   5.970   4.334  0.3826 -0.7588 -0.5035
 4474TIP3    H234914   4.456   5.826   4.363 -0.5196 -0.2061  1.1375
 4475TIP3   OH234915   0.024   0.094  14.732  0.1100 -0.2137  0.3687
 4475TIP3    H134916   0.113   0.121  14.757 -0.0604  0.0955  0.6608
 4475TIP3    H234917   0.002   0.026  14.796  0.1957 -0.4011  0.1995
 4476TIP3   OH234918   1.386   2.981  13.247 -0.0212 -0.3748  0.2368
 4476TIP3    H134919   1.467   2.931  13.234 -0.7023 -1.2457 -0.7575
 4476TIP3    H234920   1.330   2.923  13.298  0.2248  0.5062  1.5389
 4477TIP3   OH234921   5.997   3.145  15.352  0.3863 -0.0122 -0.7164
 4477TIP3    H134922   6.080   3.164  15.307  0.9391  0.0794  0.3298
 4477TIP3    H234923   5.988   3.050  15.346  1.7113 -0.2854  1.1108
 4478TIP3   OH234924   6.088   5.154  10.550 -0.3867  0.3565 -0.5471
 4478TIP3    H134925   6.084   5.110  10.635 -0.0182 -1.3779 -1.4189
 4478TIP3    H234926   6.045   5.239  10.566 -0.7047 -0.1084  1.2562
 4479TIP3   OH234927   3.330   4.548   2.080 -0.5291  0.5287  0.3617
 4479TIP3    H134928   3.419   4.512   2.078 -0.5083  0.5972 -0.3195
 4479TIP3    H234929   3.296   4.523   2.166  0.4801  1.3279  1.0013
 4480TIP3   OH234930   1.123   6.229  16.749  0.4424 -0.0981  0.1314
 4480TIP3    H134931   1.058   6.160  16.733  0.7741 -0.4052  0.1058
 4480TIP3    H234932   1.075   6.311  16.735 -0.5851 -0.2573  2.5329
 4481TIP3   OH234933   1.461   4.709  13.480 -0.1645  0.5399  0.4043
 4481TIP3    H134934   1.547   4.673  13.500  0.9362  2.5429 -0.6099
 4481TIP3    H234935   1.408   4.688  13.557  0.9051 -1.6164  0.6044
 4482TIP3   OH234936   2.402   4.253   4.829 -0.9692  0.0872  0.3409
 4482TIP3    H134937   2.496   4.267   4.825 -0.5814 -2.1502  1.1177
 4482TIP3    H234938   2.377   4.225   4.741 -0.7312 -0.3061  0.3977
 4483TIP3   OH234939   5.700   4.896   3.366  0.0345  1.1366  0.1127
 4483TIP3    H134940   5.665   4.818   3.322  1.7424 -0.0755  0.8584
 4483TIP3    H234941   5.784   4.912   3.323  0.6167  1.3454  1.2967
 4484TIP3   OH234942   2.272   5.104  16.495 -0.3592  0.0829  0.0358
 4484TIP3    H134943   2.248   5.107  16.402 -0.9655 -0.6026  0.1595
 4484TIP3    H234944   2.364   5.078  16.495 -0.1429  0.8534 -0.4005
 4485TIP3   OH234945   3.847   0.592   0.546  0.1897  0.3790  0.1706
 4485TIP3    H134946   3.782   0.599   0.476 -1.6987  0.3031  1.8691
 4485TIP3    H234947   3.918   0.652   0.520 -1.1711  1.4864 -1.0528
 4486TIP3   OH234948   1.797   0.754  10.485 -0.0981  0.0854  0.1503
 4486TIP3    H134949   1.860   0.790  10.423 -0.2644 -1.0984 -0.7406
 4486TIP3    H234950   1.838   0.673  10.517 -1.1379 -0.6950 -0.4422
 4487TIP3   OH234951   4.086   0.538   4.487 -0.6465 -0.1360  0.3994
 4487TIP3    H134952   3.998   0.545   4.450 -0.4459  0.8109  0.0716
 4487TIP3    H234953   4.122   0.458   4.450 -1.8481 -1.2411  1.5671
 4488TIP3   OH234954   1.836   5.267  15.727 -0.1507  0.1622 -0.0201
 4488TIP3    H134955   1.755   5.281  15.679 -0.3352 -0.2945  0.1533
 4488TIP3    H234956   1.872   5.186  15.690  0.5856  0.7407 -0.5935
 4489TIP3   OH234957   1.243   3.066  11.878 -0.0726 -0.0309  0.8188
 4489TIP3    H134958   1.164   3.042  11.926 -0.7607 -0.2433 -0.4308
 4489TIP3    H234959   1.213   3.091  11.791  1.3406 -1.1825 -0.0134
 4490TIP3   OH234960   6.269   6.461   2.261 -0.2598 -0.3534  0.1993
 4490TIP3    H134961   6.260   6.549   2.299 -1.0754 -0.5891  0.5570
 4490TIP3    H234962   6.271   6.403   2.337  0.0171 -0.6662 -0.0482
 4491TIP3   OH234963   2.085   3.629   6.050 -0.0283  0.1826  0.4036
 4491TIP3    H134964   2.037   3.648   5.968  1.2027  0.2651 -0.3043
 4491TIP3    H234965   2.059   3.539   6.071  0.1018 -0.0596 -0.4131
 4492TIP3   OH234966   3.456   4.396   1.556 -0.3810 -0.5737 -0.2066
 4492TIP3    H134967   3.502   4.447   1.622  1.7957 -1.5762 -0.9081
 4492TIP3    H234968   3.437   4.458   1.486  3.8966 -1.0243 -1.8857
 4493TIP3   OH234969   2.718   1.262   2.765 -0.3104 -0.5782 -0.9225
 4493TIP3    H134970   2.757   1.279   2.850 -1.2546 -0.6657 -0.4681
 4493TIP3    H234971   2.678   1.346   2.740 -0.1337 -0.5841 -1.2349
 4494TIP3   OH234972   4.408   5.183  17.006  0.4495 -0.0749 -0.4492
 4494TIP3    H134973   4.432   5.267  16.967  1.1012  0.2643  0.6582
 4494TIP3    H234974   4.489   5.132  17.005  1.1068  0.8351  2.6866
 4495TIP3   OH234975   3.539   6.728   4.959 -0.0440  0.5291 -0.0940
 4495TIP3    H134976   3.507   6.641   4.934  0.5371  0.3411 -0.1940
 4495TIP3    H234977   3.634   6.720   4.959  0.0156  1.1660 -0.0935
 4496TIP3   OH234978   0.658   5.798  12.822  0.0730 -0.2210 -0.2341
 4496TIP3    H134979   0.681   5.756  12.739 -1.0944 -1.4722  0.0493
 4496TIP3    H234980   0.696   5.742  12.889  2.6921  1.8345  0.0719
 4497TIP3   OH234981   1.579   1.204   0.487  0.1207  0.0125  0.5703
 4497TIP3    H134982   1.613   1.123   0.448  1.4561  0.9968 -0.3342
 4497TIP3    H234983   1.490   1.181   0.515  0.0978 -1.4703 -0.6370
 4498TIP3   OH234984   4.678   0.011   5.876 -0.5975 -0.9099  0.1438
 4498TIP3    H134985   4.707  -0.062   5.932  1.8903  0.0957  0.2156
 4498TIP3    H234986   4.707  -0.014   5.788 -1.5010 -0.9230 -0.1488
 4499TIP3   OH234987   3.881   4.781   5.201 -0.2353  0.2941  0.4085
 4499TIP3    H134988   3.931   4.744   5.273 -1.2918  1.0316  1.5294
 4499TIP3    H234989   3.930   4.861   5.177  0.0455  0.1129  0.3695
 4500TIP3   OH234990   2.981   6.078  16.921  0.3423  0.0962 -0.2552
 4500TIP3    H134991   2.962   6.017  16.850  2.2870 -0.8082 -0.0187
 4500TIP3    H234992   3.066   6.115  16.899  1.4187 -0.9095  2.0819
 4501TIP3   OH234993   5.209   3.425   0.818 -0.3060 -0.0777 -0.1060
 4501TIP3    H134994   5.159   3.344   0.834 -0.9685 -0.0101 -1.6893
 4501TIP3    H234995   5.142   3.494   0.817  0.3305  0.6079  1.8962
 4502TIP3   OH234996   3.262   6.379  11.287 -0.0954  0.0569 -0.4697
 4502TIP3    H134997   3.213   6.323  11.348 -0.8988 -1.3785 -2.3939
 4502TIP3    H234998   3.341   6.329  11.267 -0.3258  0.0539 -1.3906
 4503TIP3   OH234999   1.764   6.409  13.049 -0.0638 -0.2013 -0.0315
 4503TIP3    H135000   1.723   6.336  13.096  0.8988 -2.2414 -2.2550
 4503TIP3    H235001   1.719   6.412  12.965  1.1744  0.5500 -0.6895
 4504TIP3   OH235002   4.706   4.778  15.144  0.2369  0.3624  0.0829
 4504TIP3    H135003   4.653   4.829  15.205 -0.9171 -2.0347  1.1302
 4504TIP3    H235004   4.651   4.769  15.066 -0.5723 -1.3444  0.8278
 4505TIP3   OH235005   1.694   0.375   5.365  0.1163  0.3847 -0.3112
 4505TIP3    H135006   1.708   0.283   5.341  1.0142  0.0258  1.5027
 4505TIP3    H235007   1.610   0.375   5.411  0.3712  0.3767  0.1566
 4506TIP3   OH235008   6.112   4.900   1.273  0.6722  0.2263  0.1496
 4506TIP3    H135009   6.137   4.952   1.349 -1.4303 -0.7625  1.5485
 4506TIP3    H235010   6.132   4.810   1.297  0.4962 -0.0486 -0.6923
 4507TIP3   OH235011   5.679   6.179   1.556 -0.0177 -0.3453  0.1865
 4507TIP3    H135012   5.619   6.184   1.481  1.9994 -0.5656 -1.4714
 4507TIP3    H235013   5.662   6.093   1.595 -1.0282 -0.2576 -0.0365
 4508TIP3   OH235014   2.252   4.714  15.403 -0.4658 -0.0785 -0.0958
 4508TIP3    H135015   2.265   4.628  15.443 -0.1979  0.2107  0.4353
 4508TIP3    H235016   2.287   4.776  15.467 -0.9821  0.4509 -0.3289
 4509TIP3   OH235017   0.388   1.472  17.090  0.7265  0.2843 -0.3127
 4509TIP3    H135018   0.326   1.398  17.096  0.1476  0.7936  0.1364
 4509TIP3    H235019   0.452   1.454  17.158 -0.2923  0.9761  0.8652
 4510TIP3   OH235020   1.395   6.424  14.247 -0.5102 -0.1635 -0.1154
 4510TIP3    H135021   1.431   6.377  14.322  0.1541  0.1556 -0.2331
 4510TIP3    H235022   1.453   6.499  14.235 -0.7987 -0.0368 -0.7487
 4511TIP3   OH235023   5.575   4.633   1.229 -0.3502  0.0025 -0.5481
 4511TIP3    H135024   5.641   4.568   1.204 -0.0464  0.3476 -0.6470
 4511TIP3    H235025   5.589   4.648   1.322 -0.7001 -0.3917 -0.4331
 4512TIP3   OH235026   3.415   3.883   3.732 -0.0855 -0.0501 -0.2969
 4512TIP3    H135027   3.505   3.853   3.716  0.7787  2.5867 -0.6038
 4512TIP3    H235028   3.366   3.853   3.656  0.8190 -0.4231 -0.7457
 4513TIP3   OH235029   4.948   5.699  17.137  0.0174  0.1916 -0.1326
 4513TIP3    H135030   4.991   5.616  17.113  2.7287  1.4281  0.2966
 4513TIP3    H235031   4.901   5.679  17.217 -0.2152 -1.2199 -0.6053
 4514TIP3   OH235032   4.097   1.650   4.466  0.2560 -0.0934  0.0100
 4514TIP3    H135033   4.145   1.733   4.465  1.0535 -0.5416  0.6481
 4514TIP3    H235034   4.068   1.639   4.556  1.0329 -0.9938  0.1692
 4515TIP3   OH235035   3.898   3.306  17.273  0.1685  0.2375  0.2161
 4515TIP3    H135036   3.978   3.286  17.322  0.6444  0.9785 -0.2388
 4515TIP3    H235037   3.927   3.365  17.203 -1.1897  2.5479  1.5475
 4516TIP3   OH235038   6.228   3.106   5.885  0.2382  0.0972 -0.0893
 4516TIP3    H135039   6.186   3.169   5.943 -0.8568 -2.0999  1.6147
 4516TIP3    H235040   6.154   3.057   5.847  1.1028 -1.9543  0.7691
 4517TIP3   OH235041   5.437   4.432  11.384  0.0400 -0.0435 -0.3656
 4517TIP3    H135042   5.405   4.473  11.464  0.1579  1.9197 -1.2968
 4517TIP3    H235043   5.531   4.449  11.384  0.1987 -0.8797 -0.4510
 4518TIP3   OH235044   3.616   3.304  12.240  0.3169  0.5769 -0.2815
 4518TIP3    H135045   3.609   3.262  12.326 -2.3404 -0.0403 -0.7486
 4518TIP3    H235046   3.565   3.248  12.182  0.4432  2.0547 -1.8582
 4519TIP3   OH235047   6.450   6.443  12.478  0.3545  0.2505  0.5942
 4519TIP3    H135048   6.473   6.445  12.571  1.0133 -1.5199  0.4912
 4519TIP3    H235049   6.516   6.385  12.438  0.1118  1.0361 -0.9816
 4520TIP3   OH235050   1.537   6.363   2.152 -0.4545  0.3305 -0.6407
 4520TIP3    H135051   1.462   6.387   2.098  0.1892  0.4620 -1.4869
 4520TIP3    H235052   1.508   6.285   2.200 -0.9836  0.1317 -1.2841
 4521TIP3   OH235053   2.149   1.721  13.373 -0.3448 -0.5578  0.4208
 4521TIP3    H135054   2.223   1.676  13.331  0.5508  0.9437  0.3496
 4521TIP3    H235055   2.156   1.811  13.342 -1.6896 -0.2075  1.1333
 4522TIP3   OH235056   6.660   5.726  15.777  0.4415 -0.5520 -0.3714
 4522TIP3    H135057   6.747   5.690  15.764  1.0275  1.0839 -1.1833
 4522TIP3    H235058   6.616   5.664  15.835  2.4073 -0.9976  0.6813
 4523TIP3   OH235059   1.291   6.466   6.177  0.4242  0.2169 -0.1200
 4523TIP3    H135060   1.233   6.539   6.199  2.3843  2.1098 -1.0504
 4523TIP3    H235061   1.304   6.472   6.082 -1.1078 -2.6835 -0.5851
 4524TIP3   OH235062   2.003   4.445   0.223  0.2947 -0.0790  0.3119
 4524TIP3    H135063   2.048   4.529   0.215  1.3022 -0.4806  1.5505
 4524TIP3    H235064   1.916   4.468   0.258  0.4018  0.4861  0.2129
 4525TIP3   OH235065   4.429   1.210   1.169  0.1977  0.5448 -0.4353
 4525TIP3    H135066   4.510   1.184   1.214  0.0904  1.4385  0.2899
 4525TIP3    H235067   4.429   1.158   1.089  1.3188  0.2848 -0.2838
 4526TIP3   OH235068   2.151   4.744   0.514  0.0643 -0.0665  0.5946
 4526TIP3    H135069   2.069   4.749   0.465  0.5654 -0.1043 -0.2593
 4526TIP3    H235070   2.195   4.827   0.498  1.2987 -0.9752 -0.9649
 4527TIP3   OH235071   0.887   3.688  15.101 -0.5480 -0.6738  0.5043
 4527TIP3    H135072   0.888   3.743  15.179 -2.0584 -1.0945  0.8263
 4527TIP3    H235073   0.964   3.632  15.110  1.2706  1.6241 -0.0296
 4528TIP3   OH235074   5.861   6.011  16.014  0.3814 -0.0520 -0.3918
 4528TIP3    H135075   5.787   6.043  16.065  0.6572  0.7007 -0.4446
 4528TIP3    H235076   5.938   6.036  16.066  0.6213 -0.2012 -0.6720
 4529TIP3   OH235077   4.210   1.762   5.172 -0.0570  0.0390 -0.0733
 4529TIP3    H135078   4.189   1.717   5.254 -0.4269  1.2029  0.4819
 4529TIP3    H235079   4.150   1.724   5.108 -0.5432 -0.0613  0.4426
 4530TIP3   OH235080   2.836   1.146   6.693  0.1733  0.3023 -0.0028
 4530TIP3    H135081   2.828   1.173   6.784 -1.2976  2.4045 -0.6895
 4530TIP3    H235082   2.824   1.227   6.643 -0.8277 -1.0679 -2.1011
 4531TIP3   OH235083   2.324   3.319   2.399  0.0831 -0.3283  0.4798
 4531TIP3    H135084   2.366   3.352   2.479  0.0380 -0.0830  0.4014
 4531TIP3    H235085   2.231   3.316   2.421 -0.3279  2.6718 -0.5718
 4532TIP3   OH235086   0.933   2.037  15.592  0.1177  0.2018  0.1816
 4532TIP3    H135087   1.000   1.988  15.544  0.6702  0.8247  0.3158
 4532TIP3    H235088   0.853   1.985  15.582  0.1754  0.4315 -1.5905
 4533TIP3   OH235089   5.680   3.140   3.723  0.4565 -0.1233  0.1489
 4533TIP3    H135090   5.716   3.160   3.809  1.2989  0.3928 -0.3082
 4533TIP3    H235091   5.748   3.088   3.680  0.3120  0.1563 -0.4263
 4534TIP3   OH235092   1.228   0.526   0.478 -0.0435 -0.5074  0.1075
 4534TIP3    H135093   1.137   0.552   0.489  0.3533  0.8718  0.3021
 4534TIP3    H235094   1.239   0.449   0.533 -1.2931 -1.1311 -0.5287
 4535TIP3   OH235095   5.442   5.041   2.828  0.0515 -0.1279  0.3487
 4535TIP3    H135096   5.474   4.993   2.752 -0.7774 -0.6172  0.3006
 4535TIP3    H235097   5.521   5.079   2.867  0.6222 -0.8354 -0.0888
 4536TIP3   OH235098   0.403   1.631   3.741  0.2530 -0.1293 -0.5163
 4536TIP3    H135099   0.431   1.560   3.799 -0.9568  0.0955  0.3641
 4536TIP3    H235100   0.414   1.710   3.793  0.5370  0.2213 -1.1076
 4537TIP3   OH235101   0.962   2.771  13.933  0.4154  0.7526 -0.2669
 4537TIP3    H135102   0.923   2.688  13.961  0.4682  0.0752 -2.1354
 4537TIP3    H235103   1.052   2.749  13.910  0.5875  1.4379 -0.2536
 4538TIP3   OH235104   1.327   3.417   3.764 -0.2649  0.2623  0.0393
 4538TIP3    H135105   1.401   3.377   3.718  1.4564  0.4384  2.5375
 4538TIP3    H235106   1.286   3.344   3.811 -0.1048  0.5952  0.7009
 4539TIP3   OH235107   4.325   3.832  13.098 -0.3293  0.7075 -0.2186
 4539TIP3    H135108   4.234   3.846  13.126  0.4768  0.6932  2.5293
 4539TIP3    H235109   4.343   3.904  13.037 -1.6720  1.6311  0.4487
 4540TIP3   OH235110   4.739   5.869  14.594 -0.2501  0.0630  0.4126
 4540TIP3    H135111   4.702   5.949  14.632  1.1721  0.5616  0.7857
 4540TIP3    H235112   4.708   5.799  14.652 -1.7643  0.2938 -0.0983
 4541TIP3   OH235113   6.344   5.265  10.535 -0.2638  0.3375 -0.7231
 4541TIP3    H135114   6.282   5.192  10.541 -0.8240  0.9650  1.4588
 4541TIP3    H235115   6.290   5.342  10.519 -0.1195  0.9313  1.4623
 4542TIP3   OH235116   4.788   6.460   4.860  0.5486 -0.2674  0.3853
 4542TIP3    H135117   4.783   6.521   4.787 -2.2976 -0.4850  0.3644
 4542TIP3    H235118   4.875   6.421   4.853  1.2106  1.4687 -1.4357
 4543TIP3   OH235119   0.627   1.132  11.303 -0.0262  0.9666  0.0366
 4543TIP3    H135120   0.579   1.087  11.373 -1.8206 -0.8731 -2.2862
 4543TIP3    H235121   0.608   1.225  11.317 -0.6931  0.5965  1.7248
 4544TIP3   OH235122   4.741   0.921  11.467 -0.5774  0.0717  0.2568
 4544TIP3    H135123   4.676   0.978  11.426 -0.6702 -1.2605 -1.5227
 4544TIP3    H235124   4.716   0.918  11.560 -2.5961  0.2011 -0.2603
 4545TIP3   OH235125   1.701   6.801  12.727  1.0378 -0.2239  0.6429
 4545TIP3    H135126   1.706   6.715  12.768  0.4268 -1.3922 -1.6455
 4545TIP3    H235127   1.676   6.783  12.636  0.6782  2.3855  0.1837
 4546TIP3   OH235128   3.377   5.811  12.276  0.6555  0.0653  1.3123
 4546TIP3    H135129   3.325   5.799  12.356 -1.5569  1.4082  0.1319
 4546TIP3    H235130   3.335   5.884  12.231  0.4035 -2.0778 -2.1721
 4547TIP3   OH235131   0.627   3.286   4.008  0.2308 -0.1490 -0.4539
 4547TIP3    H135132   0.674   3.281   3.925  2.2653  2.1258  0.4793
 4547TIP3    H235133   0.680   3.234   4.068  0.5162  0.7988  0.1354
 4548TIP3   OH235134   1.140   5.372   5.037  0.1136  1.0022 -0.2453
 4548TIP3    H135135   1.197   5.426   5.093 -1.3428  3.0742 -0.6857
 4548TIP3    H235136   1.156   5.405   4.949  1.6200 -1.5429 -0.9856
 4549TIP3   OH235137   2.820   0.325  12.357 -0.8156 -0.0198 -0.4639
 4549TIP3    H135138   2.766   0.248  12.340  0.7730 -1.9374  2.6643
 4549TIP3    H235139   2.762   0.385  12.404 -0.6365 -1.5155  1.7191
 4550TIP3   OH235140   5.575   5.494   3.987 -0.6989 -0.0724  0.4243
 4550TIP3    H135141   5.493   5.497   4.036 -0.9430 -2.1466  0.2259
 4550TIP3    H235142   5.637   5.544   4.039 -1.4078 -0.7810  1.9763
 4551TIP3   OH235143   1.086   3.232  15.443 -0.4775  0.0744  0.3982
 4551TIP3    H135144   1.077   3.146  15.402 -0.2491  0.2742 -0.0826
 4551TIP3    H235145   1.093   3.214  15.536  3.6066 -0.7613  0.0434
 4552TIP3   OH235146   3.665   6.812  10.848  0.2587  0.2973  0.3236
 4552TIP3    H135147   3.628   6.757  10.779 -0.7322 -0.3532  1.3586
 4552TIP3    H235148   3.591   6.864  10.880  1.3407  2.8636 -1.1970
 4553TIP3   OH235149   1.887   1.100   4.295 -0.2742  0.2775  0.1347
 4553TIP3    H135150   1.828   1.169   4.265 -1.3100  0.1976  1.9051
 4553TIP3    H235151   1.846   1.018   4.266  0.3457  0.3494 -0.9454
 4554TIP3   OH235152   4.274   6.421   1.479 -0.2985 -0.7043  0.1890
 4554TIP3    H135153   4.364   6.443   1.504  0.2576 -1.6511 -0.9088
 4554TIP3    H235154   4.254   6.480   1.406 -0.4589 -0.6789  0.2546
 4555TIP3   OH235155   2.193   0.449  14.722 -0.0086  0.2250 -0.4988
 4555TIP3    H135156   2.217   0.539  14.701  1.6393  0.5124  2.3683
 4555TIP3    H235157   2.251   0.395  14.669  1.1242  0.8897  0.0497
 4556TIP3   OH235158   4.978   6.195   5.953  0.0251 -0.4137  0.0454
 4556TIP3    H135159   4.899   6.232   5.916  1.2308  3.2233  0.8847
 4556TIP3    H235160   4.966   6.202   6.048  2.6769  3.5581  0.2330
 4557TIP3   OH235161   6.346   5.082   5.039 -0.3902  0.2189  0.1585
 4557TIP3    H135162   6.270   5.139   5.022  0.5211  1.6738  0.8523
 4557TIP3    H235163   6.343   5.017   4.969 -1.8981  0.6625 -0.2141
 4558TIP3   OH235164   5.143   5.558  16.709 -0.0784  0.2199  0.0070
 4558TIP3    H135165   5.195   5.526  16.783  0.7180 -0.4323 -0.8328
 4558TIP3    H235166   5.068   5.601  16.750 -1.0244 -2.4180  1.1760
 4559TIP3   OH235167   1.599   2.365  14.016 -0.2193  0.2192 -0.2746
 4559TIP3    H135168   1.538   2.404  14.079  0.3495 -4.4294  3.4639
 4559TIP3    H235169   1.543   2.322  13.951 -0.9878 -0.8077  1.0271
 4560TIP3   OH235170   1.847   6.202  10.904  0.3227  0.2068 -0.2906
 4560TIP3    H135171   1.854   6.106  10.903 -0.8245  0.1322 -0.9768
 4560TIP3    H235172   1.820   6.225  10.815  1.1416  1.2194 -0.2860
 4561TIP3   OH235173   4.596   2.686   3.122 -0.3811 -0.2038 -0.5814
 4561TIP3    H135174   4.626   2.652   3.038 -0.6303 -1.1225 -0.3074
 4561TIP3    H235175   4.522   2.743   3.099 -0.7002 -0.7558 -0.9624
 4562TIP3   OH235176   3.302   4.427  13.346 -0.2842 -0.3681  0.4505
 4562TIP3    H135177   3.325   4.513  13.313 -2.4103 -0.2391 -0.7933
 4562TIP3    H235178   3.373   4.370  13.316  0.3514  0.6690 -0.0388
 4563TIP3   OH235179   6.271   1.534   3.400  0.3722  0.6866 -0.3797
 4563TIP3    H135180   6.341   1.503   3.343 -0.8023 -0.6208 -1.1373
 4563TIP3    H235181   6.194   1.539   3.343 -0.4191  1.0327  0.7002
 4564TIP3   OH235182   0.417   5.541  14.302 -0.5839 -0.3016 -0.5695
 4564TIP3    H135183   0.477   5.527  14.375 -1.1448  1.3353  0.2366
 4564TIP3    H235184   0.455   5.615  14.253 -0.5529 -0.9672 -1.5676
 4565TIP3   OH235185   5.863   5.816   1.893 -0.1554  1.1819  0.1925
 4565TIP3    H135186   5.958   5.813   1.882 -0.4152 -0.7296 -1.8909
 4565TIP3    H235187   5.846   5.903   1.929  2.3076  1.8041 -0.0449
 4566TIP3   OH235188   2.236   0.156  11.907  0.3680  0.3294 -0.2061
 4566TIP3    H135189   2.290   0.215  11.961  1.3697 -1.4267  0.7415
 4566TIP3    H235190   2.296   0.126  11.839 -0.0696  0.1742 -0.5200
 4567TIP3   OH235191   1.308   1.374  17.012 -0.0270  0.2187  0.1794
 4567TIP3    H135192   1.370   1.303  16.992 -0.3693  0.3148 -1.3043
 4567TIP3    H235193   1.222   1.334  16.998 -0.1903  1.4355 -2.5199
 4568TIP3   OH235194   4.598   3.392   3.694  0.0989  0.6601  0.2108
 4568TIP3    H135195   4.615   3.326   3.627  0.8028  0.3229  0.7109
 4568TIP3    H235196   4.683   3.405   3.737 -0.2972  1.0222  0.8972
 4569TIP3   OH235197   2.625   5.368  12.740  0.3489  0.1280 -0.0150
 4569TIP3    H135198   2.644   5.400  12.828 -0.0719  0.3664 -0.0081
 4569TIP3    H235199   2.574   5.289  12.753  0.7430 -0.1285 -0.0398
 4570TIP3   OH235200   3.634   0.966   5.643  0.2198 -0.3677 -0.2105
 4570TIP3    H135201   3.672   0.927   5.564 -1.2655 -1.5043 -0.3795
 4570TIP3    H235202   3.548   0.924   5.652 -0.1843  0.7285  1.2628
 4571TIP3   OH235203   4.458   1.017   3.980 -0.1036 -0.0808  0.1187
 4571TIP3    H135204   4.416   1.042   3.898  1.8001 -1.2816 -1.2695
 4571TIP3    H235205   4.551   1.007   3.957  0.4221 -0.6671  2.3699
 4572TIP3   OH235206   6.461   0.433   1.710  0.1408 -0.0418  0.0349
 4572TIP3    H135207   6.434   0.370   1.777 -0.9357 -0.9882 -1.2876
 4572TIP3    H235208   6.400   0.421   1.638  0.9638  1.3464 -0.9330
 4573TIP3   OH235209   4.760   4.195   0.171  0.6432 -0.8304  0.3747
 4573TIP3    H135210   4.798   4.113   0.203  0.7955 -1.4606 -1.3724
 4573TIP3    H235211   4.666   4.180   0.170  0.3893  0.1850  3.1848
 4574TIP3   OH235212   2.839   3.846  14.079 -0.5510 -0.0083 -0.1731
 4574TIP3    H135213   2.914   3.888  14.120  0.5746 -0.0297 -2.1484
 4574TIP3    H235214   2.792   3.805  14.152 -0.5112  2.8292  1.5308
 4575TIP3   OH235215   0.392   1.369  10.615  0.0999  0.3118  0.3360
 4575TIP3    H135216   0.318   1.365  10.554 -1.4930 -2.2746  2.3469
 4575TIP3    H235217   0.369   1.438  10.677 -0.4387 -0.2204  0.7274
 4576TIP3   OH235218   3.796   6.127  14.580  0.8453 -0.2378  0.3242
 4576TIP3    H135219   3.853   6.201  14.600  1.5530 -1.0317  1.2626
 4576TIP3    H235220   3.729   6.129  14.648  0.5961 -0.1958  0.0808
 4577TIP3   OH235221   0.895   3.762  14.830 -0.6152  0.0942  0.3150
 4577TIP3    H135222   0.873   3.763  14.923  0.2420  2.3378  0.5086
 4577TIP3    H235223   0.978   3.713  14.825 -0.5338  0.1916  0.7505
 4578TIP3   OH235224   1.449   4.975   4.917  0.3876  0.1994 -0.0776
 4578TIP3    H135225   1.478   4.955   4.828  0.2670  0.4080 -0.1651
 4578TIP3    H235226   1.431   4.890   4.957 -0.4137  0.1409 -0.5449
 4579TIP3   OH235227   1.606   5.129   2.746 -0.4795 -0.5564  0.3661
 4579TIP3    H135228   1.542   5.088   2.804 -0.0284 -1.8825 -0.0466
 4579TIP3    H235229   1.591   5.086   2.661  1.3028 -1.2732  0.3922
 4580TIP3   OH235230   0.060   3.595  16.699  0.6376  0.4662 -0.0262
 4580TIP3    H135231   0.121   3.600  16.626  2.0922  1.4347  1.2050
 4580TIP3    H235232  -0.013   3.652  16.675  1.1630  0.8614 -0.6771
 4581TIP3   OH235233   4.384   0.074   1.329 -0.5354  0.0068  0.0014
 4581TIP3    H135234   4.446   0.146   1.319  0.5427 -0.9039 -0.1025
 4581TIP3    H235235   4.312   0.095   1.270  0.6514  0.0903 -1.4632
 4582TIP3   OH235236   2.644   1.743  15.143  0.3834 -0.7610  0.3940
 4582TIP3    H135237   2.661   1.791  15.223  0.0149  0.7788 -0.4401
 4582TIP3    H235238   2.667   1.803  15.073  1.0981 -2.2286 -0.6677
 4583TIP3   OH235239   5.443   4.647   6.318 -0.7790 -0.3534  0.1827
 4583TIP3    H135240   5.489   4.720   6.277 -1.5495  0.1085  0.1298
 4583TIP3    H235241   5.478   4.569   6.274 -0.7052  0.0561 -0.4900
 4584TIP3   OH235242   5.313   3.073   1.937  0.4040  0.9241 -0.4578
 4584TIP3    H135243   5.405   3.062   1.913  0.3445  0.4494 -0.4858
 4584TIP3    H235244   5.265   3.035   1.864  0.1721  1.7147 -0.7181
 4585TIP3   OH235245   2.637   5.501   2.194 -0.1453 -0.4560 -0.5732
 4585TIP3    H135246   2.682   5.518   2.112 -1.6222  0.2654 -1.2511
 4585TIP3    H235247   2.680   5.422   2.229  0.5664 -0.6970 -1.9637
 4586TIP3   OH235248   0.811   1.246  17.220 -0.0402 -0.5650  0.5661
 4586TIP3    H135249   0.768   1.161  17.216  2.6200 -1.9131 -1.2418
 4586TIP3    H235250   0.901   1.226  17.248  0.2361  1.8182  1.4801
 4587TIP3   OH235251   2.563   2.583  10.791 -0.6545  0.1320 -0.2307
 4587TIP3    H135252   2.511   2.557  10.867  0.6820  0.2838  0.7521
 4587TIP3    H235253   2.541   2.519  10.723  0.0746 -1.5563  1.0904
 4588TIP3   OH235254   3.749   2.839  11.935  0.1435  0.3555 -0.4526
 4588TIP3    H135255   3.668   2.795  11.911  0.0490  0.3739 -0.1694
 4588TIP3    H235256   3.753   2.832  12.031 -0.2799  1.6736 -0.3367
 4589TIP3   OH235257   5.649   0.073  11.693 -0.5856 -0.1308 -0.3989
 4589TIP3    H135258   5.660   0.110  11.605  0.3870 -0.2991 -0.3560
 4589TIP3    H235259   5.706   0.126  11.749  1.8173 -2.4303 -0.5561
 4590TIP3   OH235260   2.379   6.714   1.862  0.4903 -0.1437 -0.0894
 4590TIP3    H135261   2.299   6.751   1.825  0.8531  0.8348  0.0873
 4590TIP3    H235262   2.443   6.785   1.858  1.1446 -0.6845  0.4607
 4591TIP3   OH235263   4.930   3.577   1.434  0.2228  0.2307  0.2690
 4591TIP3    H135264   4.940   3.598   1.527  0.4697 -3.0710  1.0633
 4591TIP3    H235265   4.875   3.647   1.399  1.5658  2.4717  2.4842
 4592TIP3   OH235266   6.024   5.233  14.663  0.4214 -0.1449  0.1493
 4592TIP3    H135267   5.954   5.286  14.626  0.1193 -0.4468  0.2811
 4592TIP3    H235268   6.088   5.224  14.591  0.3976  0.2531  0.0766
 4593TIP3   OH235269   0.329   1.871  12.879  0.3935  0.2029 -0.3213
 4593TIP3    H135270   0.349   1.960  12.908  0.0798 -0.3978  1.8967
 4593TIP3    H235271   0.233   1.867  12.881  0.3901 -0.0189 -0.9478
 4594TIP3   OH235272   2.383   1.520  13.617  0.4164 -0.5890 -0.2469
 4594TIP3    H135273   2.431   1.481  13.544  0.4350  1.3563 -1.3145
 4594TIP3    H235274   2.433   1.599  13.639 -2.5324  1.8284 -1.8009
 4595TIP3   OH235275   0.137   4.064   1.418  0.7655  0.4544 -0.1017
 4595TIP3    H135276   0.149   4.143   1.364 -0.1297 -0.0261 -1.0167
 4595TIP3    H235277   0.048   4.073   1.454  0.3862 -0.4970 -0.8012
 4596TIP3   OH235278   2.388   5.513  16.441 -0.4940 -0.3735  0.6060
 4596TIP3    H135279   2.366   5.606  16.449 -0.0500 -0.1783 -0.3194
 4596TIP3    H235280   2.306   5.467  16.456 -0.8102  0.1910  0.6121
 4597TIP3   OH235281   3.372   1.242  14.977 -0.8113 -0.2845 -0.1607
 4597TIP3    H135282   3.343   1.162  14.933  3.1347 -1.7058 -0.3636
 4597TIP3    H235283   3.383   1.217  15.069  1.3302 -0.2611 -0.3955
 4598TIP3   OH235284   4.378   6.131   0.609 -0.1019 -0.3960 -0.5099
 4598TIP3    H135285   4.456   6.187   0.619  0.4756 -1.0460 -1.2893
 4598TIP3    H235286   4.331   6.141   0.692  1.3801 -0.8393  0.4094
 4599TIP3   OH235287   3.977   6.652  11.730  0.0012 -0.3944  0.0584
 4599TIP3    H135288   3.967   6.569  11.777  0.2512 -0.1883  0.4826
 4599TIP3    H235289   4.069   6.676  11.742 -0.1008  0.0082  0.0523
 4600TIP3   OH235290   0.823   4.515  15.964  0.2693 -0.9540  0.1206
 4600TIP3    H135291   0.806   4.566  15.885  0.6795 -1.1479 -0.0993
 4600TIP3    H235292   0.823   4.424  15.934  4.2086 -0.8834 -0.4296
 4601TIP3   OH235293   0.508   3.242   6.874 -0.1536 -0.2820 -0.2119
 4601TIP3    H135294   0.473   3.253   6.786 -0.3587 -0.8850 -0.2086
 4601TIP3    H235295   0.528   3.331   6.903  1.1773 -0.1868 -1.3681
 4602TIP3   OH235296   1.573   3.408  16.876  0.2033  0.2464  0.0987
 4602TIP3    H135297   1.629   3.485  16.873  0.1788  0.2699  0.2289
 4602TIP3    H235298   1.540   3.398  16.786  1.8521 -0.8351 -0.4100
 4603TIP3   OH235299   6.064   4.995  13.320  0.5419 -0.0039  0.9333
 4603TIP3    H135300   6.054   5.032  13.408 -0.3578 -0.1958  0.9153
 4603TIP3    H235301   6.122   5.056  13.275 -1.1902  1.5951  0.7870
 4604TIP3   OH235302   3.299   3.963  14.484 -0.0158  0.1687 -0.3899
 4604TIP3    H135303   3.312   3.940  14.576  3.9258  1.8560 -0.4529
 4604TIP3    H235304   3.280   3.880  14.441 -1.8956 -0.6479  1.8714
 4605TIP3   OH235305   4.017   1.818  11.326 -0.2555  0.0476 -0.9702
 4605TIP3    H135306   4.017   1.836  11.420  2.6496  1.4631 -1.1958
 4605TIP3    H235307   3.975   1.895  11.287 -0.7413 -0.1840 -0.9149
 4606TIP3   OH235308   5.699   5.421  17.030  0.5132  0.6565  0.3841
 4606TIP3    H135309   5.621   5.376  16.998  0.7378  1.2755 -1.0997
 4606TIP3    H235310   5.666   5.504  17.064  0.4050  0.4778  0.7160
 4607TIP3   OH235311   1.151   5.810  16.114  0.3085 -0.1437 -0.0880
 4607TIP3    H135312   1.232   5.760  16.110  0.6765  0.3873  0.6010
 4607TIP3    H235313   1.118   5.797  16.203 -1.1113 -1.5045 -0.7940
 4608TIP3   OH235314   5.331   4.742  14.851 -0.3027  0.2494 -0.0130
 4608TIP3    H135315   5.396   4.802  14.887  0.1104 -0.4854  0.5046
 4608TIP3    H235316   5.247   4.775  14.884 -0.4796  2.6967 -2.7982
 4609TIP3   OH235317   3.506   0.072   4.290 -0.3362  0.3615  0.3067
 4609TIP3    H135318   3.586   0.027   4.263  0.1949 -1.3786  4.4579
 4609TIP3    H235319   3.505   0.153   4.238  3.3913 -0.2055 -0.7590
 4610TIP3   OH235320   1.448   2.472   5.514  0.7058 -0.0828  0.4692
 4610TIP3    H135321   1.541   2.451   5.516  0.4332 -1.4877 -0.4807
 4610TIP3    H235322   1.407   2.403   5.566 -0.0754 -1.2360 -1.5787
 4611TIP3   OH235323   0.877   3.484   3.517  0.0230  1.1661  0.6430
 4611TIP3    H135324   0.940   3.524   3.457 -1.0465  1.2245 -0.4538
 4611TIP3    H235325   0.918   3.402   3.545  0.0797  0.6226 -1.0059
 4612TIP3   OH235326   6.041   0.252  16.781  0.0033 -0.1504 -0.3140
 4612TIP3    H135327   6.022   0.281  16.691  0.2391 -2.6305 -1.1845
 4612TIP3    H235328   5.987   0.174  16.793  0.0128  0.1200  1.7126
 4613TIP3   OH235329   5.297   2.174  13.127 -0.9536 -0.1111 -0.0006
 4613TIP3    H135330   5.239   2.249  13.134 -1.6539 -0.6292 -0.1486
 4613TIP3    H235331   5.385   2.209  13.144 -1.3487  0.6179  0.5477
 4614TIP3   OH235332   4.495   5.779   3.967  0.1803  0.2517 -0.2457
 4614TIP3    H135333   4.538   5.847   4.018  0.8537 -0.2062 -0.2072
 4614TIP3    H235334   4.565   5.737   3.918 -0.4546  0.6920 -1.5707
 4615TIP3   OH235335   5.084   0.066   4.585  0.1746  0.3664 -0.0162
 4615TIP3    H135336   5.073   0.152   4.626 -1.9959  0.7174 -1.1994
 4615TIP3    H235337   5.051   0.004   4.650  2.1942  0.3690  1.0302
 4616TIP3   OH235338   4.283   3.634  13.460 -0.7937  0.2984  0.0967
 4616TIP3    H135339   4.197   3.592  13.453 -0.6658  0.2238 -1.1836
 4616TIP3    H235340   4.264   3.728  13.458 -0.7105  0.3099 -2.6565
 4617TIP3   OH235341   6.463   0.920  15.083 -0.2140 -0.0518 -0.1512
 4617TIP3    H135342   6.530   0.967  15.133  0.3857 -2.1143  1.0623
 4617TIP3    H235343   6.513   0.868  15.020 -0.8660  0.8291 -1.4089
 4618TIP3   OH235344   0.838   4.324   2.644 -0.1351  0.0052 -0.3843
 4618TIP3    H135345   0.846   4.420   2.643  0.5953 -0.0596 -1.8003
 4618TIP3    H235346   0.747   4.308   2.666 -0.1375  1.0243  0.3991
 4619TIP3   OH235347   0.751   6.378   6.682  0.0338 -0.0428 -0.0093
 4619TIP3    H135348   0.788   6.452   6.731 -1.0738 -0.2624  1.1681
 4619TIP3    H235349   0.826   6.320   6.668  0.6377  0.6562  0.2399
 4620TIP3   OH235350   1.030   3.767  12.384  0.4293 -0.4462 -0.3430
 4620TIP3    H135351   0.999   3.770  12.475  2.3643  2.2428  0.2993
 4620TIP3    H235352   0.950   3.773  12.331 -0.7463 -2.3021  1.1391
 4621TIP3   OH235353   5.734   1.972  12.793 -0.4937  0.0603 -0.7388
 4621TIP3    H135354   5.783   1.902  12.750 -1.7678 -0.9167 -0.6316
 4621TIP3    H235355   5.724   2.040  12.726  2.0059  0.8069 -0.4210
 4622TIP3   OH235356   5.083   3.896   5.049  0.1674  0.2322  0.1731
 4622TIP3    H135357   5.143   3.971   5.049  0.0365  0.3394 -0.8449
 4622TIP3    H235358   4.997   3.935   5.035 -0.1311  0.0612  1.4708
 4623TIP3   OH235359   2.344   6.163   1.602  0.3093 -0.2800  0.1761
 4623TIP3    H135360   2.392   6.105   1.543 -1.1063  0.1491 -1.4607
 4623TIP3    H235361   2.286   6.106   1.651 -0.2505 -0.4020 -0.6090
 4624TIP3   OH235362   5.286   1.279   2.422 -0.3296 -1.0676  0.0484
 4624TIP3    H135363   5.292   1.259   2.515 -0.2972  0.3339  0.3662
 4624TIP3    H235364   5.352   1.224   2.381  0.2783 -1.0330  0.9682
 4625TIP3   OH235365   5.662   6.106   5.464  0.4038  0.7127 -0.7499
 4625TIP3    H135366   5.577   6.143   5.442 -0.6509 -0.8186  0.5646
 4625TIP3    H235367   5.713   6.179   5.497 -0.3754  1.6606 -1.6186
 4626TIP3   OH235368   0.108   5.036   4.286  0.4303 -0.5528  0.7751
 4626TIP3    H135369   0.157   5.119   4.287  2.7109 -1.7748 -2.0830
 4626TIP3    H235370   0.019   5.061   4.263  0.3132  1.4138  3.0736
 4627TIP3   OH235371   4.878   1.866   0.623 -0.0664  0.5352  0.3614
 4627TIP3    H135372   4.862   1.772   0.636 -2.5178  0.8171 -0.2979
 4627TIP3    H235373   4.819   1.890   0.551  1.6917  2.2700 -0.5472
 4628TIP3   OH235374   2.783   0.912   6.319  0.2696  0.3888 -0.6691
 4628TIP3    H135375   2.851   0.912   6.386  1.6316 -2.1486 -1.9451
 4628TIP3    H235376   2.700   0.919   6.367  1.2051 -1.5754  1.2930
 4629TIP3   OH235377   1.986   4.007  15.745 -0.1430 -0.6486  0.2441
 4629TIP3    H135378   2.080   3.990  15.746 -0.4943 -2.8562 -0.9099
 4629TIP3    H235379   1.973   4.067  15.672  0.2331 -1.1503 -0.2353
 4630TIP3   OH235380   2.126   1.903   1.657  0.5908 -0.2520  0.0734
 4630TIP3    H135381   2.087   1.839   1.598  1.0615 -0.4158 -0.0695
 4630TIP3    H235382   2.059   1.920   1.723  0.0665 -0.0740 -0.5034
 4631TIP3   OH235383   0.442   1.080   5.035 -0.2309  0.9551  0.0643
 4631TIP3    H135384   0.426   1.136   5.112 -0.6727  0.2567  0.4888
 4631TIP3    H235385   0.434   0.991   5.069 -1.1295  0.6450 -0.9362
 4632TIP3   OH235386   5.585   2.561   4.392  0.0451  0.7920  0.5081
 4632TIP3    H135387   5.567   2.612   4.313 -2.1640  1.7759  1.5991
 4632TIP3    H235388   5.670   2.593   4.423  0.7430  0.6653 -1.2451
 4633TIP3   OH235389   2.269   2.214  14.063  0.0850 -0.6243 -0.2379
 4633TIP3    H135390   2.182   2.251  14.078 -0.0363 -0.9610 -0.1159
 4633TIP3    H235391   2.278   2.145  14.128  0.7684 -0.0536  0.2784
 4634TIP3   OH235392   4.041   5.749   3.219  0.2307 -0.2553  0.2778
 4634TIP3    H135393   4.082   5.713   3.141  0.5125 -0.0209  0.3186
 4634TIP3    H235394   3.970   5.803   3.185 -0.4340 -1.1441  0.2277
 4635TIP3   OH235395   4.084   4.275   4.198  0.2253 -0.2424 -0.1536
 4635TIP3    H135396   4.053   4.337   4.264  1.0922  0.5265 -0.4565
 4635TIP3    H235397   4.143   4.326   4.142 -0.0373 -1.0293 -1.1730
 4636TIP3   OH235398   4.209   5.210   3.396  0.0548  0.1058 -0.2388
 4636TIP3    H135399   4.290   5.223   3.446  0.3452 -2.6084  0.0745
 4636TIP3    H235400   4.139   5.238   3.455  0.5703 -0.6024  0.7192
 4637TIP3   OH235401   4.918   6.665  12.677  0.3784  0.0701  0.4025
 4637TIP3    H135402   4.864   6.677  12.755 -0.5420 -1.5366  0.0243
 4637TIP3    H235403   4.857   6.677  12.604  0.9785  0.3556 -0.0511
 4638TIP3   OH235404   2.346   3.973  16.858  0.2547 -0.2084  0.0659
 4638TIP3    H135405   2.323   3.979  16.951 -0.1542  0.1270 -0.0544
 4638TIP3    H235406   2.295   3.898  16.826  0.3627 -0.2974  0.1018
 4639TIP3   OH235407   4.178   5.067  12.735  0.1317 -0.1658 -0.0168
 4639TIP3    H135408   4.182   5.032  12.646 -1.6807  1.5600 -0.8237
 4639TIP3    H235409   4.153   5.159  12.724  2.1959  0.7284  2.1733
 4640TIP3   OH235410   2.286   0.836  16.303 -0.6059  0.0468 -0.3958
 4640TIP3    H135411   2.252   0.749  16.283  0.2451 -0.3466 -0.1418
 4640TIP3    H235412   2.377   0.821  16.331 -0.8032  0.8857  0.7466
 4641TIP3   OH235413   0.714   6.455   2.088  0.4787 -0.1203 -0.2796
 4641TIP3    H135414   0.702   6.549   2.069 -0.5359  0.0500  1.0471
 4641TIP3    H235415   0.676   6.410   2.013  0.5039  0.5393 -0.6895
 4642TIP3   OH235416   5.685   0.681  11.091  0.0026  0.7009 -0.1247
 4642TIP3    H135417   5.732   0.679  11.008  2.0118 -0.0704  0.9934
 4642TIP3    H235418   5.754   0.678  11.158 -1.5963  0.4969  1.5600
 4643TIP3   OH235419   0.471   0.293  11.859  0.0647  0.0014  0.2703
 4643TIP3    H135420   0.463   0.286  11.764  0.5713 -2.1170  0.3720
 4643TIP3    H235421   0.485   0.387  11.875 -1.2886  0.5574 -1.6302
 4644TIP3   OH235422   5.585   5.763  13.129 -0.2657 -1.1250  0.1934
 4644TIP3    H135423   5.611   5.690  13.073 -2.1063 -0.5335 -1.5121
 4644TIP3    H235424   5.635   5.838  13.097 -1.2934 -0.7935 -0.6666
 4645TIP3   OH235425   1.685   5.263   1.730 -0.0512  0.1194  0.0784
 4645TIP3    H135426   1.657   5.344   1.774  0.8789 -0.3656  1.6086
 4645TIP3    H235427   1.656   5.274   1.640 -0.1576  2.0644  0.3185
 4646TIP3   OH235428   6.428   1.250  11.379 -0.0231 -0.2619 -0.4397
 4646TIP3    H135429   6.498   1.270  11.316  0.7223  2.0530  1.0411
 4646TIP3    H235430   6.349   1.244  11.326  0.7072  0.9372 -1.7156
 4647TIP3   OH235431   5.794   1.016   4.384 -0.3219 -0.4047 -0.6861
 4647TIP3    H135432   5.798   1.000   4.478 -0.5722 -2.1834 -0.9602
 4647TIP3    H235433   5.838   0.940   4.345  0.5793  0.7470 -1.9745
 4648TIP3   OH235434   2.752   6.282  16.179 -0.3246  0.3813  0.4179
 4648TIP3    H135435   2.784   6.248  16.096 -0.5959  1.7327 -0.2469
 4648TIP3    H235436   2.698   6.212  16.215 -1.0639  0.1792 -1.0429
 4649TIP3   OH235437   1.418   3.433  12.317 -0.4448 -0.6109 -0.1246
 4649TIP3    H135438   1.463   3.496  12.260  0.8694 -0.9578  0.5083
 4649TIP3    H235439   1.400   3.358  12.260 -0.1847 -0.4861 -0.3724
 4650TIP3   OH235440   3.421   6.257   5.507  0.5814  0.5937 -0.1663
 4650TIP3    H135441   3.492   6.227   5.450  0.4335  1.3530 -0.7526
 4650TIP3    H235442   3.342   6.218   5.468  0.7104 -0.6354  0.7515
 4651TIP3   OH235443   3.929   5.492  11.796  0.9024 -0.3156 -0.3535
 4651TIP3    H135444   3.939   5.532  11.882  0.4703 -0.9075 -0.0183
 4651TIP3    H235445   3.937   5.398  11.813  2.6516 -0.3452 -1.2388
 4652TIP3   OH235446   1.708   1.178  13.238 -0.5062  0.1350 -0.1582
 4652TIP3    H135447   1.744   1.187  13.326 -0.8268  0.3994 -0.0534
 4652TIP3    H235448   1.758   1.106  13.199 -0.9072 -0.5165  0.5167
 4653TIP3   OH235449   2.520   2.710  16.257  0.5517 -0.3854 -0.1796
 4653TIP3    H135450   2.491   2.783  16.312 -1.7602 -1.9455  0.7895
 4653TIP3    H235451   2.603   2.682  16.296  0.2151  0.1773  0.9736
 4654TIP3   OH235452   5.538   2.399  15.406 -0.1785 -0.2057 -0.8039
 4654TIP3    H135453   5.445   2.406  15.427  0.3813 -0.4310  2.0047
 4654TIP3    H235454   5.565   2.315  15.444  1.4614  0.5128 -0.3220
 4655TIP3   OH235455   3.078   3.671  16.310  0.5025  0.0733  0.4784
 4655TIP3    H135456   3.028   3.738  16.357 -0.9475 -0.8627  0.3021
 4655TIP3    H235457   3.017   3.635  16.246  1.9702  0.1816 -1.0303
 4656TIP3   OH235458   0.816   5.285   1.422 -0.4467 -0.3475  0.9247
 4656TIP3    H135459   0.774   5.371   1.416  0.2505 -0.0295  0.4313
 4656TIP3    H235460   0.856   5.272   1.336  1.2538 -0.2160  1.6613
 4657TIP3   OH235461   1.357   0.884   2.576  0.0816 -0.2359 -0.0638
 4657TIP3    H135462   1.344   0.795   2.609 -1.2905 -0.3670 -0.9328
 4657TIP3    H235463   1.287   0.935   2.617  2.3665  1.0222  2.4573
 4658TIP3   OH235464   4.156   2.568   3.551 -0.0667  0.2786 -0.0893
 4658TIP3    H135465   4.189   2.506   3.616 -0.1748 -0.0989 -0.3967
 4658TIP3    H235466   4.194   2.652   3.578  0.0800  0.0831  0.3265
 4659TIP3   OH235467   3.743   2.484  15.330 -0.2755 -0.0067  0.6015
 4659TIP3    H135468   3.729   2.550  15.397 -2.1244  1.4669 -1.1481
 4659TIP3    H235469   3.829   2.447  15.349  0.3248  2.1514  2.2626
 4660TIP3   OH235470   2.475   0.956   0.019  0.0462  0.0149 -0.1367
 4660TIP3    H135471   2.540   0.913  -0.036  0.7490  0.9185 -0.0159
 4660TIP3    H235472   2.404   0.978  -0.042  0.2693 -0.1104 -0.4448
 4661TIP3   OH235473   3.681   0.202  14.922  0.0332  0.1395 -0.1786
 4661TIP3    H135474   3.684   0.112  14.889 -2.1200  0.1956 -0.6562
 4661TIP3    H235475   3.601   0.238  14.884 -0.8935  1.1990  2.6475
 4662TIP3   OH235476   4.253   4.713   2.845  0.3424 -0.1581 -0.2860
 4662TIP3    H135477   4.246   4.624   2.880  2.3234  0.0216  0.6214
 4662TIP3    H235478   4.245   4.702   2.750 -1.5502 -1.0517 -0.0347
 4663TIP3   OH235479   2.563   4.123   5.125  0.4147  0.5451 -0.2526
 4663TIP3    H135480   2.626   4.067   5.172 -0.6599  0.9553  1.7287
 4663TIP3    H235481   2.577   4.210   5.161  0.5492  1.1664 -1.7578
 4664TIP3   OH235482   1.344   2.487   3.316 -0.5120 -0.3650 -0.2763
 4664TIP3    H135483   1.404   2.438   3.260 -0.6179 -0.6255 -0.1625
 4664TIP3    H235484   1.361   2.454   3.404 -0.3424  0.0498 -0.1533
 4665TIP3   OH235485   6.395   4.163  17.075  0.5090 -0.6247  0.2321
 4665TIP3    H135486   6.329   4.229  17.096  0.2695 -0.1965 -1.7141
 4665TIP3    H235487   6.344   4.088  17.045  0.8852 -0.1652 -1.6293
 4666TIP3   OH235488   4.907   1.106  15.493 -0.5392  0.7604 -0.2220
 4666TIP3    H135489   4.884   1.193  15.460  0.3576  1.2482  0.4195
 4666TIP3    H235490   4.946   1.122  15.579  1.0518 -0.1213 -0.7494
 4667TIP3   OH235491   3.897   3.923   3.694 -0.4317 -0.4212  0.5494
 4667TIP3    H135492   3.840   3.972   3.635  1.9513 -1.1734 -2.4695
 4667TIP3    H235493   3.952   3.990   3.735  0.5747 -0.2520 -1.0637
 4668TIP3   OH235494   6.387   2.040   5.955  0.1395  0.4977 -0.2297
 4668TIP3    H135495   6.483   2.037   5.958  0.1809  1.3274 -0.3783
 4668TIP3    H235496   6.365   2.009   5.868  0.2067 -0.8164  0.2136
 4669TIP3   OH235497   4.591   2.839   0.270  0.7640  0.2298 -0.7181
 4669TIP3    H135498   4.544   2.767   0.310  1.2385 -0.5447 -1.5368
 4669TIP3    H235499   4.622   2.892   0.343 -0.1484 -0.0409 -0.1421
 4670TIP3   OH235500   6.058   2.279  15.850  0.2599 -0.3439 -0.0485
 4670TIP3    H135501   5.978   2.279  15.798 -0.5136 -0.0914  1.1259
 4670TIP3    H235502   6.095   2.191  15.839 -0.0924 -0.4057 -0.7161
 4671TIP3   OH235503   0.995   3.501  13.803  0.2071  0.3385 -0.3078
 4671TIP3    H135504   0.953   3.567  13.859  1.2021 -0.5785  1.5645
 4671TIP3    H235505   1.026   3.435  13.864  1.0362 -0.8628 -2.0057
 4672TIP3   OH235506   0.817   0.492   1.340 -0.3586 -0.2847  0.0499
 4672TIP3    H135507   0.909   0.473   1.358 -0.5108  0.1110  1.2921
 4672TIP3    H235508   0.775   0.406   1.334 -0.0489 -0.4476  0.2357
 4673TIP3   OH235509   2.359   3.215  14.725  0.5475  0.1919 -0.4189
 4673TIP3    H135510   2.308   3.292  14.699 -0.1724 -0.3156 -0.4931
 4673TIP3    H235511   2.449   3.238  14.700  0.0802  0.3161 -2.0248
 4674TIP3   OH235512   3.597   2.133   4.560  0.6818 -0.0916  0.2857
 4674TIP3    H135513   3.591   2.065   4.627  2.1303 -0.0534  0.4562
 4674TIP3    H235514   3.603   2.085   4.477 -0.6068 -0.1403  0.2046
 4675TIP3   OH235515   3.581   4.517   1.762 -0.5628 -0.0381  0.2281
 4675TIP3    H135516   3.541   4.584   1.818  1.2052  0.3179  1.1016
 4675TIP3    H235517   3.661   4.491   1.809 -0.6731 -1.9948 -0.6261
 4676TIP3   OH235518   1.526   3.336  15.870  0.5922 -0.0420  0.4533
 4676TIP3    H135519   1.455   3.313  15.810  1.0922  0.7157 -0.4442
 4676TIP3    H235520   1.563   3.252  15.896 -1.1035 -0.4726  1.5203
 4677TIP3   OH235521   1.756   1.781  14.336 -0.2263 -0.0104 -0.0359
 4677TIP3    H135522   1.784   1.837  14.263  0.8277 -0.2924  0.1466
 4677TIP3    H235523   1.660   1.779  14.329 -0.1570  0.2846 -1.1733
 4678TIP3   OH235524   4.623   5.662   1.374 -0.4331 -1.1584 -0.0253
 4678TIP3    H135525   4.621   5.606   1.452  1.0760 -0.4958  0.5129
 4678TIP3    H235526   4.716   5.684   1.363 -0.9422  0.8775 -0.4843
 4679TIP3   OH235527   2.286   0.567   6.007  0.0551 -0.2515 -0.5179
 4679TIP3    H135528   2.325   0.623   6.074 -0.8766 -1.1471  0.8112
 4679TIP3    H235529   2.360   0.528   5.962  0.7042  0.2827  0.0721
 4680TIP3   OH235530   5.401   0.502  11.882  0.4005  0.2604  0.5819
 4680TIP3    H135531   5.320   0.480  11.835  0.6390 -2.3702  1.2966
 4680TIP3    H235532   5.468   0.504  11.814 -0.1946  2.1234  0.0327
 4681TIP3   OH235533   6.785   2.424   2.106  0.2489  0.1721 -0.1603
 4681TIP3    H135534   6.758   2.444   2.016  0.4711  1.6730  0.0978
 4681TIP3    H235535   6.879   2.443   2.107  0.2159  0.3178  0.4285
 4682TIP3   OH235536   1.567   5.361   1.495  0.2617  0.0300  0.1580
 4682TIP3    H135537   1.654   5.396   1.475 -0.4916  0.5829 -2.4441
 4682TIP3    H235538   1.507   5.429   1.464 -1.1148 -0.7485  1.0739
 4683TIP3   OH235539   4.974   3.991  11.057 -0.3955  0.8088 -0.1094
 4683TIP3    H135540   5.026   4.012  11.135 -0.7586  1.3752 -0.0154
 4683TIP3    H235541   5.025   3.924  11.012  0.0621  0.8333  0.3593
 4684TIP3   OH235542   4.471   6.073  10.665  0.1620 -0.4906 -0.3754
 4684TIP3    H135543   4.508   6.033  10.586  1.0374 -1.3013  0.4328
 4684TIP3    H235544   4.383   6.100  10.640 -0.4858 -3.0193 -0.9098
 4685TIP3   OH235545   6.160   0.783   2.797 -1.3058 -0.8707  0.0924
 4685TIP3    H135546   6.109   0.861   2.817 -1.3275 -0.7024 -0.5927
 4685TIP3    H235547   6.128   0.755   2.711  0.2647 -0.3440 -0.6791
 4686TIP3   OH235548   1.026   0.327  15.305  0.2307 -0.1365  0.0485
 4686TIP3    H135549   1.008   0.409  15.350  2.2269 -0.4247  1.4427
 4686TIP3    H235550   0.962   0.265  15.340 -0.1492  0.3896  0.2844
 4687TIP3   OH235551   1.152   5.026   1.635 -0.1314 -0.1014  0.2027
 4687TIP3    H135552   1.154   5.116   1.668  1.6309  0.2687 -0.8070
 4687TIP3    H235553   1.060   5.000   1.638 -0.5934  1.5892  0.8948
 4688TIP3   OH235554   4.835   4.586   3.780  0.3693 -0.2916 -0.4899
 4688TIP3    H135555   4.824   4.526   3.707 -1.6493 -0.6890  0.1009
 4688TIP3    H235556   4.796   4.668   3.751 -1.6161 -0.8326  0.5845
 4689TIP3   OH235557   3.193   6.764  12.972 -0.6664  0.5868 -0.5000
 4689TIP3    H135558   3.179   6.794  12.882 -2.7393  0.3462 -0.2834
 4689TIP3    H235559   3.162   6.837  13.026  0.5502  0.7165  0.0170
 4690TIP3   OH235560   6.448   2.880  12.945 -0.7732 -0.3626  0.9604
 4690TIP3    H135561   6.531   2.889  12.990 -0.3800  1.1199 -0.0184
 4690TIP3    H235562   6.383   2.876  13.015 -0.2182  2.3738  1.7090
 4691TIP3   OH235563   6.772   5.846  16.125 -0.2966  0.5971 -0.4499
 4691TIP3    H135564   6.787   5.891  16.042 -0.6241  0.4026 -0.6198
 4691TIP3    H235565   6.833   5.887  16.186  2.0355 -1.1766 -1.4765
 4692TIP3   OH235566   3.724   4.309  17.143 -0.0308  0.3182 -0.5939
 4692TIP3    H135567   3.647   4.301  17.088 -0.7183  0.5616  0.3276
 4692TIP3    H235568   3.694   4.289  17.231  0.7849  1.1766 -0.1013
 4693TIP3   OH235569   0.009   1.829  16.419  0.5484 -0.3438  0.2691
 4693TIP3    H135570   0.013   1.922  16.398  2.5586  0.0284  2.2038
 4693TIP3    H235571  -0.078   1.817  16.458 -0.1084  0.4997 -0.9115
 4694TIP3   OH235572   2.824   3.851   1.159  0.5005  0.1086 -0.1009
 4694TIP3    H135573   2.847   3.913   1.229  0.8986  1.8382 -1.7053
 4694TIP3    H235574   2.908   3.819   1.127  0.3592  0.1790 -0.5410
 4695TIP3   OH235575   5.469   0.501  14.767  0.3545 -0.1034  0.3580
 4695TIP3    H135576   5.409   0.547  14.709  0.5807 -0.3577 -0.0791
 4695TIP3    H235577   5.420   0.424  14.797  0.7888 -0.8396 -0.7685
 4696TIP3   OH235578   0.567   3.484  16.832 -0.1622  0.2557  0.4442
 4696TIP3    H135579   0.525   3.567  16.810  0.0762  0.5890  1.2159
 4696TIP3    H235580   0.579   3.488  16.927 -1.2933 -1.1903  0.6854
 4697TIP3   OH235581   1.265   1.224   1.955  0.2151 -0.2948 -0.5829
 4697TIP3    H135582   1.278   1.317   1.974 -0.8518 -0.2608  0.0024
 4697TIP3    H235583   1.353   1.189   1.946  0.7044  0.1071  2.3809
 4698TIP3   OH235584   3.497   6.595   4.236 -0.3398  0.2148 -0.7936
 4698TIP3    H135585   3.502   6.679   4.280  1.2286  0.7477 -1.9212
 4698TIP3    H235586   3.559   6.539   4.283 -0.4917  0.0492 -0.7879
 4699TIP3   OH235587   1.099   4.949   2.397 -0.3751 -0.0889 -0.4040
 4699TIP3    H135588   1.179   4.912   2.434 -0.1538 -0.4735 -1.2402
 4699TIP3    H235589   1.064   5.006   2.465 -0.0363 -0.8701  0.4162
 4700TIP3   OH235590   0.183   5.732   0.137  0.2003 -0.8499  0.1171
 4700TIP3    H135591   0.205   5.780   0.217  0.4375 -0.4683 -0.1704
 4700TIP3    H235592   0.119   5.667   0.165  1.7797 -2.0600  0.9947
 4701TIP3   OH235593   1.217   5.817   1.096 -0.3830  0.4406  0.3262
 4701TIP3    H135594   1.175   5.843   1.014 -0.3957 -0.3215  0.0868
 4701TIP3    H235595   1.145   5.793   1.154 -0.4746  2.7604  1.1923
 4702TIP3   OH235596   2.204   1.060  14.313  0.1036  0.6164 -0.0723
 4702TIP3    H135597   2.121   1.037  14.272 -0.0255  0.6288  0.1817
 4702TIP3    H235598   2.269   1.044  14.245 -0.0535  0.1322 -0.1155
 4703TIP3   OH235599   6.102   2.429   2.173  0.1536  0.7711 -0.9247
 4703TIP3    H135600   6.039   2.471   2.113  1.4396  1.8149 -1.5654
 4703TIP3    H235601   6.185   2.471   2.153  1.1592 -0.9322 -0.3952
 4704TIP3   OH235602   3.503   2.785   3.738 -0.1159 -0.7699  0.4292
 4704TIP3    H135603   3.501   2.717   3.672 -0.1997 -0.0940 -0.2707
 4704TIP3    H235604   3.575   2.842   3.712 -0.5145 -0.1809  0.5995
 4705TIP3   OH235605   0.385   5.106   3.444  0.0916  0.1218 -0.0055
 4705TIP3    H135606   0.318   5.075   3.383 -0.1255  0.0264  0.2837
 4705TIP3    H235607   0.367   5.060   3.526  2.6327 -2.6118 -0.8854
 4706TIP3   OH235608   3.519   4.668   0.937 -1.0012  0.2043  0.2262
 4706TIP3    H135609   3.488   4.669   1.027 -1.0630  0.7088  0.2033
 4706TIP3    H235610   3.560   4.754   0.925 -2.6313  0.8848 -0.7779
 4707TIP3   OH235611   5.436   4.219   4.498  0.2319 -0.1029  0.4767
 4707TIP3    H135612   5.407   4.222   4.407 -0.0943  0.4667  0.5964
 4707TIP3    H235613   5.511   4.160   4.497  0.2835 -0.0315 -0.1799
 4708TIP3   OH235614   3.721   4.948   5.680 -0.5406  0.0375  0.4267
 4708TIP3    H135615   3.725   4.895   5.760 -1.8330 -1.7476 -0.6579
 4708TIP3    H235616   3.782   4.907   5.620  2.5917  3.0596  1.3942
 4709TIP3   OH235617   5.613   2.453  16.564 -0.6511 -0.1363 -0.3189
 4709TIP3    H135618   5.574   2.366  16.566 -0.4360 -0.2237  0.0469
 4709TIP3    H235619   5.557   2.503  16.504 -0.6918 -0.5607 -0.6360
 4710TIP3   OH235620   6.719   1.588  14.310  0.1989 -0.4186 -0.8623
 4710TIP3    H135621   6.793   1.606  14.367  0.2342  0.3061 -1.1225
 4710TIP3    H235622   6.754   1.603  14.221 -0.4921  0.8397 -0.9404
 4711TIP3   OH235623   0.856   0.273   5.783  0.7757  0.8138  0.0944
 4711TIP3    H135624   0.946   0.303   5.771  0.7475  0.7746 -0.2320
 4711TIP3    H235625   0.817   0.281   5.696  0.5132  0.6710  0.2002
 4712TIP3   OH235626   6.754   6.329   4.592  0.1188  0.0537 -0.4144
 4712TIP3    H135627   6.805   6.410   4.589 -1.4484  1.0376 -1.2934
 4712TIP3    H235628   6.796   6.277   4.661  0.4441  2.0840  0.9822
 4713TIP3   OH235629   3.175   0.642   1.818 -0.5947 -0.0959  0.3207
 4713TIP3    H135630   3.221   0.672   1.740 -0.7512 -0.7295 -0.0192
 4713TIP3    H235631   3.100   0.592   1.784 -0.5504 -0.5476  0.8704
 4714TIP3   OH235632   4.008   5.176   2.375  0.0523  0.0028 -0.4233
 4714TIP3    H135633   3.932   5.123   2.350 -0.4008  0.3951  0.1130
 4714TIP3    H235634   4.055   5.192   2.292  0.5158 -1.7209 -0.5133
 4715TIP3   OH235635   1.661   4.123   3.470 -0.0786  0.4080  0.2583
 4715TIP3    H135636   1.604   4.048   3.489  0.4181 -0.1020 -0.2478
 4715TIP3    H235637   1.601   4.194   3.449 -0.5575  0.1741  0.8309
 4716TIP3   OH235638   0.275   6.745   1.571  0.2900  0.7078  0.5765
 4716TIP3    H135639   0.181   6.747   1.551  0.9562  0.9550 -2.7887
 4716TIP3    H235640   0.307   6.831   1.544  1.9712 -0.3691 -0.9016
 4717TIP3   OH235641   4.794   5.018  16.426 -0.5339 -0.7863 -0.6690
 4717TIP3    H135642   4.792   5.112  16.408 -0.2793 -0.7927 -0.7413
 4717TIP3    H235643   4.803   4.977  16.340 -1.2766 -0.9101 -0.6891
 4718TIP3   OH235644   0.371   5.516  16.659 -0.4874  0.6194  0.5733
 4718TIP3    H135645   0.276   5.517  16.651 -0.5086  0.5736  0.8068
 4718TIP3    H235646   0.391   5.590  16.716 -0.2754  1.4432 -0.5625
 4719TIP3   OH235647   2.114   4.096   2.479 -0.0201  0.5681 -0.1145
 4719TIP3    H135648   2.112   4.011   2.435 -1.6230  1.0118 -0.9674
 4719TIP3    H235649   2.114   4.076   2.572 -0.5496 -0.3757 -0.3110
 4720TIP3   OH235650   0.124   4.940   4.683  0.0774  0.3090  0.1515
 4720TIP3    H135651   0.029   4.942   4.672  0.0460 -0.1636  0.3212
 4720TIP3    H235652   0.154   5.020   4.640 -0.2770 -0.2318 -1.1580
 4721TIP3   OH235653   4.899   1.170   1.060 -0.1049  0.0806  0.6783
 4721TIP3    H135654   4.901   1.255   1.016  0.0767 -0.4243 -0.3111
 4721TIP3    H235655   4.879   1.107   0.990  2.0186 -0.9503  0.9489
 4722TIP3   OH235656   4.559   3.324   5.484  0.2284  0.0888  0.1980
 4722TIP3    H135657   4.601   3.272   5.554  0.3126 -0.5495 -0.3257
 4722TIP3    H235658   4.502   3.384   5.531 -1.5953 -1.9856  0.7310
 4723TIP3   OH235659   0.380   0.752   1.273  0.1909  0.3815  0.0133
 4723TIP3    H135660   0.347   0.662   1.278  1.6105 -0.2411 -1.3924
 4723TIP3    H235661   0.311   0.805   1.314  0.6818 -1.6358  3.7102
 4724TIP3   OH235662   5.366   6.767   1.809  0.1947  0.0272  0.8911
 4724TIP3    H135663   5.462   6.763   1.809  0.2673  1.2967  0.8385
 4724TIP3    H235664   5.345   6.835   1.873 -0.6864 -0.4961  1.1669
 4725TIP3   OH235665   6.573   6.691  12.720  0.0396 -0.3819  0.2421
 4725TIP3    H135666   6.528   6.614  12.755 -1.1249  0.0286 -0.3259
 4725TIP3    H235667   6.518   6.720  12.648  1.2213  0.1505 -0.4606
 4726TIP3   OH235668   3.129   5.434  16.291  0.0155 -0.8252 -0.1269
 4726TIP3    H135669   3.172   5.443  16.376 -1.7538 -1.1095  0.8191
 4726TIP3    H235670   3.201   5.426  16.228  1.3574  0.4119  1.2152
 4727TIP3   OH235671   5.917   4.779   5.900  0.3043 -0.3479 -0.1006
 4727TIP3    H135672   5.923   4.684   5.897 -3.1559 -0.5974 -1.8253
 4727TIP3    H235673   5.849   4.801   5.835  0.3323  3.2073  0.9573
 4728TIP3   OH235674   4.775   6.551   4.584  0.1715 -0.2946  0.2914
 4728TIP3    H135675   4.816   6.627   4.625 -0.0322  0.0817 -0.1933
 4728TIP3    H235676   4.684   6.578   4.570  0.3477 -0.2578 -0.8087
 4729TIP3   OH235677   0.626   1.638  10.870 -0.0744  0.4180  0.3310
 4729TIP3    H135678   0.655   1.720  10.910 -2.4558  0.5553  1.8678
 4729TIP3    H235679   0.704   1.584  10.868  1.1779  2.1628  0.7358
 4730TIP3   OH235680   5.458   2.195   1.940  0.2861  0.5882 -0.0272
 4730TIP3    H135681   5.525   2.219   2.005 -0.4191  1.3558  0.4201
 4730TIP3    H235682   5.427   2.109   1.969  0.9079  0.3380 -0.0982
 4731TIP3   OH235683   1.202   1.997  16.124  0.7721  0.0053  0.7403
 4731TIP3    H135684   1.155   2.009  16.207 -1.2039  0.7916 -0.4732
 4731TIP3    H235685   1.288   2.037  16.140 -0.6801  3.0134  1.4190
 4732TIP3   OH235686   6.197   5.884  15.915  1.1350 -0.2409 -0.4312
 4732TIP3    H135687   6.102   5.874  15.907  0.8577  2.9225 -1.8759
 4732TIP3    H235688   6.229   5.877  15.825  2.0573  0.5328 -0.1673
 4733TIP3   OH235689   5.102   4.021  15.431  0.1691  0.6511  0.4818
 4733TIP3    H135690   5.067   4.016  15.520 -1.1493 -2.0587 -0.1484
 4733TIP3    H235691   5.058   4.096  15.392 -2.3814 -0.6011  0.8382
 4734TIP3   OH235692   6.613   1.367   2.242  0.1366 -0.7192  0.2022
 4734TIP3    H135693   6.637   1.405   2.327  0.1177 -0.5104  0.1139
 4734TIP3    H235694   6.582   1.441   2.190 -1.1974 -1.0726  0.4958
 4735TIP3   OH235695   3.234   3.401  15.272 -0.0192 -0.0016 -0.3236
 4735TIP3    H135696   3.153   3.412  15.223 -0.3684  0.0664  0.2533
 4735TIP3    H235697   3.213   3.335  15.338  0.5830 -0.4547 -0.5781
 4736TIP3   OH235698   1.224   1.429   2.544 -0.1736  0.0204 -0.0669
 4736TIP3    H135699   1.152   1.368   2.530 -0.1007 -0.7822  2.7347
 4736TIP3    H235700   1.277   1.387   2.612  1.9206  1.4787 -0.7700
 4737TIP3   OH235701   1.239   6.321   4.098  0.0700 -0.5019  0.3667
 4737TIP3    H135702   1.212   6.305   4.189 -0.2049 -1.7925  0.0701
 4737TIP3    H235703   1.162   6.358   4.056  0.4778  0.9524  0.8802
 4738TIP3   OH235704   3.940   3.847  11.505  0.0633  0.2912  0.2405
 4738TIP3    H135705   3.941   3.799  11.422  0.7807 -2.8202  1.9607
 4738TIP3    H235706   3.847   3.852  11.528 -0.3599  3.3364 -1.8820
 4739TIP3   OH235707   4.889   2.434  12.921 -0.3269 -0.7330  0.4657
 4739TIP3    H135708   4.920   2.510  12.970 -2.1865  0.0135  0.5321
 4739TIP3    H235709   4.969   2.388  12.895  0.7748  0.4061  1.7350
 4740TIP3   OH235710   6.462   0.468  14.625 -0.3662 -0.3351 -0.8170
 4740TIP3    H135711   6.475   0.563  14.634 -1.6548 -0.1552 -0.8394
 4740TIP3    H235712   6.454   0.437  14.715 -0.7741 -0.3020 -0.8410
 4741TIP3   OH235713   2.820   3.469   1.021 -1.1966  0.0573  0.2633
 4741TIP3    H135714   2.862   3.409   0.960 -0.1077  0.9491  0.1218
 4741TIP3    H235715   2.832   3.427   1.107 -3.0083 -1.3513 -0.1416
 4742TIP3   OH235716   3.893   5.446   4.334  0.3020  0.0979  0.3702
 4742TIP3    H135717   3.842   5.381   4.382  0.4036 -1.0545 -1.0587
 4742TIP3    H235718   3.868   5.530   4.374 -2.1200 -0.5092  0.2389
 4743TIP3   OH235719   1.270   1.997  13.081 -1.2160 -0.4507 -0.2143
 4743TIP3    H135720   1.310   2.024  13.163 -2.7258  1.0071  0.0536
 4743TIP3    H235721   1.262   1.902  13.088  1.6817 -0.7121 -0.0606
 4744TIP3   OH235722   5.110   3.201   2.704 -0.4211  0.6497 -0.4816
 4744TIP3    H135723   5.047   3.129   2.694  0.4218  0.1055 -2.0255
 4744TIP3    H235724   5.058   3.280   2.690 -1.0761  0.2810 -0.1703
 4745TIP3   OH235725   5.548   3.901   5.498  0.0992  0.5053 -0.5024
 4745TIP3    H135726   5.619   3.936   5.552  0.7231 -0.1135 -0.9023
 4745TIP3    H235727   5.588   3.889   5.412 -0.4759  0.1023 -0.7146
 4746TIP3   OH235728   2.101   2.627  12.161  0.1956 -0.0651 -0.0835
 4746TIP3    H135729   2.043   2.579  12.102  1.5613  0.8754 -2.2458
 4746TIP3    H235730   2.051   2.706  12.183 -0.0741 -0.1123 -0.5123
 4747TIP3   OH235731   0.263   6.567   4.278 -0.0828 -0.6343 -0.2913
 4747TIP3    H135732   0.314   6.506   4.225  0.7963 -0.7193  0.6380
 4747TIP3    H235733   0.212   6.511   4.337  0.6541 -0.4797  0.4983
 4748TIP3   OH235734   1.134   4.345   5.335  0.7157 -0.0110 -0.3458
 4748TIP3    H135735   1.056   4.347   5.280 -0.9209  2.2034  1.9484
 4748TIP3    H235736   1.205   4.371   5.276 -0.8132  1.2151 -1.6967
 4749TIP3   OH235737   6.369   1.032   5.168 -0.5823  0.4082  0.2821
 4749TIP3    H135738   6.396   1.068   5.084 -0.7263 -1.0846 -0.4144
 4749TIP3    H235739   6.342   1.109   5.219  0.1983  1.3983 -0.7628
 4750TIP3   OH235740   0.608   1.257  13.629  0.4085 -0.3663  0.4845
 4750TIP3    H135741   0.561   1.339  13.647  1.8348  0.0938  2.2607
 4750TIP3    H235742   0.650   1.272  13.544 -0.2672  0.3149  0.2640
 4751TIP3   OH235743   2.403   6.247   4.013  0.0538  0.1247  0.2970
 4751TIP3    H135744   2.365   6.309   3.951  1.1597 -0.6285 -1.1589
 4751TIP3    H235745   2.347   6.169   4.006  0.9462 -0.4426 -0.7577
 4752TIP3   OH235746   6.271   1.825   3.737  0.1389 -0.3607  0.0368
 4752TIP3    H135747   6.311   1.857   3.656  0.8774 -2.7628 -0.5813
 4752TIP3    H235748   6.288   1.731   3.737 -0.9306 -0.5929  2.3892
 4753TIP3   OH235749   6.814   2.394  11.792  0.0207 -0.0779 -0.3359
 4753TIP3    H135750   6.805   2.328  11.724  0.0594 -0.3194 -0.1047
 4753TIP3    H235751   6.746   2.459  11.772 -0.9929 -0.9218  0.2772
 4754TIP3   OH235752   0.108   2.366   1.526 -0.0479 -0.1789  0.5803
 4754TIP3    H135753   0.041   2.434   1.527 -0.6533 -0.7825  2.0068
 4754TIP3    H235754   0.187   2.408   1.561 -0.3903 -0.1862  1.3564
 4755TIP3   OH235755   3.739   4.154   5.151  0.3529 -0.3430  0.6001
 4755TIP3    H135756   3.654   4.150   5.195 -0.6274  3.0238 -0.8737
 4755TIP3    H235757   3.795   4.201   5.212  0.1283  0.7081 -0.0031
 4756TIP3   OH235758   3.537   2.481  14.190  0.3563  0.4425  0.5184
 4756TIP3    H135759   3.488   2.404  14.220  2.7256 -1.2261  0.2614
 4756TIP3    H235760   3.578   2.453  14.108  1.1134  2.0456  0.3297
 4757TIP3   OH235761   2.691   3.580  15.704 -0.0033 -0.0211  0.5239
 4757TIP3    H135762   2.636   3.654  15.731 -2.3131 -0.8849 -1.6020
 4757TIP3    H235763   2.654   3.504  15.749 -0.8303 -0.6523 -1.1368
 4758TIP3   OH235764   1.855   4.379   2.353  0.5282 -0.6801  0.1333
 4758TIP3    H135765   1.790   4.429   2.402 -1.0725  0.1120 -2.7109
 4758TIP3    H235766   1.821   4.289   2.354  0.9799 -0.8521  1.2089
 4759TIP3   OH235767   5.248   5.668   5.672 -0.6618 -0.4938  0.5488
 4759TIP3    H135768   5.268   5.590   5.621  2.5338 -0.7012  2.0122
 4759TIP3    H235769   5.290   5.739   5.624 -2.1825  0.1418  0.1022
 4760TIP3   OH235770   5.065   3.287  11.401 -0.2128 -0.5917  0.0705
 4760TIP3    H135771   4.982   3.255  11.366 -1.0664 -0.3222  1.7373
 4760TIP3    H235772   5.038   3.346  11.473  1.4334 -1.6593  1.5917
 4761TIP3   OH235773   4.022   2.839  13.054  0.2383  0.4811 -0.0667
 4761TIP3    H135774   3.969   2.759  13.055  0.2061  0.4948 -0.4350
 4761TIP3    H235775   3.967   2.904  13.097 -0.4039  0.7107 -1.2030
 4762TIP3   OH235776   6.095   3.864   4.273 -0.7035  0.6856 -0.4225
 4762TIP3    H135777   6.106   3.883   4.366  1.0682  0.6053 -0.6106
 4762TIP3    H235778   6.112   3.771   4.265 -0.2081  0.8163 -0.9256
 4763TIP3   OH235779   2.983   2.718  16.408 -0.0823 -0.4075  0.7406
 4763TIP3    H135780   3.067   2.713  16.454  0.0593 -0.0167  0.5235
 4763TIP3    H235781   3.002   2.684  16.321  0.3168  1.5092  0.0502
 4764TIP3   OH235782   0.217   3.941  13.589  0.0938 -0.1090  0.1355
 4764TIP3    H135783   0.167   3.875  13.540 -0.9921  0.5834  0.2904
 4764TIP3    H235784   0.274   3.890  13.646 -1.9578 -0.9602  1.4963
 4765TIP3   OH235785   6.466   4.277  14.513  0.3812 -0.1116 -0.5854
 4765TIP3    H135786   6.455   4.184  14.496 -0.2988  0.2794 -2.3963
 4765TIP3    H235787   6.533   4.305  14.450  0.9361  0.5251  0.2751
 4766TIP3   OH235788   0.990   4.209  12.841  0.7797 -0.1917  0.6257
 4766TIP3    H135789   0.896   4.227  12.834  0.2193 -3.0287  0.4387
 4766TIP3    H235790   1.031   4.279  12.790 -1.1113  1.8936  1.8160
 4767TIP3   OH235791   3.514   4.698  14.785 -0.4567  0.5710 -0.0944
 4767TIP3    H135792   3.476   4.697  14.873  0.7329  1.0139  0.4298
 4767TIP3    H235793   3.497   4.786  14.752 -0.1580  0.6772  0.0296
 4768TIP3   OH235794   1.184   1.626   4.079 -0.2813 -0.8791  0.0367
 4768TIP3    H135795   1.278   1.644   4.085 -0.5254  1.2207 -1.8094
 4768TIP3    H235796   1.158   1.604   4.168  1.8532 -0.9689  0.6707
 4769TIP3   OH235797   2.641   5.471   3.677  0.0095 -0.0257 -0.6974
 4769TIP3    H135798   2.735   5.490   3.682 -0.2341  1.3317 -1.1529
 4769TIP3    H235799   2.637   5.380   3.646  1.1678 -0.0343 -0.8613
 4770TIP3   OH235800   2.166   3.670   0.348  0.1834 -0.7659 -0.3569
 4770TIP3    H135801   2.169   3.764   0.329  2.0510 -0.5364  0.9356
 4770TIP3    H235802   2.178   3.628   0.263  0.7920  0.1766 -0.7423
 4771TIP3   OH235803   2.206   4.028  15.987 -0.3365 -0.6530 -0.7475
 4771TIP3    H135804   2.293   4.047  15.952 -0.4404 -0.5287 -0.9363
 4771TIP3    H235805   2.223   3.973  16.064 -0.0779 -0.3430 -0.5855
 4772TIP3   OH235806   0.023   2.014   5.442 -0.3503  0.7023  0.3715
 4772TIP3    H135807   0.058   2.045   5.525  0.9840 -1.6360  0.7063
 4772TIP3    H235808   0.079   2.056   5.376  1.4803 -0.9884  0.8224
 4773TIP3   OH235809   3.031   3.887   0.576  0.1700  0.5571 -0.0175
 4773TIP3    H135810   3.104   3.949   0.582 -0.8702  1.6923  1.2032
 4773TIP3    H235811   3.009   3.867   0.667 -1.9097  1.2612 -0.3327
 4774TIP3   OH235812   1.840   6.573   3.896 -0.3240  0.7513 -0.0896
 4774TIP3    H135813   1.754   6.613   3.887 -0.8325 -0.0650  0.9877
 4774TIP3    H235814   1.876   6.611   3.976 -0.8959 -1.0115  1.0610
 4775TIP3   OH235815   4.298   1.742  11.016 -1.0712 -0.0375 -0.0220
 4775TIP3    H135816   4.386   1.705  11.004 -1.2160 -1.1474  2.0714
 4775TIP3    H235817   4.280   1.788  10.934  2.0835  1.5289  0.0962
 4776TIP3   OH235818   2.380   1.510  11.942 -0.0772  0.4237 -0.4015
 4776TIP3    H135819   2.382   1.575  12.012 -0.6812  0.3058 -0.2751
 4776TIP3    H235820   2.294   1.468  11.951  0.1753 -0.1557 -0.6944
 4777TIP3   OH235821   4.321   1.870  11.335  0.3976 -0.0544 -0.3124
 4777TIP3    H135822   4.408   1.841  11.309  0.7026  1.2981 -0.7990
 4777TIP3    H235823   4.265   1.845  11.261  0.7516  1.0739 -0.9648
 4778TIP3   OH235824   0.324   4.339   2.823 -0.2847 -0.1330  0.2894
 4778TIP3    H135825   0.248   4.396   2.832 -1.1334 -1.1971  0.0941
 4778TIP3    H235826   0.364   4.338   2.910 -1.7560 -1.2574  0.9911
 4779TIP3   OH235827   4.533   3.861  13.810  0.3452 -0.5820  0.0342
 4779TIP3    H135828   4.492   3.776  13.795  0.0848 -0.6547  1.1616
 4779TIP3    H235829   4.467   3.925  13.785 -0.3214 -0.7000  1.4857
 4780TIP3   OH235830   1.261   6.484   5.059 -0.2549  0.8103  0.1961
 4780TIP3    H135831   1.182   6.484   5.006  0.5126  0.8155 -0.9583
 4780TIP3    H235832   1.284   6.576   5.070  1.1377  0.7535 -1.8417
 4781TIP3   OH235833   4.816   1.526  13.042 -0.9131  0.5336  0.6924
 4781TIP3    H135834   4.773   1.612  13.042 -2.0675 -0.0241 -0.0049
 4781TIP3    H235835   4.745   1.464  13.056 -0.3074 -0.4072 -0.3376
 4782TIP3   OH235836   3.776   5.941   5.687  0.7097 -0.7227 -0.2644
 4782TIP3    H135837   3.751   5.873   5.750 -1.8376  0.6153  0.2317
 4782TIP3    H235838   3.841   5.993   5.734  0.6932 -1.2285  0.3425
 4783TIP3   OH235839   2.934   2.178  13.314 -0.5324 -0.0612 -0.1223
 4783TIP3    H135840   3.007   2.210  13.261 -0.5967  1.1732  0.5043
 4783TIP3    H235841   2.865   2.157  13.252 -0.6697  1.5334 -0.5414
 4784TIP3   OH235842   1.225   5.955  16.915  0.6900 -0.5787 -0.0653
 4784TIP3    H135843   1.263   5.938  16.828  2.0309 -0.0185  0.4050
 4784TIP3    H235844   1.159   5.886  16.925  0.8858 -0.9699 -1.3098
 4785TIP3   OH235845   6.768   5.499  12.986 -0.4040  0.7638 -0.2581
 4785TIP3    H135846   6.710   5.532  13.054  2.0058  0.6046  1.9392
 4785TIP3    H235847   6.712   5.445  12.930 -2.1120 -0.4704  2.5670
 4786TIP3   OH235848   6.256   0.520  13.283 -0.0373 -1.0982 -0.5614
 4786TIP3    H135849   6.176   0.472  13.303  0.4451 -1.7541 -0.2118
 4786TIP3    H235850   6.321   0.487  13.345  0.4994 -0.5426 -0.8158
 4787TIP3   OH235851   4.062   6.519   4.549 -0.0134  0.2586 -0.1778
 4787TIP3    H135852   4.142   6.566   4.573 -0.3044  1.0669 -0.7440
 4787TIP3    H235853   4.013   6.581   4.495 -1.2899 -0.0176  0.6326
 4788TIP3   OH235854   3.001   5.564  12.387  0.3731  0.1573 -0.0873
 4788TIP3    H135855   3.021   5.632  12.450  0.5391 -1.4394  1.6395
 4788TIP3    H235856   3.087   5.530  12.360  0.2850  0.4281 -0.7187
 4789TIP3   OH235857   5.421   4.738  12.184 -0.2306 -0.0984  0.0381
 4789TIP3    H135858   5.374   4.770  12.261  2.3367  1.9510  0.8172
 4789TIP3    H235859   5.496   4.691  12.220  0.9893  0.8753 -1.2047
 4790TIP3   OH235860   0.599   3.305  16.291  0.2338  0.5371  0.1711
 4790TIP3    H135861   0.553   3.287  16.373  0.2005 -0.2074 -0.0049
 4790TIP3    H235862   0.691   3.309  16.315  0.2663 -0.1407  0.1772
 4791TIP3   OH235863   0.947   5.339  12.901 -0.2284 -0.1165 -0.0832
 4791TIP3    H135864   0.982   5.250  12.910  0.4019  0.1497  0.1462
 4791TIP3    H235865   0.852   5.327  12.894 -0.0764 -0.8650 -0.9171
 4792TIP3   OH235866   0.498   2.613   2.617 -0.1170  0.1732 -0.0080
 4792TIP3    H135867   0.470   2.610   2.709 -0.7248  3.6590 -0.0423
 4792TIP3    H235868   0.420   2.587   2.568 -0.1608 -0.4327  0.3670
 4793TIP3   OH235869   4.588   3.886  12.854  0.2119  0.0794 -0.8107
 4793TIP3    H135870   4.528   3.870  12.781  2.5221  0.7670 -2.9359
 4793TIP3    H235871   4.614   3.978  12.844  3.5125 -0.8611 -1.4589
 4794TIP3   OH235872   5.799   2.035  13.366  0.1270 -0.2209 -0.4333
 4794TIP3    H135873   5.735   2.022  13.297  1.3499 -1.9729 -1.2891
 4794TIP3    H235874   5.869   2.087  13.326  0.2687 -0.1994 -0.1646
 4795TIP3   OH235875   3.945   4.064   2.653 -0.2501 -0.2971 -0.5399
 4795TIP3    H135876   3.988   4.030   2.575 -0.5618 -1.9681 -0.0089
 4795TIP3    H235877   4.000   4.036   2.725 -1.9856 -2.1491  0.1183
 4796TIP3   OH235878   5.302   4.498  14.991  0.0436  0.3111  0.5799
 4796TIP3    H135879   5.212   4.528  15.004 -0.8583 -0.9235 -2.3650
 4796TIP3    H235880   5.344   4.570  14.943  0.7039  0.9436  2.0691
 4797TIP3   OH235881   6.285   5.609  11.073  0.0471  0.5650  0.4016
 4797TIP3    H135882   6.356   5.588  11.012 -1.0715  0.5827 -0.9242
 4797TIP3    H235883   6.327   5.610  11.159  1.5494  0.0533 -0.3094
 4798TIP3   OH235884   5.999   2.824   0.189 -0.5095 -0.2788 -0.6647
 4798TIP3    H135885   5.963   2.905   0.152 -1.9273 -0.7801 -0.4046
 4798TIP3    H235886   6.019   2.770   0.112 -3.3581 -1.2774 -0.7401
 4799TIP3   OH235887   3.521   0.194  11.431 -0.0700 -0.0578 -0.5144
 4799TIP3    H135888   3.585   0.125  11.447  1.0440  1.7562  3.3284
 4799TIP3    H235889   3.530   0.214  11.338  3.8154 -0.9537 -0.3946
 4800TIP3   OH235890   2.844   5.171  13.853  0.9454  0.4792  0.5205
 4800TIP3    H135891   2.925   5.161  13.903  1.4430 -0.2432 -0.4248
 4800TIP3    H235892   2.871   5.165  13.762 -0.4067 -1.7047  0.2316
 4801TIP3   OH235893   5.730   4.680   0.104  0.1541 -0.0316  0.4615
 4801TIP3    H135894   5.664   4.717   0.045  0.0733 -0.5623  0.2142
 4801TIP3    H235895   5.811   4.726   0.082 -0.0553  0.3555  0.5070
 4802TIP3   OH235896   1.371   1.466  13.458 -0.4310 -0.4535  0.2450
 4802TIP3    H135897   1.454   1.506  13.430 -1.1615  1.3070  0.5122
 4802TIP3    H235898   1.388   1.436  13.547  0.7753 -2.6989 -0.7155
 4803TIP3   OH235899   5.354   1.104   1.024 -0.3280  0.6197 -0.0675
 4803TIP3    H135900   5.284   1.093   1.088 -1.3300  0.2897 -1.1934
 4803TIP3    H235901   5.337   1.036   0.959 -0.7909  2.5119 -1.9824
 4804TIP3   OH235902   3.843   2.829   3.039  0.1339  0.0161  0.1622
 4804TIP3    H135903   3.831   2.922   3.056  2.4930  0.8394 -2.3154
 4804TIP3    H235904   3.909   2.801   3.103  1.4198  0.6973 -0.8524
 4805TIP3   OH235905   5.108   1.145  15.112  0.1768  0.5680  0.1266
 4805TIP3    H135906   5.048   1.219  15.119 -0.9546 -0.1118 -1.8689
 4805TIP3    H235907   5.156   1.161  15.030 -0.0387 -0.8583 -0.2957
 4806TIP3   OH235908   4.129   4.137  12.252  0.4048 -0.0161  0.2593
 4806TIP3    H135909   4.111   4.085  12.174  0.1421  3.4981 -2.1643
 4806TIP3    H235910   4.219   4.167  12.240 -0.0976  1.6783  0.5921
 4807TIP3   OH235911   6.424   2.394  16.899 -0.1853  0.9583  0.0387
 4807TIP3    H135912   6.436   2.337  16.975 -0.9929  0.0152 -0.5257
 4807TIP3    H235913   6.347   2.359  16.855  0.4264  1.3277 -1.3660
 4808TIP3   OH235914   5.018   3.551   3.268  0.3045 -0.0366  0.0361
 4808TIP3    H135915   5.102   3.586   3.237  0.2703  0.3787  0.4130
 4808TIP3    H235916   5.025   3.552   3.363  0.6344 -1.8880  0.0547
 4809TIP3   OH235917   5.693   1.529   2.906 -0.2024 -0.2466 -0.2559
 4809TIP3    H135918   5.629   1.581   2.857  0.8838  0.2001 -1.2352
 4809TIP3    H235919   5.720   1.461   2.845  0.4795 -0.2528  0.0500
 4810TIP3   OH235920   4.538   6.526   5.759 -0.3306  0.6969 -0.6595
 4810TIP3    H135921   4.478   6.598   5.735 -0.0288  0.9049 -0.7935
 4810TIP3    H235922   4.569   6.550   5.846 -0.7472  0.3874 -0.4242
 4811TIP3   OH235923   2.513   6.740  12.929 -0.2100  0.0167 -0.2349
 4811TIP3    H135924   2.593   6.688  12.925  1.1249  1.9904 -0.0964
 4811TIP3    H235925   2.471   6.727  12.844 -0.0715 -1.4962 -0.0896
 4812TIP3   OH235926   1.206   1.847   0.196 -0.1080 -0.1167  0.2912
 4812TIP3    H135927   1.191   1.928   0.149  0.9511 -0.2419 -0.2909
 4812TIP3    H235928   1.127   1.833   0.248 -1.4368 -0.1447 -1.6992
 4813TIP3   OH235929   2.554   1.097  14.796 -0.1612 -0.3642  0.1966
 4813TIP3    H135930   2.607   1.022  14.825 -0.8847 -0.0954  2.2833
 4813TIP3    H235931   2.474   1.058  14.763 -0.7581 -0.5147  1.7686
 4814TIP3   OH235932   0.711   3.443  14.728 -0.1976  0.2230 -0.3563
 4814TIP3    H135933   0.668   3.358  14.718 -1.3028  0.7374 -0.0364
 4814TIP3    H235934   0.780   3.443  14.661  1.9378 -2.2257  1.7026
 4815TIP3   OH235935   5.897   5.051   2.823  0.6234  0.1059  0.2583
 4815TIP3    H135936   5.965   4.991   2.792 -0.2486 -0.8014  0.0405
 4815TIP3    H235937   5.944   5.124   2.862  1.7252 -0.1170 -0.6304
 4816TIP3   OH235938   1.044   5.797   0.437 -0.2723  0.0424 -0.3090
 4816TIP3    H135939   0.971   5.775   0.496  0.7464 -0.6430  0.7340
 4816TIP3    H235940   1.069   5.713   0.399  0.9138  0.0335  0.4654
 4817TIP3   OH235941   0.043   6.408   5.633 -0.4324  0.2482  0.4294
 4817TIP3    H135942   0.138   6.401   5.623 -0.4876 -0.6288  0.4261
 4817TIP3    H235943   0.029   6.495   5.670  0.3467  0.5121  0.1212
 4818TIP3   OH235944   5.988   6.108   2.196  0.1358 -0.2204  0.8535
 4818TIP3    H135945   6.080   6.098   2.174 -0.0417  0.1427 -0.0490
 4818TIP3    H235946   5.941   6.081   2.118 -0.4904  0.8411  0.8510
 4819TIP3   OH235947   5.273   5.494  16.942  0.3040 -0.0211 -0.4936
 4819TIP3    H135948   5.355   5.456  16.974  0.5950  1.0662  0.0460
 4819TIP3    H235949   5.214   5.491  17.017 -0.7295 -2.4043 -1.3496
 4820TIP3   OH235950   4.541   6.239   1.834  0.1362  0.0223 -0.6154
 4820TIP3    H135951   4.513   6.302   1.900 -0.8724 -1.6500  0.6053
 4820TIP3    H235952   4.635   6.231   1.846 -0.2341 -1.3557  1.6604
 4821TIP3   OH235953   6.316   4.503   5.006  0.3791 -0.2308  0.1650
 4821TIP3    H135954   6.275   4.584   5.037 -2.6979 -2.1707  1.4252
 4821TIP3    H235955   6.393   4.491   5.061  1.4100  2.2904 -0.6620
 4822TIP3   OH235956   5.561   1.020   0.592  0.5079 -0.5669  0.3097
 4822TIP3    H135957   5.550   1.083   0.664  1.0622  1.0294 -0.9996
 4822TIP3    H235958   5.520   0.940   0.626  0.9284  0.0866  2.4909
 4823TIP3   OH235959   0.451   1.008   6.541 -0.8524 -0.6432  0.6715
 4823TIP3    H135960   0.363   0.972   6.525 -1.0134  0.1933 -0.3912
 4823TIP3    H235961   0.438   1.076   6.607 -1.2732  0.5839 -0.6462
 4824TIP3   OH235962   0.474   2.002  14.031 -0.6232 -0.1269  0.2754
 4824TIP3    H135963   0.469   1.909  14.054  0.3149 -0.1589  0.3599
 4824TIP3    H235964   0.510   2.044  14.109  0.9873 -0.0039 -0.4975
 4825TIP3   OH235965   1.398   6.225   5.352  0.1484 -0.0618 -0.2745
 4825TIP3    H135966   1.361   6.171   5.422  0.6644 -1.1157 -0.8186
 4825TIP3    H235967   1.492   6.206   5.355  0.7285  2.7329  1.2253
 4826TIP3   OH235968   6.653   2.750   2.113  0.2151 -0.2611 -0.2444
 4826TIP3    H135969   6.671   2.706   2.030  1.9404 -3.0747  1.5050
 4826TIP3    H235970   6.605   2.685   2.165  1.4325  0.4324  1.8516
 4827TIP3   OH235971   3.856   4.166  15.299 -0.2452 -0.1051  0.9129
 4827TIP3    H135972   3.913   4.089  15.301 -0.8585 -0.5581  1.1218
 4827TIP3    H235973   3.916   4.240  15.306  0.5257 -0.4768 -1.1480
 4828TIP3   OH235974   1.082   6.577   0.618  0.3270 -0.4952  0.3488
 4828TIP3    H135975   1.116   6.663   0.592 -2.3230  0.8551  1.0458
 4828TIP3    H235976   1.126   6.558   0.701  1.0140  0.1360  0.1355
 4829TIP3   OH235977   2.108   6.471   4.384 -0.1094  0.0736  0.1108
 4829TIP3    H135978   2.156   6.407   4.332  1.3440  0.8009  0.5466
 4829TIP3    H235979   2.019   6.468   4.349 -0.0300 -2.1106  0.0812
 4830TIP3   OH235980   5.881   6.425   3.291  0.1117 -0.2611  0.3428
 4830TIP3    H135981   5.911   6.407   3.379 -0.4538  0.6474  0.7309
 4830TIP3    H235982   5.791   6.457   3.302 -0.1226 -0.5752 -0.5909
 4831TIP3   OH235983   1.890   6.630  10.450 -0.2441 -0.0576  0.3822
 4831TIP3    H135984   1.952   6.609  10.380 -1.2865  1.2770 -0.9744
 4831TIP3    H235985   1.871   6.723  10.438 -2.1112 -0.3220  1.0959
 4832TIP3   OH235986   0.700   0.418   4.859 -0.2808 -0.0942 -0.0530
 4832TIP3    H135987   0.785   0.426   4.815 -0.2519 -1.4429 -0.2845
 4832TIP3    H235988   0.657   0.502   4.846  0.1325 -0.1427 -1.8109
 4833TIP3   OH235989   5.523   4.008  11.180 -0.3196 -0.2230  0.3698
 4833TIP3    H135990   5.462   3.936  11.162  0.7423 -1.0054 -0.1644
 4833TIP3    H235991   5.594   3.967  11.230 -0.0545  0.6024  0.6768
 4834TIP3   OH235992   6.490   4.874   2.154  0.2075 -0.0045 -0.0322
 4834TIP3    H135993   6.539   4.814   2.098  0.0252 -0.9136  0.7668
 4834TIP3    H235994   6.406   4.831   2.168  0.4830 -0.0688  1.4360
 4835TIP3   OH235995   1.205   1.933  17.131 -0.4770 -0.2086 -0.0759
 4835TIP3    H135996   1.190   1.938  17.037  3.2364 -0.6084 -0.7649
 4835TIP3    H235997   1.218   1.839  17.148  0.2936 -0.0023  0.5390
 4836TIP3   OH235998   3.484   0.047  17.158 -0.2746  0.3677 -0.7005
 4836TIP3    H135999   3.400   0.024  17.119 -0.5003  0.3109 -0.1785
 4836TIP3    H236000   3.493  -0.011  17.233  0.3744  0.1636 -0.9331
 4837TIP3   OH236001   5.159   2.515  10.610 -0.0235  0.3568  0.3762
 4837TIP3    H136002   5.248   2.495  10.639  0.0602  0.8636  0.4833
 4837TIP3    H236003   5.163   2.607  10.583  0.4041 -0.6622 -3.2383
 4838TIP3   OH236004   6.277   3.810   1.297 -0.0735 -0.3612 -0.2344
 4838TIP3    H136005   6.188   3.789   1.268 -1.1210  0.7971  2.0145
 4838TIP3    H236006   6.328   3.732   1.278 -1.6116 -1.1256 -1.3430
 4839TIP3   OH236007   0.887   0.997  14.371  0.0699 -0.1151  0.6155
 4839TIP3    H136008   0.863   1.088  14.352  1.7977  0.4283  0.8881
 4839TIP3    H236009   0.805   0.956  14.397 -1.0263  0.9501 -1.0414
 4840TIP3   OH236010   2.959   6.063  15.700  1.0403 -0.5550  0.2352
 4840TIP3    H136011   2.961   6.014  15.618 -0.2834  0.4736 -0.4420
 4840TIP3    H236012   3.022   6.133  15.687 -0.5201  0.7322 -0.6764
 4841TIP3   OH236013   2.370   4.960   6.478 -0.3350 -0.0961 -0.4247
 4841TIP3    H136014   2.437   4.911   6.430 -1.1037 -0.0510 -1.5539
 4841TIP3    H236015   2.361   4.913   6.561  1.6338  0.3239  0.0676
 4842TIP3   OH236016   4.140   0.613   3.515  0.4712  0.7788 -0.9915
 4842TIP3    H136017   4.101   0.694   3.546  0.4517  0.8920 -1.3122
 4842TIP3    H236018   4.081   0.544   3.546  1.4390  0.7315  0.8651
 4843TIP3   OH236019   4.145   0.657  11.815 -0.1236 -0.0225  0.3967
 4843TIP3    H136020   4.153   0.702  11.731  2.4108  0.7114  1.0071
 4843TIP3    H236021   4.222   0.683  11.864 -0.1169 -2.6615  1.9037
 4844TIP3   OH236022   4.468   0.645  13.157 -0.5388  0.4961  0.7127
 4844TIP3    H136023   4.380   0.658  13.191 -0.3137  1.3106  0.9923
 4844TIP3    H236024   4.494   0.731  13.123 -0.4622 -0.1258 -0.8078
 4845TIP3   OH236025   4.541   6.805   5.125  0.4075  0.4748 -0.5770
 4845TIP3    H136026   4.553   6.730   5.067 -0.7241  0.3374 -0.6351
 4845TIP3    H236027   4.473   6.857   5.084  0.0516  0.7100  0.2936
 4846TIP3   OH236028   2.304   2.095  13.814  0.1417 -0.3915 -0.0959
 4846TIP3    H136029   2.315   2.145  13.895  0.8747 -0.2386 -0.2814
 4846TIP3    H236030   2.288   2.005  13.842  1.1244 -0.4735  0.2079
 4847TIP3   OH236031   2.583   6.690  13.199 -0.2505  0.0844  0.0825
 4847TIP3    H136032   2.663   6.734  13.228 -0.3288 -0.3497  0.9713
 4847TIP3    H236033   2.556   6.738  13.121  0.0269  1.2069  0.6730
 4848TIP3   OH236034   1.623   5.664   3.348 -0.1252 -0.4138 -0.2672
 4848TIP3    H136035   1.679   5.662   3.426  0.2331  0.3856 -0.5053
 4848TIP3    H236036   1.682   5.686   3.277 -0.4564 -1.1393 -0.7697
 4849TIP3   OH236037   4.106   2.096   2.879 -0.4463  0.4041 -0.1351
 4849TIP3    H136038   4.110   2.185   2.913 -0.5921  0.6467 -0.7410
 4849TIP3    H236039   4.172   2.094   2.809 -2.2077  0.7850 -1.8306
 4850TIP3   OH236040   4.870   2.453  12.543 -0.2924  0.3499  0.1507
 4850TIP3    H136041   4.905   2.498  12.620  0.5784  0.3211 -0.2152
 4850TIP3    H236042   4.778   2.479  12.540 -0.2525  0.6153  1.0065
 4851TIP3   OH236043   3.112   0.640  14.316  0.1918  0.1198  0.4479
 4851TIP3    H136044   3.057   0.709  14.277  1.5514  1.6752  1.2104
 4851TIP3    H236045   3.053   0.594  14.376 -0.7741  0.5121 -0.1784
 4852TIP3   OH236046   2.921   0.650   1.146  0.6174 -0.7897  0.1457
 4852TIP3    H136047   2.939   0.723   1.205  0.8942 -1.0997  0.4427
 4852TIP3    H236048   2.984   0.583   1.171 -0.7797 -1.7890  1.0093
 4853TIP3   OH236049   3.663   0.503  11.874  0.3703  0.5428 -0.2402
 4853TIP3    H136050   3.752   0.512  11.841  0.4767  0.7512  0.0929
 4853TIP3    H236051   3.644   0.588  11.916  1.2106 -0.5683  2.5174
 4854TIP3   OH236052   5.559   5.629  15.451 -0.2917 -0.6345 -0.4413
 4854TIP3    H136053   5.509   5.548  15.459  2.2209 -2.1011  1.2911
 4854TIP3    H236054   5.495   5.699  15.468 -2.0250 -2.3610  0.2988
 4855TIP3   OH236055   3.996   1.382   3.574 -0.0612  0.1628 -0.0377
 4855TIP3    H136056   4.001   1.335   3.657  0.1986 -0.2731 -0.2983
 4855TIP3    H236057   3.967   1.316   3.510 -1.7172  0.8468 -0.0111
 4856TIP3   OH236058   6.475   3.239   5.503  0.5445 -0.0474 -0.0556
 4856TIP3    H136059   6.398   3.259   5.450  1.3955 -0.4736 -1.4701
 4856TIP3    H236060   6.515   3.324   5.522  1.9726 -0.0821 -2.7461
 4857TIP3   OH236061   3.446   0.070   2.546 -0.3526 -0.0497  0.2877
 4857TIP3    H136062   3.380   0.093   2.611 -0.8653  0.2971 -0.3478
 4857TIP3    H236063   3.405   0.091   2.462  1.1230  1.5828 -0.0431
 4858TIP3   OH236064   2.011   5.924   3.279 -0.3966  0.0097  0.1157
 4858TIP3    H136065   2.084   5.968   3.236 -0.5792 -2.5882 -2.9906
 4858TIP3    H236066   2.050   5.883   3.357  0.7921  1.2733  0.1901
 4859TIP3   OH236067   3.355   2.992   4.177  0.1000  0.8695  0.3488
 4859TIP3    H136068   3.440   2.952   4.197 -0.9189 -1.7161 -0.3420
 4859TIP3    H236069   3.341   2.974   4.085 -1.9578 -0.2109  0.8542
 4860TIP3   OH236070   2.529   2.847  16.800 -0.3295 -0.2072 -0.1780
 4860TIP3    H136071   2.535   2.923  16.742  1.4960 -0.7086 -0.6704
 4860TIP3    H236072   2.539   2.882  16.888 -2.7207  0.5092 -0.1567
 4861TIP3   OH236073   4.918   0.831  15.507 -0.4711  0.3981  0.1396
 4861TIP3    H136074   4.897   0.916  15.545  1.0955  0.9601 -0.1698
 4861TIP3    H236075   4.867   0.827  15.426 -1.4593  0.5145  0.7487
 4862TIP3   OH236076   5.664   3.858  13.788 -0.6828 -0.1509 -0.3751
 4862TIP3    H136077   5.644   3.952  13.786 -1.5728 -0.3516 -1.4535
 4862TIP3    H236078   5.588   3.818  13.830  0.5096 -0.2179  1.8091
 4863TIP3   OH236079   3.647   1.006  16.346 -0.4762 -0.0538  0.1847
 4863TIP3    H136080   3.601   0.934  16.390 -1.0489  1.2826  1.8216
 4863TIP3    H236081   3.701   1.045  16.414 -0.2082  1.1065 -0.6850
 4864TIP3   OH236082   4.433   5.556   3.584  0.4185  0.0277  0.0351
 4864TIP3    H136083   4.441   5.468   3.546  0.8740  0.2414 -0.3783
 4864TIP3    H236084   4.404   5.611   3.511 -0.8414  0.0442  0.5339
 4865TIP3   OH236085   1.876   5.439   0.783  0.0211  0.2788  0.0229
 4865TIP3    H136086   1.846   5.528   0.764 -2.2700 -0.6524 -0.8314
 4865TIP3    H236087   1.804   5.399   0.833  1.1727 -0.9887  0.7139
 4866TIP3   OH236088   2.055   0.671   6.640 -0.5478  0.1100 -0.2191
 4866TIP3    H136089   2.051   0.759   6.677  1.5723  0.7852 -1.5390
 4866TIP3    H236090   2.045   0.684   6.546  1.2117 -0.9012 -0.5681
 4867TIP3   OH236091   2.146   3.040   5.548  0.2466  0.0647  0.3502
 4867TIP3    H136092   2.200   3.114   5.520 -1.0159  0.5784 -0.8321
 4867TIP3    H236093   2.066   3.081   5.582 -0.6522 -0.7471 -0.7344
 4868TIP3   OH236094   5.072   0.335  11.776 -0.3840  0.1366 -0.3418
 4868TIP3    H136095   5.089   0.331  11.870  1.2822 -3.2065 -0.7079
 4868TIP3    H236096   4.989   0.289  11.764 -1.8804  2.7267 -0.2941
 4869TIP3   OH236097   0.482   5.383   1.413  0.3571  0.5002 -0.0369
 4869TIP3    H136098   0.558   5.439   1.402  0.4441  0.3018 -0.4213
 4869TIP3    H236099   0.496   5.341   1.498  0.5867  0.6004 -0.0246
 4870TIP3   OH236100   4.693   0.104  15.083 -0.1547 -0.1015 -0.2959
 4870TIP3    H136101   4.696   0.030  15.023  0.4877 -0.3060 -0.0242
 4870TIP3    H236102   4.718   0.067  15.168 -0.0705  0.3737 -0.1076
 4871TIP3   OH236103   3.773   3.967  16.412  0.2835 -0.1562  0.1426
 4871TIP3    H136104   3.682   3.983  16.437 -0.5426 -4.1718  0.0741
 4871TIP3    H236105   3.770   3.957  16.317  0.8076 -0.1811  0.1265
 4872TIP3   OH236106   6.598   0.459  12.195  0.5142 -0.3362  0.0145
 4872TIP3    H136107   6.627   0.549  12.214  0.7642 -0.4319  0.0920
 4872TIP3    H236108   6.679   0.410  12.186  0.3740 -0.7471  0.8851
 4873TIP3   OH236109   0.566   3.643   5.705  0.6302  0.7839 -0.2607
 4873TIP3    H136110   0.570   3.739   5.698 -0.0995  0.7182 -1.8697
 4873TIP3    H236111   0.474   3.624   5.725  0.7491  0.4088 -0.0664
 4874TIP3   OH236112   5.580   3.726  12.222  0.6972 -0.0914 -0.1299
 4874TIP3    H136113   5.541   3.690  12.302 -0.6727  0.1329 -0.6678
 4874TIP3    H236114   5.613   3.812  12.249  1.5000 -0.5880  0.5105
 4875TIP3   OH236115   3.982   6.241  16.427  0.4405 -0.1616 -0.3970
 4875TIP3    H136116   3.963   6.212  16.337  0.0059 -1.0967 -0.0131
 4875TIP3    H236117   3.919   6.194  16.481 -0.0669  1.2913  0.2928
 4876TIP3   OH236118   1.279   3.773  14.601  0.1883  0.1152 -0.1609
 4876TIP3    H136119   1.245   3.828  14.672 -1.7466  0.8630 -1.6205
 4876TIP3    H236120   1.201   3.741  14.556  1.3535 -1.7940 -0.8833
 4877TIP3   OH236121   6.521   0.289  15.157 -0.0956  0.3888 -0.0201
 4877TIP3    H136122   6.519   0.374  15.201  0.7039 -1.0447  2.9142
 4877TIP3    H236123   6.489   0.227  15.223  0.2266 -1.7290 -1.7890
 4878TIP3   OH236124   3.406   0.941   6.059 -0.3598 -0.8958 -0.4719
 4878TIP3    H136125   3.345   0.900   6.121  1.3208 -2.1462  0.4138
 4878TIP3    H236126   3.458   0.868   6.024  0.5567  0.1131 -1.2780
 4879TIP3   OH236127   3.184   2.536  13.681  0.3908 -0.0049  0.1945
 4879TIP3    H136128   3.250   2.480  13.640  1.7281  0.0274  2.2509
 4879TIP3    H236129   3.186   2.512  13.773 -0.8415  1.6431  0.6683
 4880TIP3   OH236130   2.107   4.170   3.235  0.1613 -0.6818  0.1534
 4880TIP3    H136131   2.172   4.160   3.304 -1.1059 -1.7776  1.2195
 4880TIP3    H236132   2.035   4.112   3.260 -1.0578  0.1716 -1.2155
 4881TIP3   OH236133   1.256   3.771  12.212  0.6042  0.5489 -0.1398
 4881TIP3    H136134   1.195   3.743  12.280  2.3644 -1.1351  0.8123
 4881TIP3    H236135   1.238   3.865  12.200 -0.3418  0.6601  1.9999
 4882TIP3   OH236136   1.679   2.204   4.119 -1.1085  0.0083 -0.3619
 4882TIP3    H136137   1.763   2.158   4.114 -0.9148  0.4204 -1.0303
 4882TIP3    H236138   1.702   2.292   4.148 -1.0475  0.7641 -2.5640
 4883TIP3   OH236139   4.576   1.547  12.910 -0.4460 -0.3229  0.1368
 4883TIP3    H136140   4.606   1.474  12.855  0.0262 -0.9187  1.1684
 4883TIP3    H236141   4.482   1.554  12.890 -0.3605 -0.7875 -0.4548
 4884TIP3   OH236142   4.643   3.700   1.384 -0.5511  0.5369 -0.4876
 4884TIP3    H136143   4.617   3.608   1.398  1.4608 -0.0410 -0.4352
 4884TIP3    H236144   4.581   3.750   1.436 -1.8243 -0.7681 -0.6826
 4885TIP3   OH236145   3.636   1.292   0.371 -0.9917 -0.3929  0.4468
 4885TIP3    H136146   3.654   1.247   0.288 -0.7369  0.1534  0.2031
 4885TIP3    H236147   3.722   1.319   0.402 -1.3396  2.2961 -0.7563
 4886TIP3   OH236148   5.552   2.734   1.206 -0.1984  0.0023  0.1232
 4886TIP3    H136149   5.594   2.664   1.255 -0.7058 -0.9490 -0.7803
 4886TIP3    H236150   5.622   2.771   1.153  0.1949  0.5638  1.0294
 4887TIP3   OH236151   6.503   2.056  16.355 -0.4200 -0.0114  0.5416
 4887TIP3    H136152   6.532   2.005  16.430  1.8789  2.5046  1.4484
 4887TIP3    H236153   6.535   2.008  16.279  0.9159 -0.4027  1.3427
 4888TIP3   OH236154   5.905   0.763   1.876 -0.8628  0.0409 -0.5237
 4888TIP3    H136155   5.994   0.794   1.858 -0.3573  0.7716  2.9225
 4888TIP3    H236156   5.848   0.819   1.823  0.6375  0.6941 -1.4615
 4889TIP3   OH236157   0.507   5.280   3.274 -0.3121  0.0289  0.2934
 4889TIP3    H136158   0.545   5.338   3.339  0.9430 -0.8938  0.4188
 4889TIP3    H236159   0.458   5.215   3.325 -1.2914  0.6808  0.1839
 4890TIP3   OH236160   0.146   5.195   0.618  0.1518 -0.6732  0.0030
 4890TIP3    H136161   0.241   5.192   0.617  0.2256  1.1838 -0.2847
 4890TIP3    H236162   0.119   5.114   0.575  1.6060 -0.7749 -0.7545
 4891TIP3   OH236163   6.400   5.423  14.596 -0.2305 -0.5135  0.2618
 4891TIP3    H136164   6.305   5.423  14.611 -0.5776  0.7878 -1.6710
 4891TIP3    H236165   6.425   5.331  14.595 -1.7724 -0.9292 -0.8972
 4892TIP3   OH236166   1.503   5.093   2.457 -0.3432  0.2752  0.0295
 4892TIP3    H136167   1.450   5.168   2.431  0.7725  0.9830 -0.2576
 4892TIP3    H236168   1.576   5.092   2.394  0.0545 -0.5983  0.4903
 4893TIP3   OH236169   1.328   5.261  12.105 -0.0340 -0.5867  0.1103
 4893TIP3    H136170   1.264   5.333  12.103  0.4601 -0.0971  1.1250
 4893TIP3    H236171   1.395   5.286  12.041  0.5922  0.3165  1.0937
 4894TIP3   OH236172   2.433   0.632  13.109  0.1566 -0.3554  0.2543
 4894TIP3    H136173   2.494   0.705  13.104  0.2509 -0.3750  1.1170
 4894TIP3    H236174   2.382   0.648  13.189 -0.9716 -0.3371 -0.4444
 4895TIP3   OH236175   5.001   4.120   0.961 -0.7492  0.2182  0.3690
 4895TIP3    H136176   4.938   4.191   0.975 -2.6470 -1.6171  1.4643
 4895TIP3    H236177   4.966   4.072   0.886 -0.3849 -0.5340  0.6764
 4896TIP3   OH236178   1.706   2.444  11.557  0.4260  0.6910  0.3611
 4896TIP3    H136179   1.641   2.508  11.586  0.7000  1.1993 -0.1374
 4896TIP3    H236180   1.675   2.414  11.472 -0.5780 -1.0880  1.3427
 4897TIP3   OH236181   4.353   0.716  12.505 -0.4221  0.0354  0.3022
 4897TIP3    H136182   4.291   0.734  12.435 -1.4487  1.0169  1.4535
 4897TIP3    H236183   4.311   0.749  12.584  0.3979 -1.7269  1.5052
 4898TIP3   OH236184   0.890   5.536   4.440  0.4242  0.0439 -0.2330
 4898TIP3    H136185   0.839   5.459   4.463  1.1990 -0.0918  1.1078
 4898TIP3    H236186   0.980   5.504   4.430  0.5497  0.5704 -0.8119
 4899TIP3   OH236187   1.638   0.414   1.462 -0.0793  0.5419  0.2774
 4899TIP3    H136188   1.668   0.449   1.378 -0.1190 -0.1609 -0.0378
 4899TIP3    H236189   1.719   0.395   1.510 -0.0526  0.6697  0.2835
 4900TIP3   OH236190   1.726   5.453  12.521  0.5707  0.0385  0.1219
 4900TIP3    H136191   1.684   5.464  12.606  2.8754 -1.2467  1.4867
 4900TIP3    H236192   1.811   5.495  12.530  1.5826 -1.7037 -0.9051
 4901TIP3   OH236193   4.975   1.852  15.833  0.3517 -0.4014 -0.0684
 4901TIP3    H136194   4.996   1.768  15.792  1.8300 -0.4120  0.6908
 4901TIP3    H236195   5.053   1.874  15.883  0.1813  1.7306 -0.7291
 4902TIP3   OH236196   2.564   2.792   3.824  0.3890 -0.4257 -1.0071
 4902TIP3    H136197   2.497   2.855   3.849 -0.4679 -0.7633 -2.4198
 4902TIP3    H236198   2.579   2.741   3.904 -0.7212 -0.0560 -0.5483
 4903TIP3   OH236199   4.029   3.674   6.183 -0.3746 -0.5818  0.3883
 4903TIP3    H136200   4.000   3.764   6.167  0.8291 -0.3084 -0.2866
 4903TIP3    H236201   4.092   3.681   6.254  0.7143 -0.7213 -0.5598
 4904TIP3   OH236202   4.524   0.866  14.571  0.0422 -0.1100 -0.2506
 4904TIP3    H136203   4.593   0.930  14.584 -0.6891  0.6209  0.0953
 4904TIP3    H236204   4.501   0.837  14.660 -1.2237  0.8739 -0.2391
 4905TIP3   OH236205   2.182   1.431   2.199  0.5662  0.0039  0.2723
 4905TIP3    H136206   2.166   1.494   2.269 -1.8509 -0.7599  0.4539
 4905TIP3    H236207   2.114   1.450   2.134  0.8885 -1.2922 -0.4597
 4906TIP3   OH236208   3.260   2.426   4.113  0.5384  0.4313  0.1418
 4906TIP3    H136209   3.332   2.463   4.165  1.2144 -0.7427  0.0580
 4906TIP3    H236210   3.187   2.487   4.126  1.4497  1.4773  0.4783
 4907TIP3   OH236211   5.293   2.652  10.847  0.0690 -0.0913  0.2292
 4907TIP3    H136212   5.201   2.626  10.852  0.3520 -1.0643  0.4862
 4907TIP3    H236213   5.303   2.717  10.916 -0.7301  0.9518 -0.6275
 4908TIP3   OH236214   4.754   4.762   3.599  0.0595 -0.2323  0.2174
 4908TIP3    H136215   4.790   4.731   3.516 -1.8331 -0.4105 -0.5662
 4908TIP3    H236216   4.769   4.857   3.597  1.2113 -0.4010  0.2902
 4909TIP3   OH236217   4.146   1.605   0.983  0.1834 -0.3228  0.9851
 4909TIP3    H136218   4.194   1.524   0.963 -1.7694 -1.7762  2.0746
 4909TIP3    H236219   4.142   1.607   1.079 -2.8762 -0.8353  0.9167
 4910TIP3   OH236220   4.583   2.600  14.417 -0.2382  0.2598  0.5871
 4910TIP3    H136221   4.675   2.582  14.435 -0.4304 -0.4878  0.8381
 4910TIP3    H236222   4.575   2.695  14.421  0.2929  0.2628  1.6719
 4911TIP3   OH236223   1.665   0.646   1.837 -0.7019 -0.6215  0.2980
 4911TIP3    H136224   1.693   0.669   1.926 -0.1029 -0.9851  0.2102
 4911TIP3    H236225   1.674   0.551   1.834 -2.0394 -0.7551  0.2870
 4912TIP3   OH236226   2.815   0.189   4.715 -0.9746  0.2097  0.2312
 4912TIP3    H136227   2.880   0.140   4.664 -0.9202 -0.2561  0.7452
 4912TIP3    H236228   2.816   0.147   4.801 -0.8895  1.1450  0.6923
 4913TIP3   OH236229   1.466   4.141   5.159  0.5812 -0.1663  0.2052
 4913TIP3    H136230   1.475   4.091   5.240  0.0213 -0.2897  0.1931
 4913TIP3    H236231   1.424   4.079   5.098  0.2749  0.1814  0.0631
 4914TIP3   OH236232   1.912   0.192   6.088  0.1633  0.4410  0.5062
 4914TIP3    H136233   1.968   0.268   6.078  0.2479  0.5062  1.4464
 4914TIP3    H236234   1.849   0.217   6.156 -2.2541  1.0990 -1.9229
 4915TIP3   OH236235   2.761   3.140   5.442  0.2202  0.0577  0.0979
 4915TIP3    H136236   2.713   3.065   5.406 -0.2987  0.9746 -1.1769
 4915TIP3    H236237   2.816   3.170   5.369  0.0837  1.2045  0.4611
 4916TIP3   OH236238   4.048   4.748   3.960 -0.2456  0.1472  0.2413
 4916TIP3    H136239   4.088   4.736   3.874  0.5979  0.7016  0.5448
 4916TIP3    H236240   4.040   4.843   3.969 -1.9354  0.0313  0.0545
 4917TIP3   OH236241   2.898   3.703   6.208 -0.0210  0.1613  0.5242
 4917TIP3    H136242   2.981   3.746   6.228 -0.4381  1.0714  0.3302
 4917TIP3    H236243   2.838   3.735   6.274 -0.6381  0.8179 -0.3403
 4918TIP3   OH236244   1.779   6.012   3.380 -1.2029 -0.3512  0.4108
 4918TIP3    H136245   1.713   6.004   3.311 -0.5438  0.1727 -0.2808
 4918TIP3    H236246   1.858   5.973   3.342 -0.2972  1.7160  0.1441
 4919TIP3   OH236247   1.879   0.627   1.615  0.4315 -0.1264  0.0566
 4919TIP3    H136248   1.790   0.630   1.648 -0.0447  0.8732 -1.2741
 4919TIP3    H236249   1.917   0.711   1.639  0.3255  0.3042 -1.2147
 4920TIP3   OH236250   4.189   5.038  11.625 -0.3034  0.4346 -0.3629
 4920TIP3    H136251   4.255   4.974  11.598 -0.3040  0.7750 -1.1850
 4920TIP3    H236252   4.223   5.076  11.706  0.2972  0.2946 -0.5507
 4921TIP3   OH236253   6.371   0.449   2.512  0.0710  0.0063 -0.2433
 4921TIP3    H136254   6.431   0.517   2.542 -0.4600 -0.1993  1.3350
 4921TIP3    H236255   6.427   0.372   2.500  0.2562  0.0383  0.4084
 4922TIP3   OH236256   0.558   2.360   0.997 -0.2862  0.2899 -0.6957
 4922TIP3    H136257   0.630   2.422   0.982 -0.5665  1.1591  1.4325
 4922TIP3    H236258   0.601   2.278   1.022 -0.0433  1.0356  1.3677
 4923TIP3   OH236259   2.421   2.451  13.396  0.9040 -0.3867 -0.0179
 4923TIP3    H136260   2.424   2.470  13.489  0.9431 -0.4691 -0.0022
 4923TIP3    H236261   2.376   2.526  13.357 -0.3058 -0.9590  0.2341
 4924TIP3   OH236262   3.051   3.358  16.191  0.3047 -0.1461  0.2653
 4924TIP3    H136263   3.071   3.267  16.167 -0.5403  0.1242 -1.6192
 4924TIP3    H236264   3.097   3.410  16.125  0.6028  0.7890  1.2120
 4925TIP3   OH236265   6.697   2.419  17.000  0.8794 -0.0825 -0.3995
 4925TIP3    H136266   6.706   2.444  17.092 -0.5133 -0.1586 -0.2295
 4925TIP3    H236267   6.608   2.445  16.977  0.5362 -1.8614 -1.1536
 4926TIP3   OH236268   0.901   6.564  13.551 -0.1550 -0.1209 -0.2228
 4926TIP3    H136269   0.857   6.505  13.612 -0.5533 -0.2307 -0.6130
 4926TIP3    H236270   0.859   6.649  13.567  0.2048 -0.0084  0.1219
 4927TIP3   OH236271   0.431   4.152  11.296  0.4825  0.7314 -0.0341
 4927TIP3    H136272   0.373   4.099  11.350 -0.2431  2.4540  0.9072
 4927TIP3    H236273   0.392   4.239  11.298  1.3771  1.1919 -1.9773
 4928TIP3   OH236274   3.801   3.146  13.105 -0.4399 -0.0964  0.0656
 4928TIP3    H136275   3.736   3.214  13.090 -0.3179  0.2710  1.2311
 4928TIP3    H236276   3.842   3.133  13.019 -0.4064  1.3434 -0.1369
 4929TIP3   OH236277   6.086   5.795   0.311 -0.0629  0.4937 -0.4823
 4929TIP3    H136278   6.158   5.766   0.255 -0.0501 -0.8098  0.1757
 4929TIP3    H236279   6.103   5.753   0.396 -2.7961 -1.7732 -0.9381
 4930TIP3   OH236280   3.258   5.037  11.958  0.5882 -0.3498 -0.3779
 4930TIP3    H136281   3.173   5.049  11.999  0.4281  0.1613 -0.8425
 4930TIP3    H236282   3.321   5.044  12.029  0.2563 -0.4204 -0.0787
 4931TIP3   OH236283   3.906   1.165  14.536  0.0608  0.1337  0.2813
 4931TIP3    H136284   3.938   1.085  14.579  2.2876  0.1704 -1.2429
 4931TIP3    H236285   3.941   1.236  14.590  2.1919  0.1615 -1.0948
 4932TIP3   OH236286   1.976   4.085  13.315 -0.0318  0.2933  0.6259
 4932TIP3    H136287   1.915   4.020  13.350 -0.1562  0.1340  0.1218
 4932TIP3    H236288   1.934   4.169  13.332  0.0406  0.2304  1.1118
 4933TIP3   OH236289   3.502   4.192  13.767 -0.8341 -0.2288  0.0712
 4933TIP3    H136290   3.429   4.130  13.766 -0.4661 -0.6560 -0.1185
 4933TIP3    H236291   3.509   4.222  13.676  0.3316 -1.4756 -0.2612
 4934TIP3   OH236292   6.560   4.041   5.350 -0.5690  0.2280 -0.0655
 4934TIP3    H136293   6.549   3.950   5.377  3.0067 -0.0383  0.7242
 4934TIP3    H236294   6.509   4.091   5.413 -0.5285 -1.0601  1.0214
 4935TIP3   OH236295   5.297   2.008   1.426  0.1040 -0.8264 -0.7141
 4935TIP3    H136296   5.275   2.101   1.430  0.2496 -0.8521  0.8532
 4935TIP3    H236297   5.248   1.968   1.497  0.5874 -1.8378 -0.9397
 4936TIP3   OH236298   0.969   3.925  12.870  0.1134  0.3130 -0.2162
 4936TIP3    H136299   1.034   3.904  12.937  0.1501 -0.0898 -0.3798
 4936TIP3    H236300   0.957   4.020  12.878 -0.0422  0.2373  0.5023
 4937TIP3   OH236301   2.429   4.323  16.423  0.6380 -0.1451 -0.2784
 4937TIP3    H136302   2.473   4.290  16.345 -0.0496 -0.4407 -0.5509
 4937TIP3    H236303   2.428   4.418  16.412  1.9864 -0.0694  0.1603
 4938TIP3   OH236304   5.185   1.320  15.520  0.1701 -0.1750 -0.4581
 4938TIP3    H136305   5.168   1.252  15.454  2.4783 -0.0718 -1.1884
 4938TIP3    H236306   5.276   1.346  15.505  0.2386  0.9661  1.7710
 4939TIP3   OH236307   5.538   0.437   5.637 -0.7187  0.0783 -0.3032
 4939TIP3    H136308   5.514   0.349   5.667  1.5475 -0.1326  0.9631
 4939TIP3    H236309   5.499   0.496   5.702  1.4451 -0.2286  1.3194
 4940TIP3   OH236310   0.993   1.415   1.324  0.0331 -0.4651  0.3735
 4940TIP3    H136311   0.969   1.468   1.248 -2.5366 -1.3031  0.5495
 4940TIP3    H236312   1.086   1.399   1.313  0.1663  1.2783 -1.4357
 4941TIP3   OH236313   2.955   5.578   4.932 -0.5881  0.1279  0.4456
 4941TIP3    H136314   2.954   5.573   5.028  0.6663  2.0673  0.5950
 4941TIP3    H236315   3.007   5.502   4.905  0.3251  0.3995  1.3929
 4942TIP3   OH236316   6.033   2.789   5.405 -0.1451 -0.1799 -0.1424
 4942TIP3    H136317   6.057   2.818   5.317  0.1890 -0.4392 -0.1357
 4942TIP3    H236318   5.950   2.741   5.394  0.8045 -1.7476 -0.5669
 4943TIP3   OH236319   0.967   6.144   4.134  0.7601  0.2736  0.1271
 4943TIP3    H136320   0.919   6.220   4.168 -0.4919 -0.7661  0.7149
 4943TIP3    H236321   1.049   6.144   4.182 -0.3697 -0.3079  2.1302
 4944TIP3   OH236322   4.760   6.696  16.363  0.3274 -0.2858 -0.0203
 4944TIP3    H136323   4.691   6.720  16.426 -1.3402 -1.5909 -1.3105
 4944TIP3    H236324   4.742   6.751  16.287  0.9011 -0.4202 -0.2462
 4945TIP3   OH236325   0.204   3.003   3.469  0.1578  0.2244 -0.1204
 4945TIP3    H136326   0.255   3.019   3.548  0.1565 -1.4612  0.2430
 4945TIP3    H236327   0.113   3.006   3.499  0.1066  1.0498 -0.3480
 4946TIP3   OH236328   2.126   6.473  15.304 -0.3975 -0.9699  0.2749
 4946TIP3    H136329   2.192   6.460  15.373 -1.4297  0.6170  1.6132
 4946TIP3    H236330   2.078   6.390  15.302 -0.4148 -1.0124  1.5533
 4947TIP3   OH236331   5.000   0.572  12.158  0.6739 -0.2820 -0.1024
 4947TIP3    H136332   4.923   0.542  12.111  2.0121 -0.8059 -2.0463
 4947TIP3    H236333   4.972   0.651  12.204 -1.2181 -0.9482 -0.1038
 4948TIP3   OH236334   6.018   0.822  11.774  0.5466  0.7589 -0.0707
 4948TIP3    H136335   6.044   0.914  11.778  0.8485  0.6840 -0.2728
 4948TIP3    H236336   6.100   0.775  11.761  0.7139  0.2641  2.5319
 4949TIP3   OH236337   5.442   6.199   1.391 -0.0152  0.0564  0.0534
 4949TIP3    H136338   5.406   6.110   1.385  2.7218 -1.0594 -0.7865
 4949TIP3    H236339   5.468   6.220   1.301 -0.7608  1.7638  0.2295
 4950TIP3   OH236340   2.294   5.158   3.666 -0.4266  0.0611  0.5400
 4950TIP3    H136341   2.302   5.248   3.699 -2.0748 -0.0925  1.3895
 4950TIP3    H236342   2.358   5.108   3.717  0.9624  0.8624 -0.3895
 4951TIP3   OH236343   1.919   1.991   5.020 -0.7491  0.0722  0.6445
 4951TIP3    H136344   1.873   1.909   4.999 -0.4516  0.3477 -1.1695
 4951TIP3    H236345   1.860   2.060   4.988  1.3562  0.4064 -2.7587
 4952TIP3   OH236346   5.155   5.712   0.756 -0.5548 -0.0581 -0.5448
 4952TIP3    H136347   5.235   5.731   0.707  0.3390  0.3169  1.0187
 4952TIP3    H236348   5.167   5.622   0.786 -0.6464  0.0491 -0.1848
 4953TIP3   OH236349   6.467   3.052  13.241  0.0955 -0.8991 -0.3894
 4953TIP3    H136350   6.504   3.119  13.299 -1.6130 -0.2642  0.0006
 4953TIP3    H236351   6.540   3.025  13.186  1.3301 -0.2594  0.9012
 4954TIP3   OH236352   3.552   1.898  13.454 -0.1807 -0.3719 -0.5506
 4954TIP3    H136353   3.468   1.853  13.444  0.0620 -0.5786 -1.7351
 4954TIP3    H236354   3.549   1.968  13.389 -0.1225  0.6724  0.5531
 4955TIP3   OH236355   6.205   2.552  16.659 -0.4177 -0.0922  0.3975
 4955TIP3    H136356   6.255   2.492  16.604  0.8145 -0.1408  1.5337
 4955TIP3    H236357   6.173   2.498  16.732  1.5693  0.7752  1.9783
 4956TIP3   OH236358   3.875   4.149  10.560  0.6187 -0.4416 -0.4251
 4956TIP3    H136359   3.853   4.234  10.523 -0.5162  0.0976  1.4367
 4956TIP3    H236360   3.817   4.088  10.514  0.5192 -0.0340 -0.8468
 4957TIP3   OH236361   5.135   1.718  11.462  0.0927  0.4573 -0.1850
 4957TIP3    H136362   5.082   1.753  11.390  0.2014 -3.4273 -2.3297
 4957TIP3    H236363   5.223   1.708  11.424  0.3065 -1.0103  0.6725
 4958TIP3   OH236364   5.465   2.264  16.281 -0.2763  1.0416 -0.3008
 4958TIP3    H136365   5.519   2.333  16.243  0.8668  1.1970  1.5807
 4958TIP3    H236366   5.519   2.185  16.276  0.0531  1.1475  1.3559
 4959TIP3   OH236367   0.153   6.247  11.685 -0.1894 -0.4273  0.5563
 4959TIP3    H136368   0.073   6.289  11.655  1.5614  1.9193 -1.0060
 4959TIP3    H236369   0.173   6.291  11.768  0.4012  0.1846  0.0890
 4960TIP3   OH236370   0.506   1.602   3.492 -0.4733  0.4169 -0.2149
 4960TIP3    H136371   0.481   1.629   3.580  1.8273  0.4687  0.4536
 4960TIP3    H236372   0.579   1.659   3.468 -0.7682  0.0978 -1.9819
 4961TIP3   OH236373   1.092   0.581  14.438  0.3463 -0.4676  0.7638
 4961TIP3    H136374   1.031   0.620  14.375 -0.3708 -1.3353  0.9131
 4961TIP3    H236375   1.109   0.493  14.403  0.3959 -0.7467  1.4843
 4962TIP3   OH236376   5.862   5.311  13.466  0.0934 -0.3438  0.2649
 4962TIP3    H136377   5.771   5.307  13.497  0.0487  3.1961  0.8367
 4962TIP3    H236378   5.854   5.321  13.371 -0.0284 -2.0210  0.0833
 4963TIP3   OH236379   4.870   2.686   0.166  0.1396  0.0852 -0.1564
 4963TIP3    H136380   4.802   2.749   0.188 -0.3546 -0.2705 -0.6359
 4963TIP3    H236381   4.826   2.601   0.173  1.0211 -0.2569  1.3115
 4964TIP3   OH236382   0.185   1.597  13.425  0.1581  0.6155 -0.1017
 4964TIP3    H136383   0.225   1.514  13.396 -1.1383  0.5173 -1.7004
 4964TIP3    H236384   0.259   1.653  13.448  1.2272  0.2300 -2.4351
 4965TIP3   OH236385   1.478   5.036  16.114  0.2620  0.0949 -0.4846
 4965TIP3    H136386   1.559   5.057  16.068  0.3578  0.2921 -0.2269
 4965TIP3    H236387   1.497   5.054  16.206  0.1350 -0.4787 -0.3425
 4966TIP3   OH236388   3.892   1.248  11.540 -0.5453 -0.1565 -0.0689
 4966TIP3    H136389   3.861   1.160  11.563  0.6233 -1.2878 -2.6288
 4966TIP3    H236390   3.846   1.269  11.460 -1.0081  1.7070  0.6787
 4967TIP3   OH236391   6.215   2.908   2.534  0.1995  0.0896  0.1629
 4967TIP3    H136392   6.280   2.884   2.600 -0.1867  0.4936  0.6849
 4967TIP3    H236393   6.243   2.994   2.502  0.3917 -0.1092 -0.2106
 4968TIP3   OH236394   6.720   0.180   0.970  0.2201 -0.3050 -0.3104
 4968TIP3    H136395   6.729   0.275   0.960  0.0120 -0.2612 -0.0719
 4968TIP3    H236396   6.785   0.144   0.909  1.3050  0.0089  0.6338
 4969TIP3   OH236397   1.980   6.545   0.547 -0.6771  0.1028 -0.1786
 4969TIP3    H136398   1.955   6.637   0.536 -3.2601 -0.5301  0.2706
 4969TIP3    H236399   2.009   6.539   0.639  0.5089  0.6775 -0.5036
 4970TIP3   OH236400   3.116   1.642  13.273 -0.0729 -0.5369  0.1654
 4970TIP3    H136401   3.052   1.655  13.203 -0.7875  1.3668  1.1167
 4970TIP3    H236402   3.123   1.547  13.282 -1.6004 -0.7835 -1.0041
 4971TIP3   OH236403   0.033   6.229  11.339  0.2129  0.2017 -0.2117
 4971TIP3    H136404  -0.041   6.286  11.321 -0.9291 -1.4023 -0.6597
 4971TIP3    H236405   0.091   6.239  11.263 -0.3752  0.1449 -0.6655
 4972TIP3   OH236406   0.673   0.834   3.633 -0.1517 -0.0330 -0.4773
 4972TIP3    H136407   0.711   0.881   3.559  0.2391 -0.3686 -0.4913
 4972TIP3    H236408   0.617   0.899   3.677 -0.4047  0.1569 -1.0801
 4973TIP3   OH236409   3.369   3.410  14.305  0.4277 -0.1379  0.2871
 4973TIP3    H136410   3.276   3.430  14.314 -0.0765 -2.1027 -0.3971
 4973TIP3    H236411   3.393   3.443  14.218  0.7332  1.6225  1.0082
 4974TIP3   OH236412   2.530   1.763   0.703 -0.0967  0.1870 -0.3873
 4974TIP3    H136413   2.603   1.785   0.761  0.0403 -0.3520 -0.3609
 4974TIP3    H236414   2.549   1.811   0.623 -0.8498  1.8254  0.3829
 4975TIP3   OH236415   1.581   4.442   4.113  0.1154 -0.4622 -0.6875
 4975TIP3    H136416   1.571   4.356   4.155 -0.3269  0.3123  0.8108
 4975TIP3    H236417   1.496   4.460   4.074  0.6055 -1.3066 -2.2137
 4976TIP3   OH236418   1.189   1.689  16.738 -0.0884 -0.2045  0.0797
 4976TIP3    H136419   1.124   1.632  16.780 -0.0087 -0.1723  0.2445
 4976TIP3    H236420   1.214   1.751  16.806 -0.7316  0.5008 -0.3261
 4977TIP3   OH236421   0.069   6.025   5.300  0.0894  0.1833 -0.5330
 4977TIP3    H136422   0.145   5.983   5.341  1.7952  0.7240 -3.0396
 4977TIP3    H236423  -0.005   5.998   5.354  1.5798 -3.2292 -0.0520
 4978TIP3   OH236424   6.410   6.698   1.925 -0.1975  0.0817 -0.3486
 4978TIP3    H136425   6.339   6.706   1.861  0.3760 -1.8218 -1.2737
 4978TIP3    H236426   6.409   6.781   1.972 -3.6856 -0.2459  0.3331
 4979TIP3   OH236427   2.498   1.108  11.219  0.1200 -0.0343 -0.4870
 4979TIP3    H136428   2.405   1.099  11.197  0.1865 -0.6767 -0.5361
 4979TIP3    H236429   2.543   1.102  11.134  0.2162  0.1046 -0.4457
 4980TIP3   OH236430   0.247   0.215   5.231 -0.1510  0.1401 -0.3852
 4980TIP3    H136431   0.311   0.257   5.174 -0.7550  0.8529 -0.5534
 4980TIP3    H236432   0.163   0.255   5.206 -0.9125 -1.9853 -1.3667
 4981TIP3   OH236433   1.711   2.289  12.195 -0.6384  0.3178 -0.2691
 4981TIP3    H136434   1.775   2.355  12.168  0.0559 -0.4286 -0.4654
 4981TIP3    H236435   1.720   2.285  12.290 -0.5417  0.3610 -0.2761
 4982TIP3   OH236436   5.965   0.751  12.424  0.2164  0.0011  0.0796
 4982TIP3    H136437   5.926   0.801  12.495 -0.4531 -0.6787  0.1891
 4982TIP3    H236438   5.946   0.802  12.345  0.5587  0.5158  0.3249
 4983TIP3   OH236439   5.963   3.791  12.108  0.6522 -0.3606  0.4430
 4983TIP3    H136440   6.052   3.757  12.099  0.9339  0.9250 -1.9221
 4983TIP3    H236441   5.956   3.814  12.201  3.0956  0.3131  0.5003
 4984TIP3   OH236442   4.954   0.700   0.574 -0.2574 -0.4395 -0.3189
 4984TIP3    H136443   5.039   0.657   0.583  0.2251  0.3623 -0.8428
 4984TIP3    H236444   4.899   0.662   0.642  0.3177 -1.4710 -0.4319
 4985TIP3   OH236445   0.602   2.405  15.699  0.1539 -0.3351  0.2272
 4985TIP3    H136446   0.583   2.327  15.647 -1.2017 -0.7292  1.2988
 4985TIP3    H236447   0.584   2.379  15.790  3.8500 -0.1158  1.1272
 4986TIP3   OH236448   6.120   3.562  15.646  0.3342 -0.3168  0.1433
 4986TIP3    H136449   6.130   3.489  15.586  2.1698  1.2457 -1.5190
 4986TIP3    H236450   6.208   3.582  15.675 -0.2862  0.4317  1.5622
 4987TIP3   OH236451   3.181   1.795   2.656 -0.3877 -0.5427  0.1639
 4987TIP3    H136452   3.107   1.847   2.687  0.8036 -0.0318  2.2640
 4987TIP3    H236453   3.203   1.833   2.570 -2.3274 -0.4989 -0.3287
 4988TIP3   OH236454   1.646   5.147  15.938 -0.4954  0.1557 -0.1998
 4988TIP3    H136455   1.715   5.173  15.878 -0.0123 -0.3860  0.1173
 4988TIP3    H236456   1.608   5.230  15.968 -1.3568  0.4201 -1.9446
 4989TIP3   OH236457   4.117   6.214   4.948  0.5638  0.4379 -0.4668
 4989TIP3    H136458   4.177   6.160   4.896 -1.1535 -1.0607 -0.9735
 4989TIP3    H236459   4.091   6.284   4.888  1.0922  0.5734 -0.5444
 4990TIP3   OH236460   2.929   4.609   0.304 -1.1563  0.2679 -0.7572
 4990TIP3    H136461   2.986   4.596   0.229 -2.6786 -1.7014 -1.6268
 4990TIP3    H236462   2.977   4.571   0.378 -0.1781  1.1169 -0.9507
 4991TIP3   OH236463   5.098   2.991   3.091 -0.5332 -0.2209  0.0340
 4991TIP3    H136464   5.088   3.087   3.088 -1.2552 -0.2510  0.9778
 4991TIP3    H236465   5.009   2.958   3.102 -0.5288 -1.1380 -2.3852
 4992TIP3   OH236466   0.450   2.035   4.966 -0.0542  0.4410 -0.3402
 4992TIP3    H136467   0.472   2.060   4.876 -0.0105  0.1629 -0.4060
 4992TIP3    H236468   0.389   1.962   4.956  2.6253 -1.9174 -0.1163
 4993TIP3   OH236469   6.500   4.984  10.549  0.3209 -0.2238 -0.5164
 4993TIP3    H136470   6.477   4.966  10.458 -0.9542 -0.8695 -0.0866
 4993TIP3    H236471   6.502   5.079  10.555  1.1973 -0.1762 -1.3954
 4994TIP3   OH236472   5.890   5.475   6.296  0.2584 -0.4525 -0.0819
 4994TIP3    H136473   5.829   5.470   6.222  1.6652  0.8615 -1.3632
 4994TIP3    H236474   5.955   5.407   6.277  0.7274  0.0151 -0.1655
 4995TIP3   OH236475   5.513   6.302  10.499 -0.2348  0.6418  0.0904
 4995TIP3    H136476   5.422   6.303  10.530 -0.8701  0.0404 -1.6750
 4995TIP3    H236477   5.521   6.382  10.447 -0.8876 -1.1084 -2.8017
 4996TIP3   OH236478   3.258   3.716  14.391  0.5946  0.3109  0.2047
 4996TIP3    H136479   3.230   3.695  14.302  1.2526 -0.8201  0.2524
 4996TIP3    H236480   3.187   3.685  14.447 -1.1114  3.5534 -0.0719
 4997TIP3   OH236481   6.445   5.712   4.082 -0.4362 -0.1321 -0.1336
 4997TIP3    H136482   6.435   5.698   4.176  1.2657 -1.5972 -0.1399
 4997TIP3    H236483   6.495   5.793   4.074 -0.5214 -0.0445  0.2333
 4998TIP3   OH236484   5.339   4.148  15.762 -0.3300  0.1838  0.1473
 4998TIP3    H136485   5.384   4.212  15.818 -0.6295  0.0074  0.5927
 4998TIP3    H236486   5.246   4.170  15.772 -0.3727  0.2984 -0.4639
 4999TIP3   OH236487   2.993   2.411  12.826 -0.1384 -0.5593 -0.0017
 4999TIP3    H136488   3.047   2.460  12.888  1.7978 -1.4066 -0.9701
 4999TIP3    H236489   2.904   2.440  12.844  0.7874  2.1006  0.5279
 5000TIP3   OH236490   2.019   0.838  12.984  0.2078 -0.1751  1.0245
 5000TIP3    H136491   2.053   0.867  12.899 -1.2610  0.1340  0.5240
 5000TIP3    H236492   2.096   0.813  13.033  0.9688 -1.8358 -0.9638
 5001TIP3   OH236493   1.574   2.878   5.506  1.3354 -0.7553  0.0881
 5001TIP3    H136494   1.600   2.950   5.563  1.0664  0.3583 -1.1714
 5001TIP3    H236495   1.603   2.799   5.552  1.8128  0.1612  1.3854
 5002TIP3   OH236496   3.237   3.266  15.501  0.0991 -0.0887  0.1406
 5002TIP3    H136497   3.329   3.246  15.485  0.4774  0.6287  1.3712
 5002TIP3    H236498   3.220   3.232  15.588 -0.6273  0.3755  0.1870
 5003TIP3   OH236499   2.658   5.766  14.929  0.2455 -0.1894  0.1668
 5003TIP3    H136500   2.640   5.757  14.835 -0.7406 -1.5204  0.4803
 5003TIP3    H236501   2.741   5.720  14.942  1.8211  2.3292 -0.5103
 5004TIP3   OH236502   0.185   1.011   3.644 -0.0903  0.1708  0.0844
 5004TIP3    H136503   0.136   0.938   3.682 -0.2780 -0.3750 -1.1715
 5004TIP3    H236504   0.164   1.007   3.550  2.4759 -0.1861 -0.5148
 5005TIP3   OH236505   5.244   5.457  13.407 -0.3662  0.2582  0.1553
 5005TIP3    H136506   5.189   5.400  13.353 -0.4009  0.8703 -0.4537
 5005TIP3    H236507   5.311   5.490  13.347 -0.3734  0.9032  0.5030
 5006TIP3   OH236508   6.626   1.180   5.088 -0.1402  0.2758 -0.8291
 5006TIP3    H136509   6.691   1.250   5.098 -0.0634  0.3267 -1.6139
 5006TIP3    H236510   6.672   1.110   5.042 -0.3188 -0.1480 -0.3619
 5007TIP3   OH236511   3.576   6.200  16.175 -0.0077  1.3541 -0.5687
 5007TIP3    H136512   3.542   6.124  16.127  0.4784  0.9594 -0.3017
 5007TIP3    H236513   3.605   6.260  16.106 -3.3853  2.7443 -0.8623
 5008TIP3   OH236514   6.569   4.142  13.907 -0.0218 -0.1960 -0.3050
 5008TIP3    H136515   6.497   4.196  13.940  0.7393  2.3085 -2.5409
 5008TIP3    H236516   6.642   4.161  13.967 -1.0255 -2.3464  1.6568
 5009TIP3   OH236517   6.128   5.646  16.758 -0.5487  0.2031 -0.5377
 5009TIP3    H136518   6.180   5.576  16.718 -0.8798 -0.5947  0.4030
 5009TIP3    H236519   6.046   5.604  16.783 -1.5818  1.4199 -1.8413
 5010TIP3   OH236520   2.855   0.659  12.335 -0.1030 -0.5882  0.4718
 5010TIP3    H136521   2.944   0.686  12.359  0.5606 -1.1639 -1.2192
 5010TIP3    H236522   2.798   0.706  12.396  1.3475  0.0055  1.3984
 5011TIP3   OH236523   4.485   3.163   0.506  0.1191 -0.3017  0.7168
 5011TIP3    H136524   4.546   3.145   0.435 -2.1066 -1.5403 -0.9119
 5011TIP3    H236525   4.444   3.079   0.525 -1.2208  0.5503  1.6840
 5012TIP3   OH236526   6.669   2.848  12.589  0.2113  0.0471 -0.2649
 5012TIP3    H136527   6.712   2.870  12.672 -0.7214 -2.3030  0.8798
 5012TIP3    H236528   6.591   2.902  12.587  0.1032 -0.0728  0.5198
 5013TIP3   OH236529   5.086   4.737   5.464 -0.0836  0.0763  0.7526
 5013TIP3    H136530   5.097   4.646   5.493 -2.5446 -0.1256  1.1177
 5013TIP3    H236531   5.078   4.787   5.545 -2.3231  0.1255  0.5227
 5014TIP3   OH236532   3.611   4.862   2.130  0.2074  0.0088  0.6284
 5014TIP3    H136533   3.617   4.875   2.036  2.1955 -2.1893  0.4281
 5014TIP3    H236534   3.526   4.901   2.154 -0.3917  0.4378 -2.0622
 5015TIP3   OH236535   1.835   4.946  15.602  0.2977  0.0702 -0.6940
 5015TIP3    H136536   1.857   4.983  15.516  1.4464 -1.3613 -1.0258
 5015TIP3    H236537   1.758   4.892  15.585  0.3221  0.0545 -0.7548
 5016TIP3   OH236538   2.451   4.030  12.915 -0.5584  0.4722  0.3884
 5016TIP3    H136539   2.513   3.964  12.884 -0.0584  1.4413 -0.6873
 5016TIP3    H236540   2.454   4.022  13.011  0.4422 -0.1969  0.3089
 5017TIP3   OH236541   1.939   4.661   0.985  0.4010  0.1867 -0.2733
 5017TIP3    H136542   1.895   4.742   0.959  1.3404  0.2504 -1.7296
 5017TIP3    H236543   1.999   4.688   1.055  0.9042  0.8080 -0.9361
 5018TIP3   OH236544   6.558   4.031  13.359  0.6262 -0.1352  0.5316
 5018TIP3    H136545   6.508   3.970  13.413  2.6000 -1.2840  1.0880
 5018TIP3    H236546   6.574   4.106  13.416 -0.2458  0.1272  0.4308
 5019TIP3   OH236547   4.529   5.519  16.365  0.2610  0.5076 -0.3824
 5019TIP3    H136548   4.601   5.578  16.344  0.9155 -0.4026 -0.6951
 5019TIP3    H236549   4.508   5.537  16.457  2.1170 -0.5235  0.2682
 5020TIP3   OH236550   0.939   1.719   4.657  0.1210 -0.1475  0.1643
 5020TIP3    H136551   1.010   1.665   4.694 -0.3298 -1.0580 -0.2815
 5020TIP3    H236552   0.937   1.695   4.565 -2.0136 -1.5592  0.5416
 5021TIP3   OH236553   6.493   1.761   2.702 -0.2005 -0.0763 -0.0189
 5021TIP3    H136554   6.541   1.787   2.781 -2.4059 -1.8489  2.0083
 5021TIP3    H236555   6.557   1.712   2.650  0.6368 -1.0962  1.9112
 5022TIP3   OH236556   0.527   2.193   0.280 -0.4364 -0.2603  0.1688
 5022TIP3    H136557   0.506   2.152   0.196 -1.9609  0.5176  0.1628
 5022TIP3    H236558   0.501   2.284   0.270  1.0784  0.2734  0.8723
 5023TIP3   OH236559   3.928   2.845   5.644 -0.6101 -0.4331 -0.0068
 5023TIP3    H136560   3.960   2.893   5.721 -1.3942 -1.2438  0.8429
 5023TIP3    H236561   3.991   2.774   5.633  1.0460  1.2678 -1.7989
 5024TIP3   OH236562   1.799   2.675  11.395 -0.3421 -0.6313 -0.1988
 5024TIP3    H136563   1.843   2.641  11.473  0.3142 -2.9957 -1.5557
 5024TIP3    H236564   1.712   2.699  11.426  0.5508  0.3966  1.6775
 5025TIP3   OH236565   3.256   1.506  12.281 -0.2665  0.0279  0.3192
 5025TIP3    H136566   3.239   1.515  12.187 -1.0247  1.1177  0.5599
 5025TIP3    H236567   3.288   1.416  12.290 -1.4229 -0.5153 -0.8028
 5026TIP3   OH236568   1.603   4.034  16.725  0.3172 -0.6617 -0.3518
 5026TIP3    H136569   1.540   4.098  16.694  0.5349 -0.2928 -0.0360
 5026TIP3    H236570   1.552   3.974  16.780  0.2107 -0.4670 -0.2395
 5027TIP3   OH236571   2.702   0.482   0.987 -0.1263 -0.1858 -0.5057
 5027TIP3    H136572   2.686   0.389   0.971 -0.0135 -0.2983  0.0248
 5027TIP3    H236573   2.705   0.490   1.082 -0.9614  0.5029 -0.5230
 5028TIP3   OH236574   4.503   3.625  16.109  0.3916  0.4286  0.0425
 5028TIP3    H136575   4.541   3.663  16.030  3.5964  0.8297  1.6660
 5028TIP3    H236576   4.453   3.550  16.079 -0.1000  1.7601 -2.5421
 5029TIP3   OH236577   0.653   5.964  15.418  0.3020 -0.0367 -0.6140
 5029TIP3    H136578   0.708   5.905  15.469 -0.1841  1.0880  1.2550
 5029TIP3    H236579   0.715   6.018  15.369  0.8299  0.0127  0.0961
 5030TIP3   OH236580   0.813   1.185   4.774 -0.1201 -0.6119  0.4645
 5030TIP3    H136581   0.822   1.216   4.684 -2.8521  1.2904  0.7624
 5030TIP3    H236582   0.793   1.265   4.824  3.4679 -1.2724  3.1514
 5031TIP3   OH236583   1.377   0.047  13.262 -0.1604  0.8874  0.6651
 5031TIP3    H136584   1.320   0.091  13.198 -0.6785  0.9780  1.1871
 5031TIP3    H236585   1.393  -0.040  13.224 -2.2695  0.1314  1.4369
 5032TIP3   OH236586   2.130   6.559   3.810  0.7829  0.2366 -0.6898
 5032TIP3    H136587   2.172   6.575   3.895 -0.7143 -2.3741  0.6162
 5032TIP3    H236588   2.037   6.575   3.827  0.1879 -2.4658 -1.1987
 5033TIP3   OH236589   3.674   5.498   4.879  0.0220  0.5419  0.0241
 5033TIP3    H136590   3.671   5.414   4.924 -0.8915 -0.0055 -1.0274
 5033TIP3    H236591   3.649   5.562   4.946  1.2092  0.0388  0.9514
 5034TIP3   OH236592   1.750   5.775   0.637 -0.1991  0.1360 -0.3264
 5034TIP3    H136593   1.784   5.846   0.692  0.2073  1.4991 -2.2916
 5034TIP3    H236594   1.667   5.751   0.678  0.9425 -0.0856  1.8964
 5035TIP3   OH236595   4.245   5.849   2.324 -0.1072  0.7018  0.7157
 5035TIP3    H136596   4.255   5.758   2.351  1.3454  1.0167  1.3342
 5035TIP3    H236597   4.214   5.845   2.233 -1.5122 -0.3877  1.2267
 5036TIP3   OH236598   2.177   1.277  10.693  0.4779 -0.0504  0.3360
 5036TIP3    H136599   2.176   1.213  10.621  1.1778  0.2383  0.0618
 5036TIP3    H236600   2.243   1.242  10.754 -1.0498 -0.9813  1.4774
 5037TIP3   OH236601   0.322   4.057  14.402  0.3310  0.0724 -0.1677
 5037TIP3    H136602   0.368   4.004  14.337 -0.3122  0.2092 -0.7418
 5037TIP3    H236603   0.244   4.006  14.424  0.4459  0.1172  0.3516
 5038TIP3   OH236604   0.797   4.100   1.066 -0.2440 -0.0964  0.6397
 5038TIP3    H136605   0.866   4.137   1.011 -0.0321  1.9365  2.2306
 5038TIP3    H236606   0.725   4.163   1.060 -0.9047 -0.7827  1.2209
 5039TIP3   OH236607   6.339   0.855   4.127  0.6668 -0.4824 -0.4600
 5039TIP3    H136608   6.281   0.843   4.202 -0.0140 -1.4307 -1.1315
 5039TIP3    H236609   6.372   0.945   4.137 -1.6041  0.4095 -0.5595
 5040TIP3   OH236610   3.648   6.470  16.586  0.2382 -0.6373  0.3892
 5040TIP3    H136611   3.599   6.422  16.652 -0.5334  3.4944  2.9373
 5040TIP3    H236612   3.601   6.552  16.575  1.8811 -0.0711 -3.3884
 5041TIP3   OH236613   2.263   0.096   1.489 -0.5691  0.7298 -0.7346
 5041TIP3    H136614   2.278   0.013   1.443  0.5335 -0.6491  2.0158
 5041TIP3    H236615   2.168   0.101   1.498 -0.6157 -0.4317 -0.5457
 5042TIP3   OH236616   5.899   1.813  13.872  0.4795  0.2072 -1.5054
 5042TIP3    H136617   5.891   1.905  13.897  1.0902  0.6262 -2.8433
 5042TIP3    H236618   5.987   1.804  13.837  0.6293 -1.0268 -0.8771
 5043TIP3   OH236619   6.192   1.881   2.273 -0.2842 -0.2070  0.4753
 5043TIP3    H136620   6.272   1.833   2.293  0.1514 -0.3037 -1.3890
 5043TIP3    H236621   6.202   1.965   2.318  2.1455  0.8845 -1.9094
 5044TIP3   OH236622   2.574   6.711  11.949 -0.5218 -0.1846  0.3566
 5044TIP3    H136623   2.669   6.719  11.945 -0.4472 -1.1351  0.2521
 5044TIP3    H236624   2.549   6.664  11.870 -1.0212 -0.4755  0.6797
 5045TIP3   OH236625   0.121   6.344   4.357  0.8207  0.4256  0.2303
 5045TIP3    H136626   0.082   6.318   4.440  2.1666 -0.3885  0.6063
 5045TIP3    H236627   0.046   6.353   4.298 -0.2595  2.2249  1.8319
 5046TIP3   OH236628   6.420   2.831  11.627 -0.0694 -0.1877  0.5364
 5046TIP3    H136629   6.491   2.768  11.617  1.6993  1.9848 -1.2722
 5046TIP3    H236630   6.376   2.832  11.542 -0.2503  0.7797  0.6324
 5047TIP3   OH236631   3.459   6.474  13.321  0.4081  0.1667  0.0123
 5047TIP3    H136632   3.544   6.517  13.312  0.6901 -0.4157 -0.1134
 5047TIP3    H236633   3.395   6.542  13.298  0.9107  0.0983 -1.6270
 5048TIP3   OH236634   1.355   3.948   1.710 -0.4141  0.5057  0.5365
 5048TIP3    H136635   1.313   4.022   1.666 -0.3007  1.4758  1.9916
 5048TIP3    H236636   1.436   3.933   1.661 -0.7019  0.9927 -0.0947
 5049TIP3   OH236637   5.930   0.850  14.113  0.6262 -0.3454  0.6129
 5049TIP3    H136638   5.873   0.836  14.189 -1.2424 -0.2857 -0.7482
 5049TIP3    H236639   5.930   0.944  14.100  1.2590 -0.3204  0.7469
 5050TIP3   OH236640   4.924   4.549   3.400  1.0777  0.0200  0.0833
 5050TIP3    H136641   4.834   4.518   3.392  1.5875 -1.6290  0.4713
 5050TIP3    H236642   4.956   4.554   3.310  0.8611 -0.2189 -0.0086
 5051TIP3   OH236643   5.927   2.484  17.199 -0.2369 -0.3903  0.3144
 5051TIP3    H136644   5.999   2.547  17.205  0.4814 -1.2791  1.3177
 5051TIP3    H236645   5.964   2.411  17.149 -1.2721  0.2417 -1.4190
 5052TIP3   OH236646   0.184   0.117   4.182 -0.1633 -0.0991 -0.2775
 5052TIP3    H136647   0.255   0.140   4.242 -0.8645 -0.0300  0.5181
 5052TIP3    H236648   0.139   0.044   4.224  0.2478 -1.0292 -1.4137
 5053TIP3   OH236649   4.345   3.116  11.195  0.1129 -0.0715  0.3589
 5053TIP3    H136650   4.430   3.141  11.233  0.1155  0.1519  0.2093
 5053TIP3    H236651   4.367   3.064  11.119  0.1630  1.8291 -0.9641
 5054TIP3   OH236652   5.962   4.438   3.813 -0.2878  0.2030 -0.5703
 5054TIP3    H136653   5.874   4.472   3.833  0.3342  1.0581  0.7172
 5054TIP3    H236654   6.019   4.480   3.876  1.0399 -0.5097 -1.2842
 5055TIP3   OH236655   3.915   1.517  13.637  0.0070 -0.0298  0.1268
 5055TIP3    H136656   3.958   1.559  13.563  2.4348 -0.1568  1.3991
 5055TIP3    H236657   3.851   1.580  13.668  2.0016  1.8441  0.5777
 5056TIP3   OH236658   1.793   4.045   4.969  0.1054 -0.0722  0.0248
 5056TIP3    H136659   1.742   4.124   4.949  0.4192  0.5271  1.5413
 5056TIP3    H236660   1.744   3.974   4.927 -0.0321  0.9485 -1.5937
 5057TIP3   OH236661   5.429   3.539   2.617 -0.1001 -0.0454  0.0903
 5057TIP3    H136662   5.476   3.573   2.694 -1.9973 -0.0116  1.2570
 5057TIP3    H236663   5.348   3.590   2.614 -0.9029 -1.3515 -0.8163
 5058TIP3   OH236664   3.197   1.894   3.025 -0.5190 -0.2558  0.4804
 5058TIP3    H136665   3.253   1.953   3.074 -0.8076  1.5081 -1.2478
 5058TIP3    H236666   3.109   1.930   3.037 -0.5870  0.2278 -1.3268
 5059TIP3   OH236667   5.504   6.725  14.391  0.1152 -0.2046 -0.2219
 5059TIP3    H136668   5.463   6.792  14.446  1.6891  0.8906 -0.3360
 5059TIP3    H236669   5.432   6.688  14.341 -0.9287  0.7586  0.5255
 5060TIP3   OH236670   5.993   1.623  10.259  0.1103  0.5620  0.2406
 5060TIP3    H136671   5.931   1.664  10.318 -0.4277  0.5677 -0.3247
 5060TIP3    H236672   5.964   1.650  10.172  1.1151  0.8696 -0.0061
 5061TIP3   OH236673   1.281   1.110   2.987  0.1995  0.1554 -0.2649
 5061TIP3    H136674   1.312   1.040   2.930  1.1915  0.6357 -0.3174
 5061TIP3    H236675   1.214   1.067   3.042  1.4991 -1.1039  0.3921
 5062TIP3   OH236676   2.486   3.220  16.062 -0.6081 -0.7644  0.4037
 5062TIP3    H136677   2.437   3.152  16.017 -1.0439  1.4681 -2.6918
 5062TIP3    H236678   2.423   3.292  16.073  0.9477  0.7748 -0.3683
 5063TIP3   OH236679   5.437   4.667   0.242  0.0587 -0.9450 -0.0014
 5063TIP3    H136680   5.448   4.636   0.332  0.9182 -1.3790 -0.2534
 5063TIP3    H236681   5.487   4.605   0.189  0.9944  0.3079 -0.6073
 5064TIP3   OH236682   3.126   1.816   4.008  0.2007  0.2603  0.2358
 5064TIP3    H136683   3.221   1.803   4.005  0.3343  0.9423  1.1688
 5064TIP3    H236684   3.114   1.891   4.066 -0.8875  0.5028 -0.2901
 5065TIP3   OH236685   2.037   5.726   1.134 -0.3446  0.0490 -0.6390
 5065TIP3    H136686   1.949   5.757   1.112 -0.2345  0.5653 -0.3736
 5065TIP3    H236687   2.081   5.715   1.050 -0.2150  1.1371 -0.7273
 5066TIP3   OH236688   1.404   3.732  12.714  0.1574  0.1318 -0.4673
 5066TIP3    H136689   1.483   3.679  12.722 -1.0386 -1.6837 -0.3599
 5066TIP3    H236690   1.332   3.671  12.730 -1.4016  1.0661 -3.3778
 5067TIP3   OH236691   6.493   4.969   3.844 -0.5414 -0.0160  0.3470
 5067TIP3    H136692   6.586   4.968   3.865 -0.3348  2.0048 -0.3732
 5067TIP3    H236693   6.487   5.020   3.763 -1.7959 -3.8813 -2.1753
 5068TIP3   OH236694   5.126   5.784  11.967 -0.3980 -0.0349 -0.2775
 5068TIP3    H136695   5.086   5.809  11.884 -2.0113  0.7100  0.6853
 5068TIP3    H236696   5.220   5.783  11.950 -0.7314 -0.2604 -2.1975
 5069TIP3   OH236697   3.371   6.487  12.766  0.3581  0.1309 -0.2776
 5069TIP3    H136698   3.424   6.542  12.709  0.8324  0.5190  0.5281
 5069TIP3    H236699   3.429   6.415  12.792  0.2296  0.1070 -0.0560
 5070TIP3   OH236700   1.800   2.729  15.469  0.3510 -0.2592  0.3496
 5070TIP3    H136701   1.790   2.740  15.374 -0.1818 -3.8029 -0.0950
 5070TIP3    H236702   1.765   2.809  15.507 -1.8093  0.1500 -2.3859
 5071TIP3   OH236703   0.310   5.818  12.232  0.5240 -0.2226  0.1786
 5071TIP3    H136704   0.352   5.889  12.183  0.9967 -0.7211 -0.1461
 5071TIP3    H236705   0.237   5.790  12.177  0.7207 -0.4110  0.0106
 5072TIP3   OH236706   6.581   5.100   2.083 -1.0060 -0.3412  0.2014
 5072TIP3    H136707   6.523   5.024   2.087 -0.1512 -0.9820  0.4784
 5072TIP3    H236708   6.635   5.094   2.161  0.2417 -0.4059 -0.6562
 5073TIP3   OH236709   1.922   4.827  12.486  0.1428  0.3322  0.1469
 5073TIP3    H136710   1.874   4.790  12.560 -0.7667  1.4067  0.1104
 5073TIP3    H236711   1.997   4.768  12.474 -0.4748 -0.6500  1.0076
 5074TIP3   OH236712   2.175   1.853  15.833  0.2971  0.8228  0.5953
 5074TIP3    H136713   2.253   1.799  15.836  0.6217  1.2133 -0.4141
 5074TIP3    H236714   2.207   1.940  15.810 -0.4119  1.0065  0.2704
 5075TIP3   OH236715   1.273   1.173  15.615  0.1774  0.1862 -0.4083
 5075TIP3    H136716   1.221   1.173  15.535 -1.1037 -1.3875  0.3934
 5075TIP3    H236717   1.267   1.263  15.648 -1.1813  0.2802 -0.8811
 5076TIP3   OH236718   5.386   0.240  12.705 -0.1540  0.4563 -0.2263
 5076TIP3    H136719   5.391   0.146  12.724 -1.3257  0.4489  0.0666
 5076TIP3    H236720   5.400   0.282  12.790  1.5317  0.5884 -0.5453
 5077TIP3   OH236721   4.686   3.712   1.091  0.2974 -0.3629 -0.6600
 5077TIP3    H136722   4.750   3.686   1.158 -1.1545 -1.1883  0.4206
 5077TIP3    H236723   4.708   3.804   1.072  2.3513 -0.8888 -0.9577
 5078TIP3   OH236724   4.146   0.986   4.839  0.0859  0.6333 -0.1262
 5078TIP3    H136725   4.095   0.987   4.758 -0.5058  0.9344  0.2472
 5078TIP3    H236726   4.236   0.974   4.810 -0.4622 -2.6146 -0.6633
 5079TIP3   OH236727   3.975   0.944  15.267  1.0131  0.2577 -0.2226
 5079TIP3    H136728   4.025   0.891  15.330  0.2199 -1.7272 -1.2310
 5079TIP3    H236729   3.990   0.902  15.183  0.0299  1.4233 -0.9950
 5080TIP3   OH236730   6.280   1.489   4.860 -0.4683  0.5142 -0.0702
 5080TIP3    H136731   6.319   1.569   4.894  0.9315 -0.3683  0.4683
 5080TIP3    H236732   6.199   1.517   4.818  0.2797  2.2709 -0.3761
 5081TIP3   OH236733   0.627   5.562   4.153 -0.1993  0.6607  0.4629
 5081TIP3    H136734   0.721   5.561   4.136 -0.0273  1.9897  1.2618
 5081TIP3    H236735   0.604   5.471   4.171  0.6713  0.1146 -1.0794
 5082TIP3   OH236736   2.951   1.986  15.605  0.2945  0.0972  0.7308
 5082TIP3    H136737   3.030   1.931  15.606  0.8286  0.8728  2.1634
 5082TIP3    H236738   2.899   1.955  15.679  0.4484  1.3034  1.3460
 5083TIP3   OH236739   1.104   5.396   3.254  0.1653  0.0231 -0.0544
 5083TIP3    H136740   1.088   5.316   3.203 -1.8396  0.8124 -0.7470
 5083TIP3    H236741   1.057   5.382   3.336  1.2692 -0.2087  0.5441
 5084TIP3   OH236742   5.348   3.357  15.513 -0.3121  0.2137 -0.2416
 5084TIP3    H136743   5.404   3.434  15.516  1.8116 -1.2244 -1.3498
 5084TIP3    H236744   5.317   3.353  15.422  2.6766 -2.2508 -1.2791
 5085TIP3   OH236745   6.697   5.750  15.376  0.2384 -0.6531  0.5661
 5085TIP3    H136746   6.762   5.794  15.431 -1.2139  0.6512  1.2468
 5085TIP3    H236747   6.750   5.695  15.317  1.9101 -0.4252  1.8029
 5086TIP3   OH236748   0.034   3.624  14.711 -0.1226  0.5043 -0.0494
 5086TIP3    H136749   0.029   3.614  14.616 -3.3917  0.1087  0.1091
 5086TIP3    H236750  -0.015   3.549  14.745  1.7833  0.1269  2.0027
 5087TIP3   OH236751   1.525   0.778  16.301 -0.3701  0.1854  0.3415
 5087TIP3    H136752   1.466   0.768  16.226 -0.0892 -3.3891  0.5520
 5087TIP3    H236753   1.607   0.739  16.272  0.6155  1.3010  1.5679
 5088TIP3   OH236754   2.624   2.894  14.300  0.1478  0.1867  0.3330
 5088TIP3    H136755   2.641   2.884  14.206  1.4174 -0.0828  0.5744
 5088TIP3    H236756   2.556   2.961  14.306 -0.8375 -0.7080 -0.8348
 5089TIP3   OH236757   4.906   5.924   6.325 -0.1209  0.4164 -0.1328
 5089TIP3    H136758   4.810   5.917   6.328 -0.1965  0.5947 -1.5316
 5089TIP3    H236759   4.927   5.998   6.381 -0.7810  0.1772  0.4347
 5090TIP3   OH236760   6.707   0.358  10.539 -0.1925 -0.0627 -0.3943
 5090TIP3    H136761   6.645   0.296  10.500 -0.9175  1.1785 -1.2375
 5090TIP3    H236762   6.693   0.440  10.491  1.4164  0.5065  0.0719
 5091TIP3   OH236763   1.622   2.872   0.789 -0.5737  0.0248 -0.4192
 5091TIP3    H136764   1.636   2.955   0.835 -2.4195  0.6729 -0.9672
 5091TIP3    H236765   1.655   2.805   0.849  0.8950  1.1493  0.0421
 5092TIP3   OH236766   4.416   4.712  14.675 -0.4237  0.1831  0.6080
 5092TIP3    H136767   4.376   4.781  14.622  3.0297  0.7272 -1.4939
 5092TIP3    H236768   4.379   4.631  14.641 -0.0889  0.6848 -0.9988
 5093TIP3   OH236769   2.279   6.685  17.005  0.2816 -0.0231  1.0556
 5093TIP3    H136770   2.308   6.776  17.016  0.2100  0.3195 -1.3034
 5093TIP3    H236771   2.199   6.679  17.057 -0.3998  1.6478  0.2483
 5094TIP3   OH236772   3.089   0.039   3.382  0.6417 -0.2638  0.4918
 5094TIP3    H136773   3.090  -0.009   3.465  1.6688 -1.9372 -0.4719
 5094TIP3    H236774   3.139   0.118   3.400  3.2597 -1.9352  0.7224
 5095TIP3   OH236775   6.752   2.123   3.845  0.0162  0.1645 -0.1209
 5095TIP3    H136776   6.729   2.201   3.895  1.4672 -0.8965  2.3399
 5095TIP3    H236777   6.846   2.133   3.827  0.2047 -0.9730  0.1826
 5096TIP3   OH236778   5.190   5.957   5.039 -0.0265  0.8565  0.3607
 5096TIP3    H136779   5.143   5.926   4.962  0.6590  0.8024 -0.0394
 5096TIP3    H236780   5.278   5.980   5.006  0.0399  1.5154  0.9799
 5097TIP3   OH236781   2.688   1.326  14.038 -0.0920 -0.1884  0.7380
 5097TIP3    H136782   2.768   1.368  14.007  0.2172 -0.2714  1.4232
 5097TIP3    H236783   2.634   1.317  13.959 -0.1553  1.4620  0.5767
 5098TIP3   OH236784   2.520   1.071   2.743 -0.1362  0.1500 -0.6016
 5098TIP3    H136785   2.518   1.166   2.735 -1.4939  0.3082  1.4473
 5098TIP3    H236786   2.577   1.054   2.818 -3.0596 -0.4457  1.5596
 5099TIP3   OH236787   1.100   4.038  16.665 -0.3696  0.1104 -0.1248
 5099TIP3    H136788   1.039   4.065  16.596  0.5428 -0.4786 -1.1521
 5099TIP3    H236789   1.073   3.949  16.687  0.3739 -0.2989 -0.8641
 5100TIP3   OH236790   3.333   5.683   1.958 -0.1397  0.9841  0.3604
 5100TIP3    H136791   3.400   5.667   2.025 -0.4354  3.7531  1.3732
 5100TIP3    H236792   3.327   5.778   1.953 -0.0967  0.8450 -3.6563
 5101TIP3   OH236793   1.432   5.217   3.533  0.5241 -0.5427 -0.4382
 5101TIP3    H136794   1.501   5.151   3.538 -1.0099 -2.0603  2.2384
 5101TIP3    H236795   1.466   5.292   3.581  0.9235 -0.7032 -0.4717
 5102TIP3   OH236796   6.517   5.704   5.826  0.2856 -0.5760 -0.0528
 5102TIP3    H136797   6.474   5.786   5.851  2.2159  0.5155 -0.2234
 5102TIP3    H236798   6.539   5.662   5.909  1.4027  0.2253  0.0705
 5103TIP3   OH236799   1.745   4.855   4.913  0.0927 -0.3826  0.1625
 5103TIP3    H136800   1.822   4.809   4.879  0.8143 -0.1438  1.4267
 5103TIP3    H236801   1.693   4.876   4.836  1.6040 -0.0111 -0.7668
 5104TIP3   OH236802   3.053   0.701   5.386  0.6839 -0.1684 -0.1600
 5104TIP3    H136803   3.076   0.756   5.312  0.2643  1.6529  1.0230
 5104TIP3    H236804   3.102   0.738   5.460  0.5677 -1.5229  0.6182
 5105TIP3   OH236805   2.558   4.514  16.902 -0.0238  0.3346 -0.4406
 5105TIP3    H136806   2.650   4.508  16.926  0.4078  0.2516 -2.0588
 5105TIP3    H236807   2.516   4.441  16.948  0.5968  0.7426  0.7828
 5106TIP3   OH236808   0.142   5.666  17.063  0.2720 -0.4786 -0.0577
 5106TIP3    H136809   0.156   5.642  17.154 -0.5665 -2.5142 -0.4532
 5106TIP3    H236810   0.048   5.680  17.056  0.5740  1.6830 -0.1612
 5107TIP3   OH236811   2.898   1.320   1.874  0.2048 -0.1659  0.1035
 5107TIP3    H136812   2.866   1.390   1.930  0.0280 -0.3662  0.2566
 5107TIP3    H236813   2.823   1.261   1.864  0.3684 -0.3637  0.0284
 5108TIP3   OH236814   3.048   3.957   5.332  0.8232  0.2515 -0.0463
 5108TIP3    H136815   3.102   4.001   5.266 -0.1900  0.2051 -0.9313
 5108TIP3    H236816   3.097   3.877   5.353 -0.2909 -1.3256 -3.0738
 5109TIP3   OH236817   3.721   2.229   4.899 -0.1088  0.0696 -0.5332
 5109TIP3    H136818   3.751   2.152   4.852  1.3054  0.5402 -0.4106
 5109TIP3    H236819   3.755   2.219   4.988  1.4545  1.6107 -0.9436
 5110TIP3   OH236820   3.231   6.352   0.899 -0.4053 -0.0090  0.0370
 5110TIP3    H136821   3.269   6.331   0.814  0.7580 -2.2147  1.0765
 5110TIP3    H236822   3.218   6.447   0.896  1.2188  0.1915 -1.9384
 5111TIP3   OH236823   5.119   6.553   2.119  0.0399  0.6340  0.1343
 5111TIP3    H136824   5.088   6.634   2.160  0.3153  0.7424  0.1280
 5111TIP3    H236825   5.040   6.512   2.085 -0.1838  0.5737  0.7254
 5112TIP3   OH236826   2.820   3.144   2.520  0.4208 -0.3215  0.2292
 5112TIP3    H136827   2.807   3.064   2.468 -1.9529 -0.6104  1.2492
 5112TIP3    H236828   2.762   3.208   2.480 -0.4913 -0.1908  1.7158
 5113TIP3   OH236829   4.277   4.648  16.835 -0.0207 -0.2332  0.0755
 5113TIP3    H136830   4.210   4.602  16.885  1.3298  0.3974  2.5338
 5113TIP3    H236831   4.347   4.583  16.823  0.7563  0.3649  1.2665
 5114TIP3   OH236832   1.620   6.012  13.743  0.2803 -0.0149  0.4595
 5114TIP3    H136833   1.628   5.978  13.654 -0.8345  2.0589 -0.4926
 5114TIP3    H236834   1.641   6.106  13.734 -0.6053  0.3720  2.2439
 5115TIP3   OH236835   3.392   0.048   1.286  0.0937 -0.0407 -0.2294
 5115TIP3    H136836   3.479   0.071   1.253 -0.2066  1.1411 -0.2174
 5115TIP3    H236837   3.409   0.001   1.368  0.7262  0.2005 -0.2221
 5116TIP3   OH236838   1.196   1.292  16.227 -0.7392  0.4104  0.5938
 5116TIP3    H136839   1.275   1.299  16.173 -0.8925 -0.4351  0.2563
 5116TIP3    H236840   1.149   1.374  16.211 -0.3849  0.5161  0.0726
 5117TIP3   OH236841   0.852   0.555  14.561  0.0835 -0.0595 -0.5447
 5117TIP3    H136842   0.938   0.551  14.519  0.1558  1.2882 -0.5704
 5117TIP3    H236843   0.857   0.495  14.635  1.8703  1.7687  0.8745
 5118TIP3   OH236844   1.929   5.745  16.990 -0.3646 -0.5543  0.5927
 5118TIP3    H136845   1.875   5.712  16.919  1.4411 -1.1150 -0.5610
 5118TIP3    H236846   1.974   5.667  17.025 -1.1534 -0.2784  2.2999
 5119TIP3   OH236847   3.196   4.479  15.270 -0.3188  0.2589 -0.7746
 5119TIP3    H136848   3.286   4.467  15.240  0.0009 -0.0522  0.3104
 5119TIP3    H236849   3.143   4.431  15.206  0.3433 -0.2593 -0.9338
 5120TIP3   OH236850   1.699   0.120   3.667 -0.1517 -0.3264  0.2974
 5120TIP3    H136851   1.757   0.123   3.591  0.7257  1.2432  1.0080
 5120TIP3    H236852   1.621   0.168   3.639  0.4328  0.8144  0.5800
 5121TIP3   OH236853   4.218   3.228   4.545 -0.6143  0.4984 -0.5102
 5121TIP3    H136854   4.265   3.213   4.627 -0.8490  1.0014 -0.2761
 5121TIP3    H236855   4.269   3.295   4.500 -0.5341  0.2877 -0.7271
 5122TIP3   OH236856   4.545   6.589  13.187  0.1536  0.9433  0.4630
 5122TIP3    H136857   4.573   6.534  13.113 -0.9914  1.9001 -0.7155
 5122TIP3    H236858   4.507   6.527  13.249  1.1895  0.1133  0.2890
 5123TIP3   OH236859   3.937   0.484   3.222 -0.1539 -0.1383  0.2277
 5123TIP3    H136860   3.881   0.479   3.144  1.2331 -0.6904 -0.7446
 5123TIP3    H236861   3.990   0.563   3.209  0.5258 -0.5791  0.3098
 5124TIP3   OH236862   5.221   0.724  15.525 -0.3466 -0.5085 -0.1139
 5124TIP3    H136863   5.235   0.715  15.619  0.3578 -0.5277 -0.2182
 5124TIP3    H236864   5.157   0.794  15.517  0.7496  0.5679  0.3163
 5125TIP3   OH236865   4.224   2.569   0.737 -0.0844 -0.2723 -0.4769
 5125TIP3    H136866   4.178   2.486   0.748 -0.6671  0.3107  1.8005
 5125TIP3    H236867   4.298   2.548   0.680 -1.9238 -1.6826 -2.4131
 5126TIP3   OH236868   1.043   0.433   5.030 -0.2963  0.2151  0.2758
 5126TIP3    H136869   1.029   0.350   4.985  2.2373 -0.3222  0.3986
 5126TIP3    H236870   1.073   0.492   4.961  1.9630 -0.1488  0.9138
 5127TIP3   OH236871   0.470   1.963  14.430 -0.0385 -0.3921  0.0004
 5127TIP3    H136872   0.429   2.016  14.498 -0.2595 -0.3683 -0.1500
 5127TIP3    H236873   0.465   2.019  14.352 -3.5378 -2.0322 -1.0502
 5128TIP3   OH236874   0.021   2.690  17.140 -0.5138  0.0809 -0.2898
 5128TIP3    H136875   0.062   2.604  17.154 -0.0047  0.6367  1.8101
 5128TIP3    H236876  -0.028   2.706  17.221 -1.8275  1.1207 -1.2680
 5129TIP3   OH236877   6.352   2.873   3.732  0.4923  0.3866 -0.7345
 5129TIP3    H136878   6.415   2.892   3.802 -0.1280 -1.8556  0.4670
 5129TIP3    H236879   6.278   2.931   3.750 -0.0243 -0.7880  0.9766
 5130TIP3   OH236880   6.094   1.959  14.035 -0.0433  0.0041 -1.1730
 5130TIP3    H136881   6.112   1.949  13.941 -0.8749  0.1815 -1.3559
 5130TIP3    H236882   6.083   2.053  14.047  0.6063  0.0347 -0.7923
 5131TIP3   OH236883   5.317   1.514  15.730 -0.0499  0.2087  1.1447
 5131TIP3    H136884   5.331   1.580  15.662 -0.7097 -0.0031  0.8000
 5131TIP3    H236885   5.366   1.438  15.701  1.2037  0.7348  1.8368
 5132TIP3   OH236886   5.168   1.441   5.701  0.2479  0.3757  0.2337
 5132TIP3    H136887   5.140   1.462   5.790 -0.1639 -0.4318  0.3070
 5132TIP3    H236888   5.232   1.371   5.712  2.0276  1.9602  0.0333
 5133TIP3   OH236889   2.149   4.447   5.729  0.5033 -0.2797  0.4613
 5133TIP3    H136890   2.085   4.519   5.738  0.6041 -0.2907  1.2907
 5133TIP3    H236891   2.124   4.385   5.797  2.5631  0.5988  2.0445
 5134TIP3   OH236892   4.484   4.317   2.762  0.1563  0.1182 -0.4145
 5134TIP3    H136893   4.455   4.254   2.828 -2.2796  0.5527 -1.0051
 5134TIP3    H236894   4.475   4.402   2.804 -2.6663  0.4959 -1.6756
 5135TIP3   OH236895   1.234   5.492  14.262  0.0889  0.7968  0.2923
 5135TIP3    H136896   1.288   5.521  14.188 -0.7535 -0.7408 -0.9481
 5135TIP3    H236897   1.150   5.534  14.248  0.2604  1.3871  0.9988
 5136TIP3   OH236898   1.029   1.002  11.891  0.2806 -0.0551 -0.0673
 5136TIP3    H136899   1.072   0.916  11.890  0.9288  0.2641 -1.9206
 5136TIP3    H236900   1.030   1.028  11.983  0.4239 -1.8499  0.4686
 5137TIP3   OH236901   6.283   0.855   4.654  0.2830  0.3154 -0.5894
 5137TIP3    H136902   6.286   0.786   4.721 -0.3953  1.3023  0.4912
 5137TIP3    H236903   6.361   0.908   4.671 -0.9164  1.6998  0.6877
 5138TIP3   OH236904   6.582   0.969  16.127  0.1261 -0.4611 -0.9851
 5138TIP3    H136905   6.534   1.004  16.203  0.1012 -1.1093 -0.6916
 5138TIP3    H236906   6.654   1.031  16.113 -0.3378  0.0914 -0.9319
 5139TIP3   OH236907   4.626   5.180  15.525  0.2981 -0.2199  0.1621
 5139TIP3    H136908   4.610   5.200  15.617  0.0661 -2.9168  0.7729
 5139TIP3    H236909   4.606   5.261  15.478 -0.2874  0.9678  2.4124
 5140TIP3   OH236910   4.599   5.520   6.213  0.2025  0.3984 -0.4835
 5140TIP3    H136911   4.558   5.433   6.209 -1.9754  1.3030  1.1882
 5140TIP3    H236912   4.681   5.505   6.260 -0.4776 -0.6457  0.3909
 5141TIP3   OH236913   1.495   6.306   4.381  0.1784 -0.3687 -0.3722
 5141TIP3    H136914   1.543   6.364   4.322 -0.7598  1.8270  0.9642
 5141TIP3    H236915   1.554   6.231   4.394  2.4287  1.3736 -0.2820
 5142TIP3   OH236916   3.977   5.023   3.959  0.5729  0.4086 -0.0132
 5142TIP3    H136917   3.882   5.031   3.959  0.4966 -0.1703  1.6904
 5142TIP3    H236918   4.003   5.033   3.867 -1.2061 -0.4026 -0.6122
 5143TIP3   OH236919   3.418   6.211  11.086  0.1510  0.1174  0.1300
 5143TIP3    H136920   3.465   6.217  11.003  0.0954  0.5499  0.1279
 5143TIP3    H236921   3.332   6.177  11.062 -0.3285  1.5238 -0.1647
 5144TIP3   OH236922   6.190   3.738  12.302 -0.1331  0.3630 -0.0881
 5144TIP3    H136923   6.264   3.786  12.341 -0.1122  1.2772 -1.2351
 5144TIP3    H236924   6.149   3.693  12.377  0.9253  0.7114  0.7250
 5145TIP3   OH236925   4.616   1.701  11.535 -0.5474  0.6757  0.1523
 5145TIP3    H136926   4.564   1.750  11.471  1.8495  3.0328 -0.1113
 5145TIP3    H236927   4.669   1.642  11.481 -0.3235  0.8897  0.1369
 5146TIP3   OH236928   4.018   6.353  13.604  0.1523 -0.2336  0.3203
 5146TIP3    H136929   4.064   6.286  13.654 -0.7548 -0.3666  0.9973
 5146TIP3    H236930   4.087   6.410  13.569  0.8332 -0.5647  1.1195
 5147TIP3   OH236931   4.811   3.874  13.075  0.1524 -0.4424 -0.2187
 5147TIP3    H136932   4.892   3.884  13.025  0.3673  1.2672  0.4470
 5147TIP3    H236933   4.741   3.896  13.013  0.2567 -0.8262 -0.4756
 5148TIP3   OH236934   4.760   0.130  13.479 -0.6052 -0.0169  0.3783
 5148TIP3    H136935   4.788   0.113  13.389  0.1142 -1.9893  0.9469
 5148TIP3    H236936   4.675   0.088  13.487 -0.5676 -0.0357  0.6901
 5149TIP3   OH236937   3.628   4.532  12.716  0.4660 -0.3472  0.2325
 5149TIP3    H136938   3.605   4.566  12.629  0.8483 -1.8871 -0.4842
 5149TIP3    H236939   3.566   4.461  12.732  1.5137 -1.2416  0.4356
 5150TIP3   OH236940   2.408   3.007  15.889  0.0356  0.2016  0.4927
 5150TIP3    H136941   2.346   2.953  15.938  2.5260 -1.5796  1.7477
 5150TIP3    H236942   2.379   2.999  15.798 -3.1649  1.5870  1.3224
 5151TIP3   OH236943   4.871   4.735   1.105  0.0271 -0.0794  0.4199
 5151TIP3    H136944   4.932   4.786   1.052  1.8701 -3.1856 -0.5914
 5151TIP3    H236945   4.889   4.761   1.195  0.9249  1.0585 -0.0835
 5152TIP3   OH236946   6.101   5.082  11.527  0.3938  1.1054 -0.0601
 5152TIP3    H136947   6.037   5.014  11.548 -0.2837  1.6670 -0.2860
 5152TIP3    H236948   6.055   5.140  11.467  2.4260 -0.6659 -3.4574
 5153TIP3   OH236949   6.649   3.530   3.736  0.6892  0.4904 -0.0370
 5153TIP3    H136950   6.741   3.551   3.720  0.3464  2.1575  0.1010
 5153TIP3    H236951   6.613   3.514   3.649  1.0076  0.2635 -0.1284
 5154TIP3   OH236952   5.692   1.834   5.140 -0.1075 -0.0110  0.5767
 5154TIP3    H136953   5.726   1.923   5.133 -1.6434  0.5453 -0.0645
 5154TIP3    H236954   5.688   1.803   5.049 -2.8782  0.5534  0.4805
 5155TIP3   OH236955   1.378   5.458  16.755  0.1305 -0.2685 -0.2458
 5155TIP3    H136956   1.366   5.526  16.821 -0.1777 -0.2391 -0.3309
 5155TIP3    H236957   1.323   5.385  16.786  1.9680 -1.2184  0.8721
 5156TIP3   OH236958   6.695   0.197  15.687 -0.2389 -0.0761 -0.3557
 5156TIP3    H136959   6.707   0.185  15.781 -1.5987  0.8612 -0.0495
 5156TIP3    H236960   6.700   0.108  15.651  0.1581 -0.4564  0.6143
 5157TIP3   OH236961   2.921   6.682  12.067  0.9375 -0.0730  0.1371
 5157TIP3    H136962   2.971   6.601  12.053  1.3254  0.5229 -2.0944
 5157TIP3    H236963   2.852   6.658  12.128  1.6763 -1.8360  0.2953
 5158TIP3   OH236964   0.787   6.816   3.807 -0.3548  0.4261  0.0501
 5158TIP3    H136965   0.834   6.782   3.730 -1.2168 -0.2891 -0.1637
 5158TIP3    H236966   0.708   6.855   3.770  0.6005  2.6628  0.2906
 5159TIP3   OH236967   0.874   3.068  16.951 -0.0270 -0.0834  0.1317
 5159TIP3    H136968   0.922   3.127  16.892  0.2517 -0.0726  0.3662
 5159TIP3    H236969   0.908   2.981  16.930  0.5456 -0.0117  0.7164
 5160TIP3   OH236970   6.704   5.380   3.637 -0.1830  0.1041 -0.1003
 5160TIP3    H136971   6.696   5.300   3.587 -0.5750  0.1170 -0.0640
 5160TIP3    H236972   6.690   5.450   3.573  1.1318  0.1741 -0.3209
 5161TIP3   OH236973   1.693   4.031  16.108 -0.4760  0.0087  0.5898
 5161TIP3    H136974   1.752   4.059  16.178  0.5615  0.1629 -0.3205
 5161TIP3    H236975   1.645   3.957  16.144  1.1735 -0.9074  0.9340
 5162TIP3   OH236976   1.273   6.515  16.127 -0.4085 -0.0683  0.4268
 5162TIP3    H136977   1.217   6.590  16.105 -0.3407  0.3548  1.6535
 5162TIP3    H236978   1.359   6.539  16.093 -0.3299  0.5280  1.0276
 5163TIP3   OH236979   3.709   2.893  13.005 -0.2366  1.0979 -0.2693
 5163TIP3    H136980   3.733   2.967  13.060  1.5484 -0.5152  1.1843
 5163TIP3    H236981   3.700   2.819  13.065 -0.0322 -0.3096 -1.9215
 5164TIP3   OH236982   6.596   6.363  11.417 -0.3808  0.2086 -0.0853
 5164TIP3    H136983   6.571   6.406  11.335 -1.6687  0.7657  0.5902
 5164TIP3    H236984   6.514   6.331  11.453  0.0154  0.9853  1.5582
 5165TIP3   OH236985   6.651   0.722   4.074  0.1569  0.4153  0.7515
 5165TIP3    H136986   6.565   0.757   4.098 -0.5118 -1.0462  0.5712
 5165TIP3    H236987   6.671   0.762   3.989 -0.9777 -0.2766  0.1481
 5166TIP3   OH236988   2.089   3.262  14.385  0.5135  0.3694  0.0507
 5166TIP3    H136989   2.037   3.217  14.452 -1.7311  1.4217 -0.9480
 5166TIP3    H236990   2.044   3.243  14.303  0.6873  2.7233 -0.6222
 5167TIP3   OH236991   1.914   2.754  15.832  0.0800  0.9698  0.0513
 5167TIP3    H136992   1.939   2.714  15.915  1.8456  1.6840 -0.1238
 5167TIP3    H236993   1.940   2.691  15.765 -0.2226  0.9367 -0.0400
 5168TIP3   OH236994   2.518   4.218  16.157 -0.2171 -0.4095 -0.1415
 5168TIP3    H136995   2.612   4.239  16.150  0.0227 -1.2229  0.5676
 5168TIP3    H236996   2.500   4.163  16.081 -0.5120  1.1087 -1.1994
 5169TIP3   OH236997   6.522   3.075   1.480  0.3726  0.0377 -0.1262
 5169TIP3    H136998   6.486   3.079   1.391  0.5706  0.4055 -0.1883
 5169TIP3    H236999   6.617   3.073   1.468  0.5035  2.9380  0.1651
 5170TIP3   OH237000   6.671   6.127   4.874  0.5813  0.5518  0.6721
 5170TIP3    H137001   6.735   6.116   4.803  2.3793  0.7737  2.2262
 5170TIP3    H237002   6.601   6.179   4.835  1.6710  0.8904 -0.8741
 5171TIP3   OH237003   6.813   5.402   0.522 -0.0819  0.3085  0.1627
 5171TIP3    H137004   6.818   5.328   0.583  2.5372 -1.5962 -2.1866
 5171TIP3    H237005   6.903   5.434   0.518 -0.6037  1.6195 -1.2394
 5172TIP3   OH237006   2.330   3.607   6.625  0.3354  0.3890  0.6386
 5172TIP3    H137007   2.373   3.666   6.564  0.5328  1.0031  1.3575
 5172TIP3    H237008   2.396   3.541   6.646  0.2771  0.1958  0.2146
 5173TIP3   OH237009   2.904   5.250   1.950 -0.4937  0.3571  1.3368
 5173TIP3    H137010   2.973   5.186   1.970  3.9422  3.5174 -2.7042
 5173TIP3    H237011   2.927   5.327   2.004 -1.0663  1.3257  0.2195
 5174TIP3   OH237012   0.618   5.012   1.711  0.3204  0.1418  0.0899
 5174TIP3    H137013   0.569   5.094   1.702 -0.4785 -0.6368 -3.3827
 5174TIP3    H237014   0.686   5.017   1.644 -0.1737 -2.2758 -0.6395
 5175TIP3   OH237015   1.220   2.434  10.383  0.1237  0.0405  0.3867
 5175TIP3    H137016   1.285   2.499  10.410  0.0810  0.0115  0.5627
 5175TIP3    H237017   1.188   2.397  10.466 -1.3088  1.2119  0.3678
 5176TIP3   OH237018   3.632   5.095   3.231 -0.4114  0.4841  0.1369
 5176TIP3    H137019   3.712   5.097   3.178 -0.4508  2.1534  0.1248
 5176TIP3    H237020   3.647   5.025   3.294  1.2319  1.0761  0.4089
 5177TIP3   OH237021   5.592   1.052   1.382 -0.7082 -0.4365  0.1892
 5177TIP3    H137022   5.502   1.079   1.400 -1.0483  0.2298 -2.3679
 5177TIP3    H237023   5.634   1.051   1.468 -2.6358  1.1045  1.1919
 5178TIP3   OH237024   5.603   6.382  16.132 -0.4371 -0.1461  0.1441
 5178TIP3    H137025   5.640   6.302  16.169 -0.1413 -0.3628 -0.6059
 5178TIP3    H237026   5.663   6.405  16.061 -1.0964  0.1669 -0.3171
 5179TIP3   OH237027   3.245   2.812   4.595 -0.4943 -0.0937 -0.7862
 5179TIP3    H137028   3.241   2.727   4.639 -0.0307  0.4115  0.2363
 5179TIP3    H237029   3.163   2.818   4.547 -0.5439 -1.1039 -0.8367
 5180TIP3   OH237030   1.725   0.501  14.632  0.2007  0.3482  1.2146
 5180TIP3    H137031   1.701   0.594  14.640 -0.6700  0.2754 -0.4062
 5180TIP3    H237032   1.787   0.486  14.704  1.0301  2.4028  0.9677
 5181TIP3   OH237033   5.432   5.276   4.607 -0.4073 -0.1697 -0.2167
 5181TIP3    H137034   5.433   5.371   4.597 -2.4832 -0.1746 -0.5779
 5181TIP3    H237035   5.519   5.255   4.641  0.7867  1.6361 -2.0131
 5182TIP3   OH237036   2.466   4.129  13.749  0.1870  0.2522  0.6521
 5182TIP3    H137037   2.500   4.096  13.666 -0.7493  0.4836  0.1746
 5182TIP3    H237038   2.504   4.071  13.815 -1.0407 -1.5012 -0.1444
 5183TIP3   OH237039   4.529   0.709   4.066  0.2320 -0.2123  1.5301
 5183TIP3    H137040   4.616   0.745   4.079 -0.0082  0.7323  0.6447
 5183TIP3    H237041   4.513   0.721   3.972 -1.0857  0.1731  1.7972
 5184TIP3   OH237042   6.658   1.878  11.017 -0.2371  0.2322 -0.1637
 5184TIP3    H137043   6.617   1.792  11.030  0.7809 -0.3747 -0.8694
 5184TIP3    H237044   6.601   1.939  11.063 -1.2565 -0.7600 -0.0846
 5185TIP3   OH237045   0.577   2.015  14.799  0.6180  0.3464 -0.0924
 5185TIP3    H137046   0.521   1.966  14.860 -1.7014  0.7468 -1.7970
 5185TIP3    H237047   0.664   1.978  14.810 -0.2875 -1.3630  1.5824
 5186TIP3   OH237048   1.169   1.821  16.482 -0.4833 -0.6028 -0.0730
 5186TIP3    H137049   1.136   1.732  16.483  1.4691 -1.3487  0.7546
 5186TIP3    H237050   1.189   1.840  16.574  0.8200  0.0159 -0.4692
 5187TIP3   OH237051   1.661   0.443  13.887  0.0190 -0.0086 -0.2225
 5187TIP3    H137052   1.734   0.410  13.835  1.2055 -0.9677  1.9587
 5187TIP3    H237053   1.631   0.367  13.937  0.6916  1.4416  2.4875
 5188TIP3   OH237054   5.297   3.921  11.433 -0.1734  0.4343  0.2153
 5188TIP3    H137055   5.333   3.887  11.515  0.2714 -0.0415 -0.1770
 5188TIP3    H237056   5.368   3.973  11.395  1.0739 -2.6871 -1.8763
 5189TIP3   OH237057   1.642   0.237  16.946  0.4104 -0.0167 -0.4788
 5189TIP3    H137058   1.699   0.271  17.015  0.1937  1.4506 -0.9983
 5189TIP3    H237059   1.688   0.259  16.864 -0.8167  1.0328 -0.8917
 5190TIP3   OH237060   4.536   0.444   1.824  0.1875  0.4242 -0.2049
 5190TIP3    H137061   4.496   0.524   1.855 -0.0777  0.2163 -0.0109
 5190TIP3    H237062   4.471   0.376   1.841  0.2056  0.2451 -0.8371
 5191TIP3   OH237063   1.141   3.923  15.449 -0.0669  0.6744 -0.1703
 5191TIP3    H137064   1.101   4.003  15.481 -0.5905  0.3738 -0.0634
 5191TIP3    H237065   1.228   3.949  15.421 -1.0891  1.7644 -2.4600
 5192TIP3   OH237066   3.329   3.496   5.100 -0.3323 -0.1625 -0.1695
 5192TIP3    H137067   3.274   3.418   5.110  0.3956 -0.5279  1.1437
 5192TIP3    H237068   3.350   3.499   5.007 -1.6442 -0.6646 -0.4815
 5193TIP3   OH237069   0.914   4.366   4.521  0.2502  0.5033 -0.1997
 5193TIP3    H137070   0.887   4.286   4.475  0.9066 -0.7251  1.4845
 5193TIP3    H237071   0.839   4.425   4.513 -1.3185 -1.3037  0.8650
 5194TIP3   OH237072   5.903   2.567  14.023 -0.0481 -0.3916 -0.0548
 5194TIP3    H137073   5.925   2.526  13.939  0.2958 -1.0487  0.3479
 5194TIP3    H237074   5.987   2.576  14.068  0.1684  2.5568 -0.9060
 5195TIP3   OH237075   6.169   6.497   3.672  0.4602  0.1261 -0.2062
 5195TIP3    H137076   6.159   6.443   3.751  1.3508 -1.4297 -1.1174
 5195TIP3    H237077   6.263   6.497   3.655  0.2192 -0.1234 -1.6264
 5196TIP3   OH237078   2.317   5.958   6.321 -0.0464 -0.4990  0.1863
 5196TIP3    H137079   2.261   6.017   6.371 -0.7516 -0.2711 -0.8363
 5196TIP3    H237080   2.295   5.871   6.353  0.3254 -0.2723  1.0548
 5197TIP3   OH237081   3.558   4.209   1.185 -0.4005 -0.6158 -0.0607
 5197TIP3    H137082   3.611   4.199   1.106 -2.3410 -0.6990 -1.3938
 5197TIP3    H237083   3.468   4.218   1.153 -1.3010 -1.2236  2.1581
 5198TIP3   OH237084   1.149   3.761  11.046  0.2780 -0.3651  0.3517
 5198TIP3    H137085   1.222   3.700  11.053  0.5322 -0.0319  0.6166
 5198TIP3    H237086   1.183   3.843  11.080 -0.4910 -0.4335  1.3148
 5199TIP3   OH237087   4.247   0.113  16.189 -0.1081 -0.0230  0.0740
 5199TIP3    H137088   4.220   0.120  16.098  2.2940 -0.6850 -0.7231
 5199TIP3    H237089   4.334   0.152  16.192 -1.7877  3.7930  2.9384
 5200TIP3   OH237090   3.178   6.478  14.619 -0.4185  0.7181  0.4370
 5200TIP3    H137091   3.126   6.470  14.699 -2.4641  0.3904 -0.8623
 5200TIP3    H237092   3.134   6.548  14.570  0.7756  0.8804 -0.4152
 5201TIP3   OH237093   3.528   3.575   5.259 -0.1577  0.3520 -0.3651
 5201TIP3    H137094   3.462   3.538   5.200 -0.0775 -0.9054  0.3199
 5201TIP3    H237095   3.611   3.539   5.227  0.0081  0.5271 -0.1375
 5202TIP3   OH237096   3.270   2.143   5.040 -0.0308 -0.2529  0.1726
 5202TIP3    H137097   3.286   2.078   5.108 -1.7903 -1.2718 -0.3439
 5202TIP3    H237098   3.312   2.222   5.072  0.3868 -1.1004  1.7751
 5203TIP3   OH237099   0.490   3.847  16.152 -0.0008  0.1525 -0.2538
 5203TIP3    H137100   0.492   3.753  16.134  1.5709  0.4119 -1.5155
 5203TIP3    H237101   0.403   3.862  16.189  0.1797 -2.0170  1.1739
 5204TIP3   OH237102   4.051   6.275  15.685 -0.0012 -0.2131  0.0660
 5204TIP3    H137103   4.029   6.201  15.741 -1.8771 -1.2256 -1.9398
 5204TIP3    H237104   4.138   6.301  15.713  0.7576 -3.2592  0.7010
 5205TIP3   OH237105   0.476   2.098   2.158  0.3413 -0.1253  0.5669
 5205TIP3    H137106   0.505   2.189   2.154 -0.7229  0.1798 -0.8903
 5205TIP3    H237107   0.544   2.049   2.113 -0.2524  0.2890 -0.8235
 5206TIP3   OH237108   0.472   2.831  15.934  0.2826  0.1903  0.3144
 5206TIP3    H137109   0.380   2.814  15.953  0.4580  0.0793  1.0715
 5206TIP3    H237110   0.517   2.751  15.962  0.6351  0.3389  0.1701
 5207TIP3   OH237111   2.311   3.572   0.565  0.1637 -0.0038  0.0834
 5207TIP3    H137112   2.389   3.539   0.521 -0.1278 -0.4065 -0.1332
 5207TIP3    H237113   2.267   3.626   0.499  0.9856  1.3662  0.6460
 5208TIP3   OH237114   5.980   1.020   5.400 -0.1836  0.0581  0.2775
 5208TIP3    H137115   6.068   0.992   5.426  0.3718  0.7300 -0.8299
 5208TIP3    H237116   5.929   1.020   5.481  0.6451 -1.0585  0.8039
 5209TIP3   OH237117   0.713   0.273   6.018  0.0033  0.2680  0.2536
 5209TIP3    H137118   0.750   0.284   5.931 -0.3729 -0.1699  0.0372
 5209TIP3    H237119   0.743   0.350   6.067 -0.1265  0.7183 -0.3714
 5210TIP3   OH237120   0.455   0.296  11.587  0.1083  0.2178 -0.5503
 5210TIP3    H137121   0.489   0.374  11.542 -2.8379  0.4217 -2.5856
 5210TIP3    H237122   0.466   0.225  11.523  2.8617 -1.1518  1.3205
 5211TIP3   OH237123   5.757   1.517   5.206  0.1719 -0.2751 -0.1840
 5211TIP3    H137124   5.820   1.510   5.134 -1.2950 -0.2817 -1.4828
 5211TIP3    H237125   5.680   1.559   5.168 -0.9716 -1.0952  1.1489
 5212TIP3   OH237126   6.592   0.026   3.741  0.1070 -0.4215  0.0500
 5212TIP3    H137127   6.648   0.104   3.731 -0.6212  0.0989 -0.0119
 5212TIP3    H237128   6.637  -0.042   3.691 -0.0577  0.3757 -1.1948
 5213TIP3   OH237129   0.494   6.569  14.908 -0.0563  0.0959  0.2944
 5213TIP3    H137130   0.535   6.654  14.895 -0.9531  0.3464 -0.9769
 5213TIP3    H237131   0.450   6.576  14.993 -1.0317  1.2792 -0.2912
 5214TIP3   OH237132   0.197   4.494  12.639 -0.2047 -0.0640 -0.2181
 5214TIP3    H137133   0.159   4.493  12.727 -0.6312 -0.1485 -0.4022
 5214TIP3    H237134   0.241   4.579  12.633 -1.2118  0.4594 -0.3616
 5215TIP3   OH237135   1.876   2.046   2.480 -0.0160  0.4339 -0.5125
 5215TIP3    H137136   1.803   2.070   2.537  0.7215  1.0636  0.1694
 5215TIP3    H237137   1.917   2.130   2.457  0.3163  0.1073 -1.1436
 5216TIP3   OH237138   6.144   5.846  11.115 -0.4747 -0.2569 -0.3621
 5216TIP3    H137139   6.197   5.899  11.055  0.9490 -0.5394  0.6342
 5216TIP3    H237140   6.162   5.756  11.088  1.1657 -0.4429  1.2977
 5217TIP3   OH237141   4.909   4.889   4.416 -0.3643  0.2361  0.4006
 5217TIP3    H137142   5.003   4.904   4.402 -0.0186 -1.3809  0.8821
 5217TIP3    H237143   4.883   4.833   4.342 -1.2360  1.6779 -0.4073
 5218TIP3   OH237144   1.291   3.108  11.594 -0.3032 -0.2608 -0.5738
 5218TIP3    H137145   1.340   3.166  11.653  1.4774 -1.3828 -0.8951
 5218TIP3    H237146   1.347   3.101  11.516 -0.8174 -1.8583 -0.8124
 5219TIP3   OH237147   4.733   4.082  11.187  0.2554  0.7832  0.4734
 5219TIP3    H137148   4.813   4.090  11.135  1.8513 -0.8843  2.5136
 5219TIP3    H237149   4.691   4.002  11.155  0.1876  0.8662  0.3595
 5220TIP3   OH237150   2.096   4.060  16.773  0.3207 -0.0008 -0.0369
 5220TIP3    H137151   2.114   4.023  16.686 -0.4186  1.5955 -0.8897
 5220TIP3    H237152   2.181   4.065  16.816  1.1374  2.0328 -1.8237
 5221TIP3   OH237153   4.144   4.849   3.124  0.1444  0.2508  0.0721
 5221TIP3    H137154   4.170   4.939   3.106  0.1408 -0.3655 -3.2861
 5221TIP3    H237155   4.223   4.797   3.108 -0.3816 -0.5552  0.0360
 5222TIP3   OH237156   4.209   1.502   4.078  0.1985  0.2867 -0.6576
 5222TIP3    H137157   4.186   1.451   4.000 -0.3962 -2.4282  1.2001
 5222TIP3    H237158   4.127   1.543   4.105 -0.1065 -0.6606 -0.1409
 5223TIP3   OH237159   6.253   1.846  16.506 -0.2578 -0.5537  0.0937
 5223TIP3    H137160   6.262   1.902  16.429  0.5529  0.3179  0.8123
 5223TIP3    H237161   6.251   1.757  16.471 -1.1357 -0.1074 -1.0282
 5224TIP3   OH237162   1.608   5.884  11.043 -0.1178 -0.4173 -0.1591
 5224TIP3    H137163   1.666   5.910  10.972 -0.6650 -0.1798 -0.5199
 5224TIP3    H237164   1.667   5.866  11.117  0.4340 -0.4693 -0.6077
 5225TIP3   OH237165   6.432   1.197  12.195  0.1783 -0.2934  0.2799
 5225TIP3    H137166   6.356   1.157  12.238 -1.8366  0.5759 -2.2878
 5225TIP3    H237167   6.470   1.127  12.142 -0.7776  0.0483 -0.8894
 5226TIP3   OH237168   5.400   0.206  10.992  0.1508 -0.0078 -0.1634
 5226TIP3    H137169   5.482   0.172  11.026  0.6040  0.3908 -0.8458
 5226TIP3    H237170   5.360   0.131  10.946  0.4069 -0.0405 -0.3312
 5227TIP3   OH237171   4.317   1.331   5.263 -0.0690  0.0435  0.1999
 5227TIP3    H137172   4.372   1.274   5.209  0.2997  0.7923 -0.2222
 5227TIP3    H237173   4.255   1.272   5.305 -1.4263 -0.3539 -2.3103
 5228TIP3   OH237174   1.147   0.533   3.203  0.4880  0.1435  0.3629
 5228TIP3    H137175   1.222   0.535   3.262  0.2533 -2.0629  0.7773
 5228TIP3    H237176   1.073   0.564   3.257  0.5664 -0.3762  0.7688
 5229TIP3   OH237177   2.105   1.537   3.817  0.8248 -0.2948 -0.4546
 5229TIP3    H137178   2.120   1.611   3.758  0.5812  0.7206  0.7077
 5229TIP3    H237179   2.011   1.534   3.830  0.5876 -2.4195 -2.4625
 5230TIP3   OH237180   6.407   1.438  11.586  0.3757  0.4200 -0.0504
 5230TIP3    H137181   6.386   1.384  11.510  1.2297 -2.1216  1.4445
 5230TIP3    H237182   6.335   1.421  11.647  0.8185  0.7182  0.5555
 5231TIP3   OH237183   6.139   5.364  13.567  0.0777 -0.1225 -0.3112
 5231TIP3    H137184   6.066   5.309  13.539 -0.4536  0.3524  0.1205
 5231TIP3    H237185   6.195   5.372  13.490  0.7984 -2.2769 -0.0480
 5232TIP3   OH237186   2.026   5.288   2.451 -0.4195 -0.2211 -0.0193
 5232TIP3    H137187   1.949   5.340   2.470 -1.4376 -0.3398 -3.5401
 5232TIP3    H237188   1.991   5.204   2.420  1.1566 -1.3343  1.1368
 5233TIP3   OH237189   4.186   1.082   5.689  0.0825 -0.4690 -0.2696
 5233TIP3    H137190   4.111   1.023   5.695  0.2735 -0.7620 -0.7589
 5233TIP3    H237191   4.176   1.141   5.764 -0.0813 -1.1521  0.2542
 5234TIP3   OH237192   6.771   2.139   2.233  0.5079 -0.0058 -0.1418
 5234TIP3    H137193   6.764   2.215   2.174  0.9331 -0.5961 -0.9607
 5234TIP3    H237194   6.850   2.094   2.205  0.3245 -0.6853  0.4250
 5235TIP3   OH237195   6.584   1.549   1.103 -0.0831 -0.1643  0.5819
 5235TIP3    H137196   6.654   1.571   1.042  0.9618 -2.7594  0.7839
 5235TIP3    H237197   6.606   1.598   1.183  1.0736 -0.3383  0.3795
 5236TIP3   OH237198   3.021   2.226   0.361  0.4296 -0.2396 -0.3400
 5236TIP3    H137199   3.037   2.238   0.455 -0.1648 -0.3425 -0.2217
 5236TIP3    H237200   2.961   2.151   0.356  0.4381 -0.2169 -0.7990
 5237TIP3   OH237201   5.749   3.758  14.626 -0.1961 -0.0983 -0.3206
 5237TIP3    H137202   5.722   3.801  14.545  1.3415  0.9001 -0.3277
 5237TIP3    H237203   5.824   3.704  14.601  0.0644 -0.0589  0.3691
 5238TIP3   OH237204   6.296   5.448   4.378  0.7260  0.7213  0.0378
 5238TIP3    H137205   6.342   5.531   4.385  2.3146 -0.2176  1.1545
 5238TIP3    H237206   6.304   5.424   4.286  1.4757  1.1341 -0.0098
 5239TIP3   OH237207   4.503   6.260   4.528 -0.7177  0.7627  0.1064
 5239TIP3    H137208   4.458   6.313   4.593 -0.3404  0.6294  0.4789
 5239TIP3    H237209   4.595   6.260   4.556 -1.2506 -3.0561  2.1872
 5240TIP3   OH237210   4.657   0.086  16.774 -0.1628  0.1740  0.3795
 5240TIP3    H137211   4.701   0.015  16.820  0.9293  0.5969  0.0257
 5240TIP3    H237212   4.707   0.164  16.799 -1.3241  0.8056  0.7388
 5241TIP3   OH237213   3.116   4.556   2.325 -0.3659 -0.0826 -0.3848
 5241TIP3    H137214   3.045   4.617   2.346  1.2575  1.9125 -0.5671
 5241TIP3    H237215   3.098   4.529   2.235 -1.0082  0.2318 -0.3607
 5242TIP3   OH237216   4.034   6.153   0.193 -0.1698 -0.3553  0.0354
 5242TIP3    H137217   4.022   6.082   0.130 -0.6680 -0.9719  0.8239
 5242TIP3    H237218   4.087   6.115   0.263 -0.2417  0.1103  0.3486
 5243TIP3   OH237219   3.971   1.865  11.589  0.0019 -0.2107  0.4179
 5243TIP3    H137220   4.058   1.904  11.579 -0.6529  1.0036 -0.7500
 5243TIP3    H237221   3.956   1.863  11.683 -0.8770  4.6188  0.5237
 5244TIP3   OH237222   6.371   4.670  14.629  0.3373 -0.3743 -0.4173
 5244TIP3    H137223   6.375   4.645  14.536  0.1132 -3.8009  0.4314
 5244TIP3    H237224   6.279   4.664  14.652  0.5653 -0.9940  0.3691
 5245TIP3   OH237225   0.706   1.745  13.971  0.4014 -0.0315 -0.0395
 5245TIP3    H137226   0.708   1.834  14.006  2.2666 -0.5892  1.3270
 5245TIP3    H237227   0.696   1.757  13.876  2.2972  1.7028 -0.0653
 5246TIP3   OH237228   5.995   5.697   3.377 -0.2262  0.1006  0.1068
 5246TIP3    H137229   5.946   5.616   3.393  0.7757 -1.3267 -3.5670
 5246TIP3    H237230   5.934   5.752   3.328  0.2046  0.2534 -0.2576
 5247TIP3   OH237231   3.515   4.441  10.512  0.6268  0.0357 -0.4098
 5247TIP3    H137232   3.471   4.452  10.597 -0.7970 -0.7225 -1.0281
 5247TIP3    H237233   3.457   4.383  10.463  2.0917 -0.5650 -1.4483
 5248TIP3   OH237234   3.444   3.201   1.499  0.6752  0.0729  0.3352
 5248TIP3    H137235   3.469   3.182   1.589  2.4218  2.2159  0.3311
 5248TIP3    H237236   3.389   3.279   1.505 -1.4731 -1.3736 -0.2138
 5249TIP3   OH237237   0.004   5.933  15.567  0.4462  0.0825  0.4706
 5249TIP3    H137238   0.030   6.016  15.528  0.3885  0.0242  0.3078
 5249TIP3    H237239  -0.085   5.947  15.599  0.9945  0.5495  1.8126
 5250TIP3   OH237240   3.687   1.593   0.345  0.1060  0.5698  0.1187
 5250TIP3    H137241   3.684   1.589   0.250  1.8749  1.8156 -0.0018
 5250TIP3    H237242   3.714   1.506   0.373 -0.5094  0.1779 -0.4993
 5251TIP3   OH237243   2.188   3.721  16.830  0.0804  0.7705 -0.0460
 5251TIP3    H137244   2.125   3.726  16.902 -0.9602  0.3983 -0.9145
 5251TIP3    H237245   2.135   3.729  16.751  1.3014  2.0560 -0.7631
 5252TIP3   OH237246   1.920   4.320  13.728  0.4502 -0.0674  0.4046
 5252TIP3    H137247   1.964   4.391  13.683  0.7324 -0.3361  0.2513
 5252TIP3    H237248   1.984   4.248  13.727  0.1618 -0.3253  0.5389
 5253TIP3   OH237249   1.702   3.739  12.458  0.1796 -0.0954  0.6322
 5253TIP3    H137250   1.683   3.667  12.518  1.0905 -0.8236  0.0683
 5253TIP3    H237251   1.665   3.711  12.375  1.5414 -0.4474  0.1238
 5254TIP3   OH237252   6.103   5.149   1.731  0.4949  0.1262 -0.6651
 5254TIP3    H137253   6.155   5.122   1.807  0.4597 -1.8086 -1.2982
 5254TIP3    H237254   6.160   5.131   1.656 -0.0753  0.5334 -1.1972
 5255TIP3   OH237255   6.162   5.513  14.865  0.4165  0.0561  0.4023
 5255TIP3    H137256   6.216   5.592  14.874  1.1410 -0.2808 -0.9003
 5255TIP3    H237257   6.137   5.512  14.772 -0.5390 -0.6258  0.6683
 5256TIP3   OH237258   2.163   6.758   4.272 -0.4529  0.3938 -0.5576
 5256TIP3    H137259   2.134   6.848   4.260 -0.7893  0.2834 -0.5899
 5256TIP3    H237260   2.179   6.749   4.366  1.9170  1.1801 -0.8515
 5257TIP3   OH237261   2.276   5.652   2.428  0.1499  0.2895 -0.0867
 5257TIP3    H137262   2.276   5.744   2.455  1.7406  0.5912 -1.0364
 5257TIP3    H237263   2.231   5.652   2.344  1.6963  0.4833 -0.9300
 5258TIP3   OH237264   1.846   4.939   2.683 -0.1837 -0.1544  0.2723
 5258TIP3    H137265   1.763   4.897   2.661 -0.4416 -0.1291  1.1649
 5258TIP3    H237266   1.855   4.926   2.777  1.0404 -0.5295  0.1155
 5259TIP3   OH237267   4.896   0.482  17.044  0.0631  0.3726  0.1895
 5259TIP3    H137268   4.946   0.433  17.109 -0.4641 -0.9938 -0.4147
 5259TIP3    H237269   4.932   0.571  17.047  1.3649 -0.1760  0.9481
 5260TIP3   OH237270   6.187   2.391  17.075  0.3002 -0.2645  0.3122
 5260TIP3    H137271   6.148   2.364  16.992  0.2643 -1.7887  0.8138
 5260TIP3    H237272   6.267   2.338  17.083  1.6778  1.7301  0.0311
 5261TIP3   OH237273   2.293   2.398  15.769 -0.1595 -0.6642 -0.1191
 5261TIP3    H137274   2.230   2.422  15.837  0.1672  1.0480 -0.4026
 5261TIP3    H237275   2.374   2.442  15.794 -0.0900  0.1482 -1.7097
 5262TIP3   OH237276   6.005   1.848   2.697 -0.1863  0.0340 -0.0505
 5262TIP3    H137277   6.005   1.754   2.717  1.1645  0.0540  0.0479
 5262TIP3    H237278   6.089   1.880   2.729 -1.1280  1.5287  0.9950
 5263TIP3   OH237279   5.529   5.247  11.837  0.3084  0.7155 -0.0512
 5263TIP3    H137280   5.547   5.220  11.747 -0.8821  0.1628 -0.1325
 5263TIP3    H237281   5.616   5.259  11.876  0.8649 -1.8526 -0.4317
 5264TIP3   OH237282   4.228   5.441  14.278  0.1862  0.2316 -0.1585
 5264TIP3    H137283   4.301   5.465  14.335 -0.0547 -0.6848  0.5416
 5264TIP3    H237284   4.236   5.500  14.203  1.7630 -0.0228 -0.1977
 5265TIP3   OH237285   4.971   5.311   0.414  0.1352 -0.1598 -0.4343
 5265TIP3    H137286   4.916   5.377   0.455  1.3527  1.2543 -1.0183
 5265TIP3    H237287   4.937   5.303   0.325 -0.8296 -1.2882  0.0214
 5266TIP3   OH237288   2.551   1.649  14.838 -0.1001 -0.4378  0.4317
 5266TIP3    H137289   2.477   1.708  14.851 -0.8000 -1.4843  1.2711
 5266TIP3    H237290   2.523   1.590  14.768  0.0126 -0.7426  0.6451
 5267TIP3   OH237291   0.231   6.278  12.425  0.4926  0.2492 -0.1724
 5267TIP3    H137292   0.145   6.316  12.444 -0.3037 -0.9276 -1.2745
 5267TIP3    H237293   0.294   6.344  12.452 -0.7789  1.2482  0.3838
 5268TIP3   OH237294   6.710   3.842   4.242 -0.2574 -0.0989 -0.1231
 5268TIP3    H137295   6.627   3.833   4.288 -0.7793  0.1516 -1.0029
 5268TIP3    H237296   6.775   3.854   4.311 -0.8982 -0.6751  0.5843
 5269TIP3   OH237297   6.365   1.500   6.171  0.0446 -0.5812  0.3200
 5269TIP3    H137298   6.412   1.555   6.234 -0.2882 -0.4208  0.4340
 5269TIP3    H237299   6.290   1.466   6.221  0.1042 -0.9235  0.1752
 5270TIP3   OH237300   4.211   4.367  17.053  0.1596 -0.1460 -0.3924
 5270TIP3    H137301   4.140   4.390  16.993 -0.6550 -1.2623  0.1285
 5270TIP3    H237302   4.263   4.302  17.005  0.2800 -0.0414 -0.4047
 5271TIP3   OH237303   3.277   1.401  14.801 -0.3904  0.0823  0.3216
 5271TIP3    H137304   3.350   1.449  14.763  0.2346 -2.4902 -1.9332
 5271TIP3    H237305   3.318   1.334  14.855 -0.9743 -1.8403 -1.5299
 5272TIP3   OH237306   5.809   2.408  11.686  0.0025  0.4140  0.2423
 5272TIP3    H137307   5.818   2.365  11.770  1.3883  0.3815  0.0856
 5272TIP3    H237308   5.778   2.339  11.627 -0.4616  0.3137  0.5964
 5273TIP3   OH237309   0.968   0.684   3.415 -0.1094  0.0342 -0.1543
 5273TIP3    H137310   1.031   0.750   3.387 -0.2141  0.0728 -0.2941
 5273TIP3    H237311   0.903   0.732   3.466  0.1332 -0.0490  0.2440
 5274TIP3   OH237312   2.043   0.438   5.003 -0.1002  0.2510  0.3578
 5274TIP3    H137313   2.094   0.516   5.026 -0.0145 -0.0041  1.0517
 5274TIP3    H237314   1.959   0.472   4.972  0.5766  0.6841 -1.0484
 5275TIP3   OH237315   5.029   5.277   0.021  0.4583  0.3761 -0.5945
 5275TIP3    H137316   5.101   5.214   0.029  0.1136 -0.0525 -0.8776
 5275TIP3    H237317   4.981   5.269   0.103 -1.2243 -1.7468 -1.7598
 5276TIP3   OH237318   2.140   5.471  14.751  0.0990  0.0063 -0.3099
 5276TIP3    H137319   2.222   5.421  14.746  0.1651  0.1415 -0.5710
 5276TIP3    H237320   2.143   5.530  14.676 -0.9460 -1.0694 -1.2328
 5277TIP3   OH237321   4.591   3.111   4.885  0.2904  0.2213  0.5059
 5277TIP3    H137322   4.624   3.105   4.795 -0.6533 -0.5299  0.2071
 5277TIP3    H237323   4.660   3.071   4.939  0.1653 -0.7690 -0.0538
 5278TIP3   OH237324   3.568   4.544   0.054  0.4761 -0.1804  0.2029
 5278TIP3    H137325   3.479   4.547   0.019 -0.3203 -0.6174  2.1088
 5278TIP3    H237326   3.607   4.627   0.027 -0.5972  0.1444 -0.4116
 5279TIP3   OH237327   2.452   0.414  12.952 -0.1492  0.2473  0.5842
 5279TIP3    H137328   2.412   0.476  13.014  0.4804 -0.0283  1.2734
 5279TIP3    H237329   2.397   0.336  12.956  1.0546 -0.5492  2.3656
 5280TIP3   OH237330   5.365   4.636   2.892 -0.1176 -0.5728 -0.1513
 5280TIP3    H137331   5.337   4.548   2.920  0.5427 -0.7627 -0.0799
 5280TIP3    H237332   5.323   4.695   2.955 -0.5189 -0.8446 -0.1636
 5281TIP3   OH237333   4.454   2.302  16.202  0.1650  0.1669  0.4424
 5281TIP3    H137334   4.435   2.383  16.155  0.3954  1.0688  1.9084
 5281TIP3    H237335   4.550   2.298  16.205  0.1664 -0.6456 -0.4548
 5282TIP3   OH237336   5.711   1.157  15.466 -0.3357  0.2355  0.3541
 5282TIP3    H137337   5.793   1.191  15.429 -1.2259  1.8472 -0.1959
 5282TIP3    H237338   5.734   1.071  15.500  0.7735 -0.9229 -3.0982
 5283TIP3   OH237339   0.150   4.608  14.069 -0.0533 -0.4433  0.6664
 5283TIP3    H137340   0.234   4.603  14.115 -0.1336 -0.5139  0.8059
 5283TIP3    H237341   0.135   4.519  14.035  1.1777  0.1582 -1.5836
 5284TIP3   OH237342   5.406   4.621  17.189  0.4638 -0.2490 -0.8005
 5284TIP3    H137343   5.403   4.569  17.269  2.6629  1.5646  0.5533
 5284TIP3    H237344   5.435   4.560  17.121 -0.9239 -1.6893 -0.1062
 5285TIP3   OH237345   6.456   3.400  14.036  0.4315  0.2517 -0.0763
 5285TIP3    H137346   6.480   3.354  13.955  1.4625  0.0966  0.3096
 5285TIP3    H237347   6.434   3.330  14.097 -0.1960  0.3637 -0.1682
 5286TIP3   OH237348   1.752   5.224   3.120 -0.1067 -0.4021 -0.5363
 5286TIP3    H137349   1.717   5.303   3.161  2.0991  0.0054  0.6630
 5286TIP3    H237350   1.713   5.152   3.169 -2.4171 -0.1004 -1.8750
 5287TIP3   OH237351   0.131   5.644   2.572  0.3235  0.1255 -0.6427
 5287TIP3    H137352   0.083   5.721   2.602  0.3685  0.4230 -1.3275
 5287TIP3    H237353   0.181   5.675   2.497  0.9514 -0.3831 -0.4373
 5288TIP3   OH237354   3.183   3.627  10.681  0.0866 -0.3306 -0.3090
 5288TIP3    H137355   3.105   3.621  10.627 -1.7489 -0.8937  2.3465
 5288TIP3    H237356   3.187   3.719  10.709 -0.3044 -0.5570  0.5111
 5289TIP3   OH237357   1.101   2.632   4.917  0.5947  0.1105 -0.2886
 5289TIP3    H137358   1.166   2.567   4.888  1.3599  1.3173 -1.3367
 5289TIP3    H237359   1.153   2.700   4.960 -0.2003  0.0347  0.7970
 5290TIP3   OH237360   3.191   5.737  13.543  1.0743  0.8150 -0.1630
 5290TIP3    H137361   3.192   5.803  13.474  1.0975 -0.6842 -1.6229
 5290TIP3    H237362   3.262   5.677  13.520 -0.9806 -1.4900 -0.6485
 5291TIP3   OH237363   5.238   5.695  11.354 -0.3635 -0.3937  0.1836
 5291TIP3    H137364   5.251   5.605  11.327 -1.7344 -0.9417  1.2984
 5291TIP3    H237365   5.226   5.743  11.272 -1.0496 -1.4512 -0.3449
 5292TIP3   OH237366   6.476   1.099   0.156  0.1129 -0.7217  0.4781
 5292TIP3    H137367   6.411   1.031   0.171 -0.3504 -0.4552 -0.2964
 5292TIP3    H237368   6.464   1.160   0.229 -1.3143 -0.0507 -0.2974
 5293TIP3   OH237369   2.430   1.937   5.038  0.3791  0.2649 -0.0625
 5293TIP3    H137370   2.476   2.020   5.024 -1.9215  1.5974 -0.0238
 5293TIP3    H237371   2.408   1.907   4.949  2.7120 -1.2456 -0.1875
 5294TIP3   OH237372   2.285   5.559  12.866 -0.0368 -0.4329 -0.3355
 5294TIP3    H137373   2.373   5.532  12.892 -0.0791  0.0382  0.2981
 5294TIP3    H237374   2.276   5.647  12.901 -0.4754 -0.1870 -1.0746
 5295TIP3   OH237375   0.368   6.293  14.950  0.0227  0.2261  0.7750
 5295TIP3    H137376   0.386   6.387  14.955 -0.7303  0.4083  0.2285
 5295TIP3    H237377   0.275   6.285  14.974 -0.4860 -0.1330 -1.2150
 5296TIP3   OH237378   2.009   6.288   0.641  0.4058  0.1449 -0.1876
 5296TIP3    H137379   2.017   6.378   0.610  1.8809  0.3400  0.7214
 5296TIP3    H237380   1.989   6.237   0.563 -1.1574  1.3522 -0.6023
 5297TIP3   OH237381   5.009   5.879  15.385 -0.2229 -0.6235 -0.2820
 5297TIP3    H137382   5.050   5.794  15.402 -1.0866 -1.4283 -2.1289
 5297TIP3    H237383   5.052   5.911  15.306  0.3734  0.8617  0.6215
 5298TIP3   OH237384   5.453   2.440   0.967 -0.2776  0.3219 -0.3920
 5298TIP3    H137385   5.382   2.484   1.014 -0.6674 -1.6760  0.9769
 5298TIP3    H237386   5.408   2.379   0.909  0.2926  0.3257 -0.8361
 5299TIP3   OH237387   2.853   4.146   3.137 -0.2894  0.2247  0.4516
 5299TIP3    H137388   2.801   4.201   3.196  0.3468  0.6261  0.6435
 5299TIP3    H237389   2.795   4.074   3.113 -1.5214  1.5824 -0.7164
 5300TIP3   OH237390   6.485   3.725   3.829 -0.1946  0.0470 -0.5293
 5300TIP3    H137391   6.551   3.673   3.783 -1.9534 -2.2942 -0.4693
 5300TIP3    H237392   6.457   3.790   3.765  1.0842  0.1183 -1.0337
 5301TIP3   OH237393   2.625   1.562   6.018  0.4372 -0.3262  0.2091
 5301TIP3    H137394   2.572   1.504   6.073  1.4554 -1.1865  0.2909
 5301TIP3    H237395   2.620   1.648   6.062 -0.0724 -0.6275  0.7537
 5302TIP3   OH237396   3.406   6.610  11.725 -0.0671 -0.5579 -0.4776
 5302TIP3    H137397   3.361   6.602  11.809  1.3206 -0.0696  0.3377
 5302TIP3    H237398   3.353   6.672  11.675 -1.1832 -1.2490 -0.1442
 5303TIP3   OH237399   1.598   0.362  12.931 -0.2264  0.1979  0.3364
 5303TIP3    H137400   1.685   0.395  12.953 -0.1076 -0.8956  1.5042
 5303TIP3    H237401   1.541   0.396  13.000 -0.7654  0.9928 -0.4758
 5304TIP3   OH237402   5.896   0.935  11.099  0.2604  0.2180 -0.7474
 5304TIP3    H137403   5.946   1.011  11.070  0.9583 -0.1144 -0.4253
 5304TIP3    H237404   5.858   0.899  11.019  1.0809  0.0772 -1.0706
 5305TIP3   OH237405   1.292   0.715   1.044 -0.3956  0.0630  0.2278
 5305TIP3    H137406   1.342   0.756   1.115  1.2440  0.4721 -1.1350
 5305TIP3    H237407   1.230   0.657   1.089  0.0156  0.9794  2.0203
 5306TIP3   OH237408   3.133   4.795  11.826 -0.2485  0.0972  0.1559
 5306TIP3    H137409   3.165   4.771  11.913  2.0568 -0.2790 -0.7577
 5306TIP3    H237410   3.092   4.880  11.838  1.7091  0.9186  1.2897
 5307TIP3   OH237411   4.174   5.116  17.158 -0.2092  0.2105 -0.5211
 5307TIP3    H137412   4.226   5.097  17.237  0.8125 -0.7381 -1.3954
 5307TIP3    H237413   4.239   5.145  17.093 -1.0094  0.7565 -1.0837
 5308TIP3   OH237414   3.765   1.357  13.883 -0.3364 -0.2495 -0.7543
 5308TIP3    H137415   3.805   1.444  13.887  0.4168 -0.6541  1.8532
 5308TIP3    H237416   3.701   1.357  13.954 -1.4270 -1.3058 -1.7221
 5309TIP3   OH237417   6.631   2.528   0.951 -0.7215 -0.2435 -0.2600
 5309TIP3    H137418   6.692   2.519   1.025  1.6969  1.8389 -1.9260
 5309TIP3    H237419   6.549   2.554   0.992  0.7928  1.6859  1.6985
 5310TIP3   OH237420   5.050   6.513  13.430  0.0738 -0.4400  0.7971
 5310TIP3    H137421   4.989   6.463  13.376 -0.9224 -1.0074  2.4032
 5310TIP3    H237422   5.127   6.458  13.437  0.3784 -0.1723 -0.3999
 5311TIP3   OH237423   5.292   6.275  15.916 -0.2850 -0.2630  0.4265
 5311TIP3    H137424   5.323   6.361  15.888 -1.4022  0.7477  2.1711
 5311TIP3    H237425   5.328   6.214  15.851  1.4035  1.3796 -0.2396
 5312TIP3   OH237426   2.697   2.968  16.358 -0.1007  0.0843 -0.2677
 5312TIP3    H137427   2.657   3.043  16.313  0.1390  0.7357  0.5876
 5312TIP3    H237428   2.755   2.929  16.293  1.4348  1.9474 -0.0565
 5313TIP3   OH237429   5.832   0.248   2.140 -0.5567  0.0023  0.2357
 5313TIP3    H137430   5.755   0.292   2.103  0.5612  1.0415 -0.9134
 5313TIP3    H237431   5.902   0.313   2.133  0.4701 -0.9988  1.0976
 5314TIP3   OH237432   4.660   3.079  10.795 -0.2568 -0.1630 -0.2415
 5314TIP3    H137433   4.654   3.169  10.764 -0.8243 -0.7719 -1.9732
 5314TIP3    H237434   4.642   3.026  10.717  2.5543 -1.8023  0.1675
 5315TIP3   OH237435   2.965   1.826   3.794 -0.1528  0.2093 -0.5796
 5315TIP3    H137436   3.040   1.837   3.853 -0.4157  1.4558 -0.4620
 5315TIP3    H237437   2.918   1.750   3.829  0.8310 -0.3257 -0.4144
 5316TIP3   OH237438   3.403   3.336   3.536 -0.3939  0.4683  0.0799
 5316TIP3    H137439   3.400   3.424   3.573 -2.7728  0.2636  0.4174
 5316TIP3    H237440   3.354   3.282   3.598  2.4611 -1.4799  0.7891
 5317TIP3   OH237441   3.260   5.564  15.910  0.2531 -0.2278  0.1475
 5317TIP3    H137442   3.244   5.576  15.817  0.4608 -1.8382 -0.1126
 5317TIP3    H237443   3.279   5.652  15.943  2.5871  0.0375 -1.7880
 5318TIP3   OH237444   0.480   1.334  12.729 -0.3241 -0.1140  0.0737
 5318TIP3    H137445   0.436   1.419  12.736 -1.2956 -0.5365 -0.7905
 5318TIP3    H237446   0.571   1.356  12.709 -0.5834  0.7198 -0.2197
 5319TIP3   OH237447   5.536   2.208  14.781  0.5697  0.6113  0.7279
 5319TIP3    H137448   5.552   2.159  14.700 -0.1409  0.7824  0.4830
 5319TIP3    H237449   5.470   2.156  14.827 -0.5736  1.5998  0.2253
 5320TIP3   OH237450   3.068   2.415  12.561 -0.2965  0.3386 -0.2314
 5320TIP3    H137451   3.036   2.389  12.647 -3.0559  1.1706 -0.9572
 5320TIP3    H237452   3.163   2.411  12.568 -0.5257 -3.6197  1.6083
 5321TIP3   OH237453   2.027   1.202   3.862  0.0684 -0.6232 -0.6260
 5321TIP3    H137454   2.113   1.183   3.826  0.3140 -0.1120 -0.3039
 5321TIP3    H237455   2.036   1.185   3.955  0.6549  2.2955 -0.1037
 5322TIP3   OH237456   3.007   2.328   5.556 -0.4265 -0.8895  0.9270
 5322TIP3    H137457   3.096   2.342   5.587 -0.6514 -0.2189  1.2776
 5322TIP3    H237458   2.994   2.395   5.489 -0.0015 -2.2267 -0.5240
 5323TIP3   OH237459   6.624   5.368   2.487  0.2763 -0.0231 -0.0764
 5323TIP3    H137460   6.553   5.408   2.437  0.1202  0.0730  0.2241
 5323TIP3    H237461   6.632   5.423   2.565  2.0286  1.1871 -1.0773
 5324TIP3   OH237462   5.023   5.482   2.354 -0.3663  0.5132 -0.6827
 5324TIP3    H137463   4.948   5.521   2.309 -0.7392  1.5354  0.7946
 5324TIP3    H237464   5.028   5.528   2.438  2.0997  0.6859 -0.8686
 5325TIP3   OH237465   2.885   6.696   2.101 -0.3815  0.1241  0.1420
 5325TIP3    H137466   2.810   6.649   2.064 -1.7781  1.8694  0.6824
 5325TIP3    H237467   2.947   6.704   2.028 -0.3555 -2.0182 -0.1041
 5326TIP3   OH237468   4.533   2.909  13.839  0.0969  0.3320 -0.7203
 5326TIP3    H137469   4.597   2.880  13.774  1.1431 -2.0205  1.2534
 5326TIP3    H237470   4.565   2.873  13.922 -3.4373 -0.4366  0.4190
 5327TIP3   OH237471   3.418   0.531  15.409 -0.3791  0.8198  0.4164
 5327TIP3    H137472   3.416   0.484  15.325 -1.6792  0.3746  0.6890
 5327TIP3    H237473   3.476   0.477  15.464  1.1271  1.5413 -0.4274
 5328TIP3   OH237474   2.011   0.275  11.740 -0.3149  0.5006 -0.0406
 5328TIP3    H137475   2.027   0.213  11.811  0.3430  0.2076 -0.4365
 5328TIP3    H237476   2.081   0.257  11.677 -0.3678  1.3651 -0.3461
 5329TIP3   OH237477   0.863   0.410   3.496  0.1128 -0.1652 -0.1466
 5329TIP3    H137478   0.906   0.492   3.471 -0.1262  0.2584  0.7832
 5329TIP3    H237479   0.928   0.342   3.479  0.3763  0.2368 -0.7562
 5330TIP3   OH237480   1.411   0.890  17.147  0.3971 -0.0262  0.8288
 5330TIP3    H137481   1.448   0.829  17.211  0.5595 -1.9623 -1.0416
 5330TIP3    H237482   1.486   0.931  17.105  0.3438 -0.1769  0.5791
 5331TIP3   OH237483   1.337   4.208  12.614  0.1652 -0.0720 -0.2424
 5331TIP3    H137484   1.302   4.123  12.639 -0.1327 -0.3347 -1.5171
 5331TIP3    H237485   1.339   4.207  12.518 -1.3893  1.9428 -0.3447
 5332TIP3   OH237486   6.453   2.295  17.151 -0.1263 -0.1875 -0.3246
 5332TIP3    H137487   6.494   2.221  17.196  0.1509  0.5664  0.6764
 5332TIP3    H237488   6.460   2.367  17.213 -2.6992  0.0541 -0.2574
 5333TIP3   OH237489   4.388   1.138   2.490 -0.1976 -0.0092 -0.5320
 5333TIP3    H137490   4.444   1.063   2.470  0.2697  0.4007 -0.7686
 5333TIP3    H237491   4.310   1.100   2.530  0.9333 -0.4680  1.2929
 5334TIP3   OH237492   4.028   6.745   3.419 -0.3962  0.0644 -0.5182
 5334TIP3    H137493   4.054   6.723   3.329 -0.9202 -1.4996 -0.3059
 5334TIP3    H237494   3.965   6.677   3.443 -3.4216  2.7821 -0.4005
 5335TIP3   OH237495   0.464   6.082   4.907  1.0160  0.3708  0.3603
 5335TIP3    H137496   0.500   6.168   4.928  2.4925 -0.1390 -0.0022
 5335TIP3    H237497   0.535   6.021   4.928 -0.1835 -0.8023  1.0752
 5336TIP3   OH237498   3.972   6.487   0.968  0.1816 -0.4970 -0.1622
 5336TIP3    H137499   3.911   6.471   0.896 -0.6067 -0.8983  0.5809
 5336TIP3    H237500   3.920   6.533   1.034  0.7502 -0.6000  0.3646
 5337TIP3   OH237501   0.420   4.062   6.241 -0.1571  1.0134 -0.2707
 5337TIP3    H137502   0.333   4.038   6.210  1.0844 -1.7292 -1.7931
 5337TIP3    H237503   0.480   4.024   6.177  2.1567  3.1872  0.5384
 5338TIP3   OH237504   2.191   5.507   1.248  0.5837  0.2961  0.5571
 5338TIP3    H137505   2.272   5.516   1.198  0.5782  1.3637  0.7219
 5338TIP3    H237506   2.134   5.577   1.214 -1.0570 -1.7489 -1.0362
 5339TIP3   OH237507   2.900   1.467  16.343 -0.1134  0.1129 -0.2103
 5339TIP3    H137508   2.875   1.558  16.328  0.4620  0.3757  0.3896
 5339TIP3    H237509   2.985   1.472  16.387  0.0015 -0.7163 -0.3196
 5340TIP3   OH237510   0.655   3.198  15.108  0.2264  0.4986 -0.4234
 5340TIP3    H137511   0.588   3.230  15.048  1.2058 -0.1995 -1.9239
 5340TIP3    H237512   0.727   3.171  15.051  1.7310  1.1066  1.1504
 5341TIP3   OH237513   3.615   3.986  12.881  0.9078  0.0857 -0.3837
 5341TIP3    H137514   3.636   4.043  12.807  0.3616 -1.5286 -1.8310
 5341TIP3    H237515   3.532   3.945  12.856  1.4504 -1.5875  0.4643
 5342TIP3   OH237516   4.921   6.218   4.261  0.3419 -0.3985  0.6121
 5342TIP3    H137517   4.929   6.255   4.349  0.4427 -1.9253  1.2524
 5342TIP3    H237518   4.829   6.232   4.238  0.0163 -1.0847  1.4569
 5343TIP3   OH237519   0.710   2.194  15.037  0.1721 -0.5637  0.2856
 5343TIP3    H137520   0.709   2.278  15.083 -0.8240 -0.0375 -0.6771
 5343TIP3    H237521   0.693   2.217  14.945  0.7400 -1.7316 -0.1140
 5344TIP3   OH237522   5.202   0.550   5.070 -0.2029 -0.0928 -0.3064
 5344TIP3    H137523   5.163   0.637   5.063  1.2650  0.7616  1.6305
 5344TIP3    H237524   5.221   0.525   4.980 -1.7919  1.0418 -0.9768
 5345TIP3   OH237525   0.372   0.137   0.975  0.2832  0.1494  0.7424
 5345TIP3    H137526   0.393   0.044   0.985 -1.7860 -0.3506  0.6425
 5345TIP3    H237527   0.454   0.182   0.993  2.2745 -1.8576 -2.7680
 5346TIP3   OH237528   1.925   2.941   1.514  0.0218  0.0230 -0.4142
 5346TIP3    H137529   1.995   2.934   1.578 -2.2837 -0.2491  2.1619
 5346TIP3    H237530   1.954   3.011   1.455  1.2651  1.7533  2.1589
 5347TIP3   OH237531   1.343   1.339   1.579 -0.2759 -0.0287  0.1281
 5347TIP3    H137532   1.272   1.281   1.550 -0.7027  0.1777  0.7609
 5347TIP3    H237533   1.325   1.422   1.536  1.1277 -0.7521 -1.9191
 5348TIP3   OH237534   3.682   6.068   3.154 -0.5778  0.4179  0.2277
 5348TIP3    H137535   3.673   5.980   3.191  1.3064  0.0680 -0.1295
 5348TIP3    H237536   3.601   6.081   3.104 -0.3959 -1.5405 -0.6146
 5349TIP3   OH237537   0.926   1.215  11.152 -0.4793  0.3845  0.2857
 5349TIP3    H137538   0.886   1.218  11.065 -0.1873 -0.4933  0.1186
 5349TIP3    H237539   0.873   1.275  11.205 -2.1537 -0.9315  0.1287
 5350TIP3   OH237540   0.832   3.389  16.441  0.1803 -0.1098 -0.2517
 5350TIP3    H137541   0.911   3.412  16.490  0.1828  0.6357 -0.6074
 5350TIP3    H237542   0.786   3.471  16.429  0.0709 -0.3207 -1.3110
 5351TIP3   OH237543   0.514   2.763   5.379 -0.0896 -0.5548  0.0297
 5351TIP3    H137544   0.434   2.718   5.408  0.2784 -0.6945  0.8442
 5351TIP3    H237545   0.505   2.852   5.414  1.6408 -1.4892  3.0235
 5352TIP3   OH237546   3.292   3.930  17.025  0.1327 -0.4941 -0.1643
 5352TIP3    H137547   3.372   3.980  17.007 -0.3447  0.1295 -0.5497
 5352TIP3    H237548   3.284   3.931  17.121  0.0356  0.2966 -0.1828
 5353TIP3   OH237549   3.149   4.067  12.578  0.2290  0.0575 -0.0011
 5353TIP3    H137550   3.201   4.004  12.528  0.3535  0.3695 -0.2700
 5353TIP3    H237551   3.091   4.013  12.632  1.6580 -0.3137  1.1874
 5354TIP3   OH237552   5.138   0.129  13.105 -0.4605 -0.0258 -0.1090
 5354TIP3    H137553   5.076   0.155  13.174 -0.3832 -0.5637  0.1659
 5354TIP3    H237554   5.083   0.110  13.029 -0.4448  1.9786 -0.6497
 5355TIP3   OH237555   3.594   0.762   2.286 -0.6597 -0.1497 -0.3934
 5355TIP3    H137556   3.580   0.849   2.250  0.8389  0.3735  0.2208
 5355TIP3    H237557   3.688   0.745   2.273 -0.4542 -0.6938  1.5641
 5356TIP3   OH237558   1.413   4.944   5.997  0.3341  0.1170 -0.5649
 5356TIP3    H137559   1.439   4.855   6.023  1.8312  0.5939 -0.4264
 5356TIP3    H237560   1.402   4.991   6.080  2.9599  1.0201 -0.6915
 5357TIP3   OH237561   6.321   6.196  15.863 -0.1165  0.5290  0.4217
 5357TIP3    H137562   6.332   6.252  15.787  0.1116  0.6118  0.5156
 5357TIP3    H237563   6.273   6.251  15.926  0.3066  0.6936  0.5972
 5358TIP3   OH237564   0.079   6.785  10.960  0.3238 -0.1259  0.1971
 5358TIP3    H137565   0.145   6.816  10.898 -0.1780  0.9282  0.1678
 5358TIP3    H237566   0.092   6.840  11.038 -0.2463 -0.1777  0.3353
 5359TIP3   OH237567   3.290   6.003  15.004 -0.0757 -0.3912 -0.3166
 5359TIP3    H137568   3.276   5.925  14.950  1.2593 -0.4173 -0.6258
 5359TIP3    H237569   3.350   5.974  15.072 -0.4470  0.0880  0.2167
 5360TIP3   OH237570   0.536   4.264   0.059  0.3887  0.1611  0.1793
 5360TIP3    H137571   0.451   4.224   0.043  0.8345 -1.1516  1.0147
 5360TIP3    H237572   0.519   4.329   0.127  0.1182 -0.3597  0.6144
 5361TIP3   OH237573   1.849   3.455  14.494  0.7504 -0.9041 -0.2730
 5361TIP3    H137574   1.855   3.524  14.560  1.9795 -1.6943  0.4480
 5361TIP3    H237575   1.833   3.375  14.544 -0.8775 -1.1296 -1.1145
 5362TIP3   OH237576   1.526   0.916  13.336  0.0452  0.2611 -0.6244
 5362TIP3    H137577   1.618   0.892  13.322 -0.5511 -2.4758 -0.0378
 5362TIP3    H237578   1.527   0.971  13.414  0.8927 -1.8671  0.8848
 5363TIP3   OH237579   3.604   2.455   3.697 -0.3699  0.4048 -0.3151
 5363TIP3    H137580   3.519   2.434   3.735  0.9494 -0.7020  2.1653
 5363TIP3    H237581   3.638   2.371   3.665  0.8280  0.3834  0.9560
 5364TIP3   OH237582   5.492   6.046   3.050 -0.1571 -0.3916  0.0879
 5364TIP3    H137583   5.574   5.998   3.043  1.6269  2.5815 -0.0832
 5364TIP3    H237584   5.478   6.056   3.144  0.2849  0.0813  0.1051
 5365TIP3   OH237585   6.475   2.503   2.805 -0.2950 -0.6934 -0.4106
 5365TIP3    H137586   6.383   2.497   2.781 -0.2533  0.4588 -0.8649
 5365TIP3    H237587   6.522   2.515   2.723 -0.0997  2.6308  0.1250
 5366TIP3   OH237588   0.128   4.416  16.164  0.1484  0.0295  0.0338
 5366TIP3    H137589   0.218   4.442  16.187  0.1201 -0.1789  0.3879
 5366TIP3    H237590   0.098   4.486  16.106  0.8236 -0.3231 -0.7517
 5367TIP3   OH237591   4.504   6.551   2.026 -0.1966 -0.2440  0.3036
 5367TIP3    H137592   4.479   6.625   2.080 -2.2722  0.0238 -0.9986
 5367TIP3    H237593   4.516   6.479   2.088 -1.1277  0.4156  1.2499
 5368TIP3   OH237594   2.979   4.093   0.350  0.2946 -0.3408  0.6128
 5368TIP3    H137595   2.928   4.102   0.431  0.5513 -0.6980  0.8179
 5368TIP3    H237596   3.011   4.181   0.331  1.6512 -0.5586  1.8361
 5369TIP3   OH237597   0.109   5.599   0.755 -0.2233  0.1161  0.5538
 5369TIP3    H137598   0.131   5.519   0.802 -1.3287 -0.0515  0.7958
 5369TIP3    H237599   0.039   5.638   0.807 -0.0802  0.9499  0.1208
 5370TIP3   OH237600   1.231   5.340  17.261  0.4209 -0.1912  0.0219
 5370TIP3    H137601   1.271   5.260  17.226  0.1943 -0.5390  0.5503
 5370TIP3    H237602   1.259   5.409  17.201  0.9095 -0.6095 -0.2356
 5371TIP3   OH237603   1.285   3.685   2.520  0.1481  0.3644  0.1754
 5371TIP3    H137604   1.358   3.677   2.582 -0.6466 -1.1015  0.9440
 5371TIP3    H237605   1.292   3.606   2.466 -1.6090 -0.4299  1.0691
 5372TIP3   OH237606   0.098   2.231  14.477  0.2228  0.2289  0.2758
 5372TIP3    H137607   0.149   2.172  14.533 -0.6243 -0.0924  0.7090
 5372TIP3    H237608   0.161   2.262  14.412  0.8825 -0.4642  0.5755
 5373TIP3   OH237609   5.470   3.001  11.930 -0.2681  0.3883  0.7925
 5373TIP3    H137610   5.507   2.912  11.935 -2.4090 -0.7122 -1.6678
 5373TIP3    H237611   5.471   3.033  12.020  0.3644 -2.1958  1.7420
 5374TIP3   OH237612   1.438   1.109  12.162  0.2139 -0.4589 -0.3509
 5374TIP3    H137613   1.409   1.170  12.094  0.3156 -0.9435 -0.8354
 5374TIP3    H237614   1.520   1.147  12.194  0.3567 -0.4217 -0.7581
 5375TIP3   OH237615   6.497   1.935   0.533  0.5757 -0.0028 -0.0702
 5375TIP3    H137616   6.430   1.876   0.499  0.4011  0.2591 -0.1904
 5375TIP3    H237617   6.476   1.944   0.626  0.1592  0.4428 -0.2010
 5376TIP3   OH237618   3.478   3.723   3.410 -0.1963 -0.5481  0.3341
 5376TIP3    H137619   3.387   3.715   3.382 -0.4744 -0.5062  1.1942
 5376TIP3    H237620   3.481   3.677   3.495  0.0192  1.5678  1.5019
 5377TIP3   OH237621   0.632   1.223  10.650  0.6938  0.0742  0.0924
 5377TIP3    H137622   0.610   1.133  10.669  0.1508  0.6351  2.1813
 5377TIP3    H237623   0.551   1.272  10.666  1.0064  0.9442 -0.9205
 5378TIP3   OH237624   6.684   5.738   1.378 -0.2055  0.3637  0.3153
 5378TIP3    H137625   6.623   5.670   1.405 -1.1386  1.8709  2.1262
 5378TIP3    H237626   6.629   5.815   1.363  0.8314  0.7342 -1.7022
 5379TIP3   OH237627   0.369   0.189  15.340 -0.4860 -0.8466  0.2607
 5379TIP3    H137628   0.396   0.130  15.410  0.4517  1.0859  1.5323
 5379TIP3    H237629   0.443   0.248  15.327 -2.1333  1.2674  0.3000
 5380TIP3   OH237630   2.762   5.291   0.911 -0.1376  0.1315 -0.3101
 5380TIP3    H137631   2.817   5.306   0.988 -2.5521 -0.7732  1.6797
 5380TIP3    H237632   2.726   5.378   0.890  0.1869  0.3091 -0.1310
 5381TIP3   OH237633   0.500   3.897   4.881  0.3570 -0.0018  0.3034
 5381TIP3    H137634   0.572   3.955   4.906  0.0752  0.2597  0.4987
 5381TIP3    H237635   0.429   3.919   4.941  0.3375 -0.7329  0.5519
 5382TIP3   OH237636   5.665   6.751  12.703 -0.1174 -0.0613 -0.2308
 5382TIP3    H137637   5.729   6.774  12.636 -0.6514  0.1393 -0.6813
 5382TIP3    H237638   5.703   6.677  12.749 -0.0726 -0.6745 -1.2375
 5383TIP3   OH237639   4.078   5.945  15.683  0.2433 -0.4922 -0.4438
 5383TIP3    H137640   4.071   5.905  15.770 -1.6964  1.0734  0.1707
 5383TIP3    H237641   4.007   5.907  15.633  0.7321 -0.6340 -1.0362
 5384TIP3   OH237642   1.720   5.521   4.349 -0.0813 -0.3259 -0.6783
 5384TIP3    H137643   1.724   5.457   4.420  0.3281 -1.4388 -1.6846
 5384TIP3    H237644   1.692   5.602   4.391 -0.6010 -1.1621  0.6240
 5385TIP3   OH237645   2.587   2.057  11.985  0.2008  0.1133 -0.1102
 5385TIP3    H137646   2.558   2.133  11.935  0.4443  0.1137 -0.2514
 5385TIP3    H237647   2.561   2.077  12.075 -0.3875  0.0344 -0.2625
 5386TIP3   OH237648   5.619   5.512  14.889 -0.2269 -0.4835 -0.3194
 5386TIP3    H137649   5.709   5.512  14.856 -0.1197 -1.2214 -0.0294
 5386TIP3    H237650   5.565   5.516  14.810  0.0523 -0.4288 -0.5097
 5387TIP3   OH237651   5.077   0.926   0.079 -0.2591  0.5133  0.1211
 5387TIP3    H137652   5.172   0.938   0.084 -0.2907  0.8507 -0.0550
 5387TIP3    H237653   5.052   0.904   0.169 -0.0355  0.5861  0.2041
 5388TIP3   OH237654   2.046   2.109   0.532 -0.3404 -0.3425 -0.4266
 5388TIP3    H137655   1.971   2.061   0.497 -0.6179 -0.5350  0.4080
 5388TIP3    H237656   2.049   2.189   0.480 -2.2812  0.5306  0.7131
 5389TIP3   OH237657   4.823   2.047   1.109 -0.4945 -0.3086 -0.2355
 5389TIP3    H137658   4.799   2.051   1.017 -0.0401 -1.7152 -0.4370
 5389TIP3    H237659   4.888   1.976   1.114  0.1997  0.3845  1.0082
 5390TIP3   OH237660   1.199   1.283  11.084  0.4827 -0.1487 -0.2771
 5390TIP3    H137661   1.233   1.199  11.054 -0.5549 -1.6647  2.6731
 5390TIP3    H237662   1.119   1.262  11.132 -0.0204  2.5633  0.1873
 5391TIP3   OH237663   0.173   3.473  15.766 -0.2430  0.0593  0.5206
 5391TIP3    H137664   0.201   3.388  15.800 -0.4505 -0.7279 -1.2023
 5391TIP3    H237665   0.254   3.525  15.761  0.0763 -0.4392  0.4883
 5392TIP3   OH237666   3.610   6.293   5.718 -0.2215  0.4288 -0.7574
 5392TIP3    H137667   3.522   6.263   5.696 -0.3530  0.0767  0.2263
 5392TIP3    H237668   3.634   6.242   5.795  0.6205  0.9327 -0.6831
 5393TIP3   OH237669   1.633   2.998   5.037 -0.4430  0.2037 -0.1611
 5393TIP3    H137670   1.611   2.982   4.945  2.7062  2.0734 -1.2910
 5393TIP3    H237671   1.682   2.920   5.064 -1.6310 -0.4827  0.0659
 5394TIP3   OH237672   2.106   4.425   6.502 -0.3233  0.4476 -0.1181
 5394TIP3    H137673   2.023   4.383   6.484 -0.2326  0.1620  0.1236
 5394TIP3    H237674   2.169   4.353   6.507 -0.0604  0.6631 -0.3189
 5395TIP3   OH237675   3.385   3.145   1.931  0.1175  0.2596 -0.1779
 5395TIP3    H137676   3.291   3.130   1.922 -0.2832  2.7183 -0.4463
 5395TIP3    H237677   3.423   3.108   1.851 -0.2883 -2.9146  1.0071
 5396TIP3   OH237678   1.374   2.778   0.213 -0.2562 -0.0306 -0.1433
 5396TIP3    H137679   1.374   2.692   0.170  1.1336  0.3375 -0.9062
 5396TIP3    H237680   1.394   2.840   0.143 -3.8628  1.2354 -0.1267
 5397TIP3   OH237681   1.359   5.176   4.408 -0.3070  0.0265  0.0876
 5397TIP3    H137682   1.283   5.118   4.411  1.4948 -2.4802 -0.7400
 5397TIP3    H237683   1.358   5.212   4.319  0.9722 -2.2235 -0.8991
 5398TIP3   OH237684   2.898   2.952  13.346  0.1477  0.6539 -0.5812
 5398TIP3    H137685   2.916   2.972  13.438  0.3733 -0.9986 -0.2499
 5398TIP3    H237686   2.976   2.982  13.299  0.4578  0.5957 -0.1090
 5399TIP3   OH237687   0.422   6.341   2.442 -0.6832  0.2655 -0.1386
 5399TIP3    H137688   0.419   6.321   2.536 -1.8701  0.7573 -0.0542
 5399TIP3    H237689   0.485   6.412   2.435  0.1744 -0.4581  0.1506
 5400TIP3   OH237690   5.720   5.548   1.021 -0.6139  0.1007  0.6939
 5400TIP3    H137691   5.662   5.552   0.945 -1.0647  2.8882  1.1198
 5400TIP3    H237692   5.665   5.579   1.094  0.9769  1.3989  1.3682
 5401TIP3   OH237693   5.783   1.414  16.076  0.9707  0.4804 -0.0180
 5401TIP3    H137694   5.699   1.380  16.046  2.0999 -1.2193 -1.3783
 5401TIP3    H237695   5.793   1.497  16.029 -0.2611  1.0408  0.7042
 5402TIP3   OH237696   5.039   5.705   5.346  0.4389  0.1133  0.6475
 5402TIP3    H137697   4.981   5.631   5.330  0.4979 -0.0244  1.0889
 5402TIP3    H237698   5.007   5.745   5.427  0.3558  0.6194  0.3684
 5403TIP3   OH237699   0.710   3.968   4.266 -0.3404 -0.2840  0.3877
 5403TIP3    H137700   0.669   3.971   4.179 -1.4729  1.5137  0.9391
 5403TIP3    H237701   0.655   3.909   4.317 -1.4254  0.9566  0.6954
 5404TIP3   OH237702   4.196   5.136   0.353  0.6539  0.0121 -0.5534
 5404TIP3    H137703   4.136   5.063   0.341  0.5967  0.1427 -1.0863
 5404TIP3    H237704   4.192   5.156   0.446  2.2246 -2.0009 -0.0289
 5405TIP3   OH237705   0.440   5.976  11.747 -0.0387 -0.3484  0.2692
 5405TIP3    H137706   0.435   5.998  11.840 -0.0410 -0.0986  0.2088
 5405TIP3    H237707   0.511   6.030  11.713 -0.2920 -0.1535  0.0427
 5406TIP3   OH237708   6.573   0.288   5.107  0.3116  0.1513  0.3204
 5406TIP3    H137709   6.492   0.269   5.155  0.0901 -0.9684 -0.4948
 5406TIP3    H237710   6.642   0.277   5.173 -0.0845 -0.2641  0.6705
 5407TIP3   OH237711   0.837   0.870   5.047  0.0682  0.2029 -0.2460
 5407TIP3    H137712   0.798   0.794   5.005  0.1463  0.1899 -0.2952
 5407TIP3    H237713   0.863   0.839   5.134 -0.0417  0.2148 -0.2101
 5408TIP3   OH237714   6.750   3.182  12.231  0.3364  0.1939  0.2117
 5408TIP3    H137715   6.832   3.138  12.256  0.7269  1.2819  0.8633
 5408TIP3    H237716   6.772   3.275  12.231 -1.2782  0.5961  1.8316
 5409TIP3   OH237717   3.056   6.332  15.149 -0.7398 -0.1549 -0.3505
 5409TIP3    H137718   3.130   6.324  15.089 -0.3965 -1.8450  0.2743
 5409TIP3    H237719   2.980   6.336  15.091 -0.3119 -0.4009 -0.9413
 5410TIP3   OH237720   6.154   3.946  14.594 -0.1281  0.3082  0.1862
 5410TIP3    H137721   6.064   3.958  14.565 -0.3548 -2.0706 -0.1869
 5410TIP3    H237722   6.148   3.884  14.667  1.1532  0.4520  0.4310
 5411TIP3   OH237723   3.658   2.711  13.926 -0.0881  0.9488 -0.0612
 5411TIP3    H137724   3.605   2.672  13.856 -0.0314  0.1356  0.3379
 5411TIP3    H237725   3.687   2.795  13.890 -0.9758  1.0420 -0.5877
 5412TIP3   OH237726   1.589   4.447  11.077  0.7488 -0.5392 -0.0972
 5412TIP3    H137727   1.617   4.372  11.025  0.5061  0.6517 -1.9998
 5412TIP3    H237728   1.669   4.497  11.092  0.4219  0.4126 -1.4814
 5413TIP3   OH237729   1.299   0.404  15.227  0.3683 -0.0139  0.3107
 5413TIP3    H137730   1.333   0.374  15.143  0.3912  1.5431 -0.2618
 5413TIP3    H237731   1.205   0.395  15.220  0.1798  2.5499 -0.8927
 5414TIP3   OH237732   0.130   1.063   1.169  0.0025 -0.0892 -0.0516
 5414TIP3    H137733   0.119   1.158   1.180  0.3437  0.1400 -1.6164
 5414TIP3    H237734   0.218   1.053   1.133 -0.9543 -0.8211 -2.2210
 5415TIP3   OH237735   3.554   6.234  16.441  0.2060 -0.3351 -0.3868
 5415TIP3    H137736   3.571   6.328  16.453 -0.8589 -0.2160  0.2545
 5415TIP3    H237737   3.544   6.224  16.346 -1.8525  0.5950 -0.2848
 5416TIP3   OH237738   0.563   2.047   0.514  0.2720  0.5298  0.1758
 5416TIP3    H137739   0.520   2.101   0.448  0.3901 -0.6718 -0.8894
 5416TIP3    H237740   0.652   2.081   0.519  0.4844  0.1273 -0.8454
 5417TIP3   OH237741   4.092   1.810  11.818  0.3477  0.7124 -0.2363
 5417TIP3    H137742   4.183   1.790  11.799  0.6814  2.0566 -0.0985
 5417TIP3    H237743   4.095   1.870  11.892 -0.6516  0.6622 -0.1416
 5418TIP3   OH237744   3.299   1.659  14.076 -0.5620  0.4001  0.3003
 5418TIP3    H137745   3.233   1.645  14.144 -0.3280 -1.1065  0.2228
 5418TIP3    H237746   3.309   1.754  14.072 -1.0718  0.5345  1.8973
 5419TIP3   OH237747   3.172   1.355   3.220  0.6312  0.4881  0.5456
 5419TIP3    H137748   3.206   1.336   3.132 -0.1237 -0.9287  0.5388
 5419TIP3    H237749   3.245   1.337   3.278  0.5110 -0.6062  0.3672
 5420TIP3   OH237750   3.000   1.565  14.791  0.9107  0.5791  0.4978
 5420TIP3    H137751   2.967   1.512  14.718 -0.0427  0.5550  0.9337
 5420TIP3    H237752   3.087   1.529  14.810  1.1460  0.5670 -0.5968
 5421TIP3   OH237753   5.072   0.316   6.340 -0.1171 -0.8368 -0.2724
 5421TIP3    H137754   5.019   0.237   6.350 -0.9858 -0.0833  1.2923
 5421TIP3    H237755   5.162   0.286   6.356 -0.4053 -1.5591  0.0317
 5422TIP3   OH237756   6.557   3.988   1.038  0.0761  0.5762 -0.6632
 5422TIP3    H137757   6.633   3.987   1.095 -0.3188 -0.5390 -0.1406
 5422TIP3    H237758   6.575   3.921   0.972 -0.2562  0.6299 -0.8103
 5423TIP3   OH237759   4.787   6.091  16.859  1.0040  0.3466 -0.3846
 5423TIP3    H137760   4.791   6.037  16.780 -1.4521  0.9690 -0.9450
 5423TIP3    H237761   4.878   6.117  16.874  1.6395 -0.5763 -2.4379
 5424TIP3   OH237762   1.022   3.805  11.757  0.2537  0.6418 -0.0519
 5424TIP3    H137763   1.009   3.779  11.848 -1.8915 -0.1927 -0.5544
 5424TIP3    H237764   1.035   3.723  11.710  0.0908  0.9728 -0.6800
 5425TIP3   OH237765   6.040   1.812  14.638  0.0853  0.2064 -0.6767
 5425TIP3    H137766   6.061   1.905  14.647 -0.7193  0.4876 -1.5855
 5425TIP3    H237767   5.951   1.804  14.673  0.5294 -0.4100  0.3272
 5426TIP3   OH237768   0.742   5.586  12.281  0.1937  0.4222  0.3449
 5426TIP3    H137769   0.671   5.598  12.219  0.6252  1.8110  0.1033
 5426TIP3    H237770   0.821   5.587  12.226  0.5383  1.1218  0.8546
 5427TIP3   OH237771   1.290   2.104   0.699  0.2436  0.4173 -0.3215
 5427TIP3    H137772   1.249   2.171   0.645 -0.1182 -0.4188 -1.0928
 5427TIP3    H237773   1.256   2.021   0.665 -1.5990 -0.0543  2.4852
 5428TIP3   OH237774   4.651   3.748   4.878 -0.5239  0.4331 -0.4622
 5428TIP3    H137775   4.591   3.805   4.925 -0.9482 -0.5902  0.2554
 5428TIP3    H237776   4.718   3.807   4.843 -0.8280  1.3364  0.4573
 5429TIP3   OH237777   0.005   1.833  11.790 -0.1791  0.2441 -0.0820
 5429TIP3    H137778   0.053   1.828  11.707  0.3867  1.0316  0.2026
 5429TIP3    H237779   0.056   1.892  11.844 -2.3415  2.4002 -0.3467
 5430TIP3   OH237780   3.098   6.087   4.130  0.6223 -0.4127  0.4324
 5430TIP3    H137781   3.189   6.057   4.137  1.3605  2.1282  2.5246
 5430TIP3    H237782   3.092   6.127   4.044  2.0564  1.0440  0.9756
 5431TIP3   OH237783   6.311   1.517   0.586  0.1600 -0.1123 -0.3629
 5431TIP3    H137784   6.246   1.478   0.527 -2.4346  2.5868  0.6337
 5431TIP3    H237785   6.277   1.500   0.674  2.0270 -0.6981  0.2740
 5432TIP3   OH237786   4.751   1.598   3.257 -0.0466 -0.6488  0.1317
 5432TIP3    H137787   4.732   1.623   3.347 -0.5712 -1.1719  0.1678
 5432TIP3    H237788   4.696   1.656   3.204  3.3139  2.5856 -0.0510
 5433TIP3   OH237789   1.759   2.486  13.827 -0.3815 -0.0729  0.4103
 5433TIP3    H137790   1.716   2.440  13.899  0.4948 -0.9525  0.3783
 5433TIP3    H237791   1.686   2.521  13.775 -1.1041 -2.1280 -0.0197
 5434TIP3   OH237792   3.500   1.987   4.745 -0.4735  0.0751 -0.1635
 5434TIP3    H137793   3.525   1.970   4.835 -0.0903  0.3212 -0.2221
 5434TIP3    H237794   3.454   1.908   4.717 -2.8157  0.9676  1.0400
 5435TIP3   OH237795   2.243   5.822  12.198  0.3259 -0.2241 -0.3049
 5435TIP3    H137796   2.230   5.897  12.140 -0.8171 -0.7504 -0.7517
 5435TIP3    H237797   2.180   5.836  12.269  0.4801 -0.4847 -0.1171
 5436TIP3   OH237798   0.740   6.770  13.224 -0.0137 -0.4567  0.5809
 5436TIP3    H137799   0.694   6.687  13.235 -1.3954  0.4306  1.6056
 5436TIP3    H237800   0.793   6.779  13.303  1.4778 -1.1753 -0.3151
 5437TIP3   OH237801   6.550   5.597   5.208 -0.9385  0.7619 -0.0864
 5437TIP3    H137802   6.527   5.547   5.129  0.7289  2.1607 -1.4764
 5437TIP3    H237803   6.642   5.578   5.223 -1.3228  0.2452  1.7481
 5438TIP3   OH237804   5.479   2.855  16.973 -0.5947 -0.4260 -0.3519
 5438TIP3    H137805   5.521   2.783  16.927  1.3221  1.2122 -1.2598
 5438TIP3    H237806   5.485   2.830  17.066  1.4067 -0.7763 -0.5385
 5439TIP3   OH237807   0.349   1.720  15.790 -0.2567 -0.2101  0.5760
 5439TIP3    H137808   0.385   1.698  15.704  0.1033  0.3291  0.5839
 5439TIP3    H237809   0.296   1.644  15.814  0.2575 -0.6872  0.2202
 5440TIP3   OH237810   1.909   2.357   5.240  0.3997  0.3060 -0.3174
 5440TIP3    H137811   1.970   2.359   5.167 -2.2072  0.2353 -2.5697
 5440TIP3    H237812   1.908   2.266   5.269 -1.1985 -0.4372 -2.5667
 5441TIP3   OH237813   6.270   3.403   5.872 -0.2414  0.7994  0.0929
 5441TIP3    H137814   6.233   3.444   5.794  1.6151  0.5888 -0.9429
 5441TIP3    H237815   6.250   3.310   5.862 -1.1290  0.9361  0.5318
 5442TIP3   OH237816   1.616   4.794  11.295 -0.5067 -0.1676  0.9615
 5442TIP3    H137817   1.553   4.836  11.236  0.2923 -0.8360 -0.4006
 5442TIP3    H237818   1.567   4.723  11.335 -0.1340 -1.9302 -1.5792
 5443TIP3   OH237819   5.304   5.069   5.658 -0.3176  0.2792  0.2773
 5443TIP3    H137820   5.240   5.115   5.604 -1.9441 -0.8378  1.2269
 5443TIP3    H237821   5.384   5.121   5.650 -1.8275  2.6839  0.5056
 5444TIP3   OH237822   2.096   5.101   6.624 -0.6836 -0.3970 -0.7834
 5444TIP3    H137823   2.185   5.068   6.616 -0.8061 -0.4378 -2.1185
 5444TIP3    H237824   2.049   5.032   6.671 -0.3786 -1.1118 -1.5061
 5445TIP3   OH237825   4.219   5.185   5.166 -0.1400 -0.1780 -0.8404
 5445TIP3    H137826   4.300   5.204   5.213 -0.8794  0.4144  0.2017
 5445TIP3    H237827   4.234   5.219   5.078  0.5968  0.2732 -0.5460
 5446TIP3   OH237828   2.029   6.044   4.289 -0.8450  0.1238  0.0544
 5446TIP3    H137829   2.067   6.062   4.203 -1.9716 -1.0230 -0.7122
 5446TIP3    H237830   2.030   5.948   4.295 -2.6420  0.1229  0.4617
 5447TIP3   OH237831   5.459   2.472   3.795  0.0197  0.3144 -0.1270
 5447TIP3    H137832   5.371   2.437   3.797  0.3568 -0.5108  1.0245
 5447TIP3    H237833   5.483   2.481   3.888  0.2190  2.8865 -0.3827
 5448TIP3   OH237834   1.235   2.974   2.398  0.3372  0.2134  0.1022
 5448TIP3    H137835   1.239   2.896   2.453  0.4062  0.6471  0.7146
 5448TIP3    H237836   1.259   3.046   2.456 -2.3613  1.0484  0.2407
 5449TIP3   OH237837   1.349   5.757  14.966 -0.1145  0.4112 -0.2503
 5449TIP3    H137838   1.431   5.716  14.939  0.0731  0.3675  0.3837
 5449TIP3    H237839   1.300   5.686  15.008 -0.6197  0.3516 -0.9347
 5450TIP3   OH237840   4.862   5.919  14.950 -0.6446 -0.1234 -0.2876
 5450TIP3    H137841   4.815   5.852  14.999  1.2142 -0.3586  1.2461
 5450TIP3    H237842   4.913   5.870  14.885 -0.1931 -0.1111  0.0541
 5451TIP3   OH237843   2.361   3.644   3.163  0.2526  0.1282 -0.6930
 5451TIP3    H137844   2.329   3.556   3.182 -0.4160  0.0127 -2.2742
 5451TIP3    H237845   2.290   3.685   3.115 -0.5266  2.4742  2.3180
 5452TIP3   OH237846   0.325   4.006   5.032  0.1483 -0.4042 -0.6600
 5452TIP3    H137847   0.251   4.053   5.072  2.2922  1.5030  1.2183
 5452TIP3    H237848   0.318   3.917   5.067  0.0908  0.3958  1.4366
 5453TIP3   OH237849   2.420   0.888   0.276 -0.0068  0.1591 -0.0305
 5453TIP3    H137850   2.397   0.895   0.184  1.2575 -1.0333 -0.4664
 5453TIP3    H237851   2.515   0.902   0.278  0.1367 -0.8710  0.9501
 5454TIP3   OH237852   6.607   4.441  15.074 -0.2263  0.1138 -0.1555
 5454TIP3    H137853   6.679   4.492  15.038  0.5931 -0.8497  0.0762
 5454TIP3    H237854   6.528   4.485  15.043  0.4575  1.3845 -0.1332
 5455TIP3   OH237855   5.785   1.571  12.649  0.3168  0.0867  0.3522
 5455TIP3    H137856   5.730   1.636  12.606  1.3621  3.4020  3.7127
 5455TIP3    H237857   5.724   1.514  12.696 -0.5669 -0.8422 -1.8898
 5456TIP3   OH237858   2.527   5.342  14.868  0.1431  0.2820 -0.0566
 5456TIP3    H137859   2.450   5.308  14.822  0.3346  0.3751 -0.4510
 5456TIP3    H237860   2.494   5.417  14.918 -0.4613 -1.0029  1.5117
 5457TIP3   OH237861   5.836   6.125  12.423  0.3183 -0.4475  0.2452
 5457TIP3    H137862   5.760   6.171  12.387 -0.0474  1.0839  2.8401
 5457TIP3    H237863   5.799   6.046  12.463  0.1564  0.0930  1.1553
 5458TIP3   OH237864   4.672   2.994  14.831 -0.3480 -0.5739 -0.0087
 5458TIP3    H137865   4.634   2.915  14.869 -0.4784 -0.1803  0.6726
 5458TIP3    H237866   4.612   3.064  14.856 -1.3035 -0.5263 -2.2614
 5459TIP3   OH237867   1.185   5.656  16.890  0.3263 -0.6510  0.1576
 5459TIP3    H137868   1.131   5.689  16.963 -0.5984  0.3058 -0.9393
 5459TIP3    H237869   1.127   5.659  16.814  1.5638 -0.7868 -0.8055
 5460TIP3   OH237870   2.824   6.628  11.073 -0.8380  0.3533  0.1296
 5460TIP3    H137871   2.918   6.628  11.053 -0.7971  4.2950 -0.0284
 5460TIP3    H237872   2.788   6.558  11.018  1.9276 -0.9897 -0.0621
 5461TIP3   OH237873   6.642   5.786  11.713  0.3685 -0.4866  0.0154
 5461TIP3    H137874   6.729   5.824  11.726 -1.0155  2.5475  0.9650
 5461TIP3    H237875   6.627   5.733  11.791  1.6057 -1.5265 -0.4443
 5462TIP3   OH237876   5.005   6.142  13.215 -0.3971 -1.1192 -0.1212
 5462TIP3    H137877   5.025   6.157  13.308 -0.4654 -0.2385 -0.2478
 5462TIP3    H237878   5.075   6.084  13.185 -0.7080 -1.9018  0.6329
 5463TIP3   OH237879   6.086   5.307   3.393  0.3379 -0.5846  0.2608
 5463TIP3    H137880   6.161   5.296   3.335 -0.1116 -1.3689 -0.1776
 5463TIP3    H237881   6.028   5.367   3.347 -0.0388 -1.2417 -0.1158
 5464TIP3   OH237882   2.391   2.506  12.871  0.5612 -0.1206  0.0379
 5464TIP3    H137883   2.328   2.520  12.801  0.7713  0.2260 -0.0861
 5464TIP3    H237884   2.368   2.571  12.938  0.4902 -0.3109  0.1972
 5465TIP3   OH237885   5.245   0.996   3.958  0.0377  0.0222  0.5884
 5465TIP3    H137886   5.317   0.934   3.947 -0.2509 -0.3197  0.6496
 5465TIP3    H237887   5.287   1.074   3.994  0.8297  0.8079 -1.9467
 5466TIP3   OH237888   5.764   0.426   0.658  0.3817 -0.1345  0.2002
 5466TIP3    H137889   5.801   0.344   0.624  0.1557 -0.7474  1.3925
 5466TIP3    H237890   5.694   0.398   0.717  0.1879  0.9299  0.4858
 5467TIP3   OH237891   2.098   0.721  16.666 -0.3800 -0.2967  0.0900
 5467TIP3    H137892   2.192   0.705  16.660 -0.4726 -0.3728 -1.3989
 5467TIP3    H237893   2.080   0.724  16.760  1.5139  2.1182  0.4196
 5468TIP3   OH237894   3.778   4.737   2.875  0.2750 -0.0814 -0.4691
 5468TIP3    H137895   3.793   4.830   2.858  1.4558  0.1266  1.5057
 5468TIP3    H237896   3.710   4.711   2.813  1.7654  1.4615 -2.8010
 5469TIP3   OH237897   5.659   0.737   4.094 -0.2733 -0.2315  0.5878
 5469TIP3    H137898   5.640   0.647   4.067  1.7923 -0.2518 -0.9480
 5469TIP3    H237899   5.738   0.760   4.044  0.1512  1.8674  2.1812
 5470TIP3   OH237900   4.596   5.012  12.145  0.0327 -0.5227 -0.2022
 5470TIP3    H137901   4.621   5.072  12.075  0.5775  0.0581  0.4880
 5470TIP3    H237902   4.527   5.058  12.192 -1.2638 -1.4632 -1.1426
 5471TIP3   OH237903   1.847   2.644  10.868 -0.2326 -0.5891 -0.4233
 5471TIP3    H137904   1.764   2.598  10.854  0.0887 -1.6009  0.9172
 5471TIP3    H237905   1.822   2.735  10.878 -1.1196 -0.7919 -0.7236
 5472TIP3   OH237906   1.273   4.310   6.170 -0.0113  0.3412 -0.1270
 5472TIP3    H137907   1.208   4.240   6.181  0.0301 -0.0131 -1.9881
 5472TIP3    H237908   1.354   4.263   6.149  0.8306  0.7918  1.9066
 5473TIP3   OH237909   5.270   4.787   5.242  0.2972 -0.5874 -0.7253
 5473TIP3    H137910   5.355   4.796   5.286 -0.5347  3.0390  0.2928
 5473TIP3    H237911   5.215   4.740   5.305  0.8537 -0.8307 -0.4180
 5474TIP3   OH237912   1.946   1.635   2.591 -0.2141  0.7235 -0.1393
 5474TIP3    H137913   1.958   1.721   2.631 -1.8604  0.3496  1.2329
 5474TIP3    H237914   1.932   1.576   2.665 -2.4427 -0.1286 -1.2012
 5475TIP3   OH237915   1.020   1.248  16.540 -0.2003 -0.3592  0.3084
 5475TIP3    H137916   1.080   1.322  16.552 -0.0390 -0.3136 -0.7602
 5475TIP3    H237917   1.077   1.172  16.535 -0.0264 -0.0802 -3.0069
 5476TIP3   OH237918   4.193   2.274  12.028  0.0186  0.4719  0.4262
 5476TIP3    H137919   4.143   2.259  11.948 -0.1496 -1.5468  0.8782
 5476TIP3    H237920   4.189   2.368  12.041 -1.4220  0.6385 -0.9967
 5477TIP3   OH237921   2.571   1.482  16.398 -0.3539  0.2090  0.1221
 5477TIP3    H137922   2.639   1.439  16.345  0.5451  1.3420  0.3314
 5477TIP3    H237923   2.568   1.431  16.479 -2.3220 -2.0460 -1.2880
 5478TIP3   OH237924   6.202   5.581   0.521 -0.6453 -0.1569 -0.2404
 5478TIP3    H137925   6.172   5.542   0.438  1.9961 -1.1460 -0.7710
 5478TIP3    H237926   6.261   5.515   0.558 -0.3113  1.1014  1.5004
 5479TIP3   OH237927   6.433   5.081  14.086  0.3295  0.1026  0.0188
 5479TIP3    H137928   6.423   5.076  13.991  0.0553 -0.2380  0.0651
 5479TIP3    H237929   6.521   5.046  14.103 -0.7002 -2.5484  0.1329
 5480TIP3   OH237930   5.340   0.591   4.109  0.5825 -0.4408  0.2881
 5480TIP3    H137931   5.384   0.542   4.179 -0.5642 -0.4143  1.0347
 5480TIP3    H237932   5.289   0.658   4.155  0.7707  0.3416 -0.6394
 5481TIP3   OH237933   5.411   2.382  15.869  0.8325  0.2005 -0.6623
 5481TIP3    H137934   5.347   2.452  15.885  0.0965  0.1218 -3.0926
 5481TIP3    H237935   5.371   2.304  15.908  0.9284  0.7721  0.6343
 5482TIP3   OH237936   4.065   3.968  12.429 -0.0490 -0.4350 -1.3146
 5482TIP3    H137937   4.155   3.971  12.463 -0.8514  0.8466  0.8214
 5482TIP3    H237938   4.066   4.030  12.356  0.1815  1.6819  0.4118
 5483TIP3   OH237939   4.680   3.039   5.635  0.4441 -0.3768 -0.8225
 5483TIP3    H137940   4.611   2.973   5.629 -0.3714  0.3439  0.3927
 5483TIP3    H237941   4.753   2.993   5.677 -0.0718 -0.5590 -0.1114
 5484TIP3   OH237942   3.639   2.786  15.144  0.5207 -0.1475  0.2325
 5484TIP3    H137943   3.617   2.878  15.159  0.9250 -0.0024 -0.0718
 5484TIP3    H237944   3.571   2.754  15.084  1.3116  0.3856 -0.9581
 5485TIP3   OH237945   3.198   4.610   3.774  0.4657 -0.0594 -0.1914
 5485TIP3    H137946   3.273   4.600   3.715  0.3800 -2.3547  0.0526
 5485TIP3    H237947   3.196   4.529   3.825 -2.8555 -0.5844 -1.0094
 5486TIP3   OH237948   5.276   5.816   1.955  0.3742 -0.0280 -0.4952
 5486TIP3    H137949   5.217   5.889   1.974  1.2667  0.4152  0.6108
 5486TIP3    H237950   5.281   5.814   1.859 -0.5274  0.6486 -0.5680
 5487TIP3   OH237951   6.512   1.530  12.912 -0.3232 -0.2288  1.0582
 5487TIP3    H137952   6.457   1.554  12.986  0.4951 -0.9216  1.9065
 5487TIP3    H237953   6.600   1.556  12.939 -0.2271  0.9843 -0.3276
 5488TIP3   OH237954   5.080   1.572  11.122  0.0325 -0.6531  0.8615
 5488TIP3    H137955   5.153   1.628  11.151 -3.5201  3.7553  1.9115
 5488TIP3    H237956   5.068   1.596  11.030  0.5557 -2.1886  0.3812
 5489TIP3   OH237957   1.210   5.107   3.626  0.4206  0.2088 -0.6264
 5489TIP3    H137958   1.256   5.032   3.665  0.8329 -0.3560 -2.1867
 5489TIP3    H237959   1.279   5.159   3.584  0.0289  1.0251 -0.2799
 5490TIP3   OH237960   2.871   4.129   1.839  0.2001  0.7519 -0.6440
 5490TIP3    H137961   2.806   4.059   1.837 -0.6731  1.5298 -0.0772
 5490TIP3    H237962   2.877   4.154   1.932  1.2923  0.6975 -0.6976
 5491TIP3   OH237963   3.619   6.535   3.586  0.1953  0.4241 -0.0798
 5491TIP3    H137964   3.678   6.509   3.657 -1.0388 -1.9866  0.1146
 5491TIP3    H237965   3.677   6.555   3.512  1.3478  0.3563  0.8023
 5492TIP3   OH237966   4.632   0.754   3.204 -0.7513  0.2474  0.2364
 5492TIP3    H137967   4.665   0.667   3.179 -2.1145 -0.4605  0.8608
 5492TIP3    H237968   4.686   0.778   3.280  0.5734  0.5740 -0.7877
 5493TIP3   OH237969   0.721   3.731   2.955 -0.3374 -0.1855  0.1589
 5493TIP3    H137970   0.808   3.770   2.953 -0.1204 -0.7174 -0.9928
 5493TIP3    H237971   0.665   3.799   2.992  0.2601  0.7475 -0.6545
 5494TIP3   OH237972   6.022   1.384   5.555  0.2480 -0.1490 -0.5179
 5494TIP3    H137973   6.094   1.447   5.544  0.2979  0.0116  0.6426
 5494TIP3    H237974   6.065   1.303   5.582 -0.1320  0.4814  2.1246
 5495TIP3   OH237975   2.772   4.105  13.696  0.2289  0.1138 -0.0626
 5495TIP3    H137976   2.776   4.109  13.792 -2.4326  0.7664  0.0543
 5495TIP3    H237977   2.796   4.015  13.675  0.6622 -0.0886  1.2416
 5496TIP3   OH237978   4.292   5.358  11.989 -0.3010  0.1318  0.5086
 5496TIP3    H137979   4.243   5.280  12.011  2.1814 -2.1284 -1.5887
 5496TIP3    H237980   4.343   5.378  12.067 -0.1653 -0.9622  0.6986
 5497TIP3   OH237981   4.640   6.252   4.252  0.1910 -0.2176 -0.1228
 5497TIP3    H137982   4.608   6.334   4.215  1.7108  0.1297 -0.7233
 5497TIP3    H237983   4.592   6.242   4.334 -0.6096  0.8371 -0.4472
 5498TIP3   OH237984   0.300   0.760  13.656 -0.1612 -0.0884  0.4027
 5498TIP3    H137985   0.253   0.691  13.702  0.4377 -0.7739  0.0078
 5498TIP3    H237986   0.347   0.808  13.724 -2.5444  1.5264  0.9885
 5499TIP3   OH237987   1.085   0.257   2.343 -0.3708 -0.1027  0.5125
 5499TIP3    H137988   1.175   0.227   2.329 -0.2994 -0.3469  1.4485
 5499TIP3    H237989   1.091   0.352   2.343 -0.3960 -0.0837 -1.1909
 5500TIP3   OH237990   3.406   5.321  15.131 -0.5129 -0.2271 -0.0793
 5500TIP3    H137991   3.404   5.274  15.215  0.2625 -0.0407  0.0450
 5500TIP3    H237992   3.499   5.337  15.115 -0.7813  1.5632  0.0377
 5501TIP3   OH237993   3.064   1.778   1.871  0.1123  0.2287  0.3483
 5501TIP3    H137994   3.156   1.796   1.887 -0.1484 -0.0661  2.2635
 5501TIP3    H237995   3.017   1.843   1.922 -0.7426 -0.1938  0.1091
 5502TIP3   OH237996   2.379   3.016  15.569  0.2227 -0.1155  0.2692
 5502TIP3    H137997   2.328   2.938  15.590 -1.2507  1.1587  1.5188
 5502TIP3    H237998   2.335   3.054  15.493  0.6443 -0.2089 -0.0258
 5503TIP3   OH237999   0.317   0.633  14.528  0.0560 -0.2672 -0.5980
 5503TIP3    H138000   0.334   0.680  14.610 -0.4383 -1.7859  0.4113
 5503TIP3    H238001   0.404   0.611  14.494  0.2582 -0.8746  0.2849
 5504TIP3   OH238002   0.935   4.441   1.096  0.6165  0.3290 -0.4944
 5504TIP3    H138003   1.015   4.412   1.141  0.0808 -1.0708 -0.4153
 5504TIP3    H238004   0.932   4.387   1.016 -1.0317 -0.6928  0.2382
 5505TIP3   OH238005   4.194   3.344  12.672 -0.3282 -0.2641  0.8354
 5505TIP3    H138006   4.167   3.299  12.752  0.3524 -0.6291  0.8660
 5505TIP3    H238007   4.216   3.432  12.701 -2.2227  0.2693  0.6799
 5506TIP3   OH238008   0.080   3.915  14.470  0.2219 -0.5656 -0.3431
 5506TIP3    H138009   0.108   3.824  14.479  0.1176 -0.5646  0.0260
 5506TIP3    H238010  -0.015   3.909  14.457  0.4389 -0.5920 -2.0565
 5507TIP3   OH238011   6.370   3.626   1.528 -0.0175 -0.0921 -0.0829
 5507TIP3    H138012   6.322   3.698   1.487  1.0905  0.0309 -1.1603
 5507TIP3    H238013   6.462   3.651   1.523  0.2083 -0.4078  1.8243
 5508TIP3   OH238014   4.913   2.569   5.413 -0.0908 -0.2909  0.0769
 5508TIP3    H138015   4.871   2.504   5.356  1.1924 -0.2093 -0.9980
 5508TIP3    H238016   4.856   2.646   5.407  0.1384 -0.2140 -1.2771
 5509TIP3   OH238017   4.281   5.824  11.770  0.0930  0.4592 -0.1724
 5509TIP3    H138018   4.235   5.907  11.755  0.2202  0.5077 -0.2916
 5509TIP3    H238019   4.306   5.827  11.863  2.2377  1.6373 -0.7506
 5510TIP3   OH238020   0.540   5.455   4.764 -0.3619 -0.2008 -0.2620
 5510TIP3    H138021   0.539   5.360   4.750 -1.9903 -0.3984  0.9931
 5510TIP3    H238022   0.622   5.472   4.811  0.4596 -0.8267 -1.4506
 5511TIP3   OH238023   0.825   1.268  10.838 -0.2613 -0.0764 -0.1859
 5511TIP3    H138024   0.835   1.363  10.850  1.8734 -0.3446  0.4039
 5511TIP3    H238025   0.780   1.259  10.754  0.5601  1.4429 -0.8082
 5512TIP3   OH238026   3.583   2.753  16.472 -0.0041  0.0117 -0.1031
 5512TIP3    H138027   3.615   2.843  16.457  0.2232  0.0277  0.4686
 5512TIP3    H238028   3.526   2.760  16.548  0.1134 -0.3522  0.0179
 5513TIP3   OH238029   5.468   6.562   0.435  0.3296  0.0216  0.1720
 5513TIP3    H138030   5.520   6.500   0.384  1.0683 -0.0798  1.0350
 5513TIP3    H238031   5.473   6.529   0.525 -0.0830  0.7823  0.4810
 5514TIP3   OH238032   6.328   2.602  15.390 -0.2320  0.6115 -0.2179
 5514TIP3    H138033   6.247   2.567  15.427 -0.5235  1.8438  0.3464
 5514TIP3    H238034   6.396   2.542  15.421 -0.9527 -0.6119 -0.9575
 5515TIP3   OH238035   1.900   5.005  17.099 -0.4106 -0.6131  0.1376
 5515TIP3    H138036   1.906   5.095  17.132 -2.1268 -0.0159 -1.0872
 5515TIP3    H238037   1.991   4.979  17.084  0.0508  1.5336 -1.0526
 5516TIP3   OH238038   2.673   2.102   2.774  0.0642  0.0840  0.1943
 5516TIP3    H138039   2.585   2.114   2.808  0.0502 -0.4831  0.3651
 5516TIP3    H238040   2.676   2.156   2.695 -0.8129 -0.7908 -0.4552
 5517TIP3   OH238041   1.851   1.535   0.768  0.4269  0.0979  0.4140
 5517TIP3    H138042   1.907   1.585   0.826 -1.2102  0.5521  1.6460
 5517TIP3    H238043   1.811   1.601   0.711 -0.5641  0.0456  1.0341
 5518TIP3   OH238044   0.430   6.809   4.321  0.0478 -0.1724 -0.2301
 5518TIP3    H138045   0.516   6.768   4.316 -0.1960 -0.8339  0.8589
 5518TIP3    H238046   0.368   6.737   4.310 -0.3709  0.1333  0.1088
 5519TIP3   OH238047   0.076   6.253  15.012  0.1801 -0.1457 -0.3737
 5519TIP3    H138048   0.033   6.196  14.948 -0.7770 -0.8422  0.8884
 5519TIP3    H238049   0.039   6.228  15.096  1.0360  1.1475  0.4049
 5520TIP3   OH238050   4.851   2.454  10.683 -0.2518  0.3362  0.0452
 5520TIP3    H138051   4.804   2.379  10.719 -1.1671  1.1075  0.4798
 5520TIP3    H238052   4.789   2.496  10.623  0.7109 -0.0137 -1.2123
 5521TIP3   OH238053   3.706   4.366  12.158 -0.3904  0.0897  0.3414
 5521TIP3    H138054   3.616   4.362  12.191 -0.5562  0.2523 -0.0991
 5521TIP3    H238055   3.740   4.278  12.172 -0.4215  0.1876  1.0691
 5522TIP3   OH238056   0.381   4.212   2.253  0.0002  0.6492 -0.1931
 5522TIP3    H138057   0.417   4.288   2.298  0.9388 -0.0693  0.2900
 5522TIP3    H238058   0.334   4.248   2.178  2.2185  1.5699 -1.1702
 5523TIP3   OH238059   6.051   4.781  14.076  0.1560  0.3427 -0.3474
 5523TIP3    H138060   6.031   4.791  13.983  0.5489  2.4975 -0.2343
 5523TIP3    H238061   6.077   4.869  14.105  1.3105 -0.5582  1.4981
 5524TIP3   OH238062   1.075   3.935  16.043  0.1950 -0.0370 -0.4095
 5524TIP3    H138063   1.088   3.958  16.135  2.3354  1.0836 -0.9593
 5524TIP3    H238064   1.036   4.014  16.005 -1.6021 -0.8395 -0.2910
 5525TIP3   OH238065   3.872   5.081  15.247 -0.6317 -0.5274 -0.3822
 5525TIP3    H138066   3.871   5.161  15.299 -0.2419  0.1944 -1.4649
 5525TIP3    H238067   3.783   5.047  15.251 -1.0422  0.4964 -0.7231
 5526TIP3   OH238068   1.597   4.207   6.171  0.2700 -0.4479  0.3978
 5526TIP3    H138069   1.591   4.116   6.200 -2.0914  0.1140  1.8076
 5526TIP3    H238070   1.618   4.256   6.251  0.5345  0.3665 -0.1681
 5527TIP3   OH238071   1.710   3.818   2.775  0.4324 -0.5701 -0.5163
 5527TIP3    H138072   1.784   3.803   2.835  0.5232  0.0208 -0.4772
 5527TIP3    H238073   1.727   3.905   2.738  0.3296 -0.8992 -1.3399
 5528TIP3   OH238074   6.203   6.719   2.456 -0.6015 -0.0403  0.5368
 5528TIP3    H138075   6.193   6.789   2.520  0.6220  0.4314  0.2288
 5528TIP3    H238076   6.235   6.644   2.507 -1.0823 -0.1267  0.7183
 5529TIP3   OH238077   1.719   1.242  13.509  0.1529  0.1922 -0.1692
 5529TIP3    H138078   1.650   1.181  13.534 -0.2363  0.4480 -0.5930
 5529TIP3    H238079   1.740   1.290  13.589  0.2804 -0.3213  0.1032
 5530TIP3   OH238080   0.312   6.059   2.358  0.4523  0.4788  0.2120
 5530TIP3    H138081   0.334   6.136   2.411  0.5878 -0.3639  1.3970
 5530TIP3    H238082   0.236   6.086   2.307 -0.9333  0.6853  2.3094
 5531TIP3   OH238083   1.529   1.448   1.759  0.0021 -0.0751 -0.1393
 5531TIP3    H138084   1.465   1.387   1.723 -0.6274  1.5933 -1.9809
 5531TIP3    H238085   1.609   1.397   1.768 -0.2908 -0.9963 -2.3979
 5532TIP3   OH238086   3.612   4.698   3.231 -0.0562 -0.6779 -0.0578
 5532TIP3    H138087   3.657   4.632   3.179  0.1770 -1.0021  0.5450
 5532TIP3    H238088   3.674   4.720   3.301 -0.1034  0.2289 -0.2975
 5533TIP3   OH238089   3.458   2.214  16.523 -0.1513  0.2416 -0.3464
 5533TIP3    H138090   3.445   2.305  16.495 -0.8191 -0.2255 -1.5725
 5533TIP3    H238091   3.369   2.180  16.536  0.0976 -0.2204  0.1805
 5534TIP3   OH238092   5.320   2.674  13.728  0.0832 -0.2094  0.2914
 5534TIP3    H138093   5.367   2.757  13.738  1.2104 -1.0187  2.0299
 5534TIP3    H238094   5.228   2.698  13.738  0.2340  1.1197 -1.2832
 5535TIP3   OH238095   1.086   1.636  13.722  0.3041 -0.3693 -0.6237
 5535TIP3    H138096   1.112   1.728  13.722  0.5775 -0.4420 -1.7549
 5535TIP3    H238097   1.054   1.620  13.633  2.6273 -2.0304 -1.1952
 5536TIP3   OH238098   2.617   2.936   5.313  0.4071 -0.2394  0.1081
 5536TIP3    H138099   2.622   2.984   5.231 -0.6616 -0.9681 -0.3923
 5536TIP3    H238100   2.524   2.916   5.324  0.8353 -2.2770  0.2495
 5537TIP3   OH238101   4.809   2.839   4.164  0.5770  0.2965  0.5022
 5537TIP3    H138102   4.778   2.835   4.073  0.1813 -0.8820  0.6843
 5537TIP3    H238103   4.729   2.845   4.216  0.7441 -0.3073  0.8368
 5538TIP3   OH238104   4.015   4.131  12.937  0.2379 -0.8691 -0.2896
 5538TIP3    H138105   4.035   4.158  12.847  1.5073  0.7539  0.4633
 5538TIP3    H238106   3.976   4.209  12.977  1.5252 -0.9376  1.1490
 5539TIP3   OH238107   0.116   6.689  14.133  0.4044 -0.5271 -0.0449
 5539TIP3    H138108   0.024   6.667  14.124  0.3704 -0.7824  0.8990
 5539TIP3    H238109   0.137   6.669  14.224  1.1866  0.2939 -0.0329
 5540TIP3   OH238110   6.469   4.785   0.242 -0.5880  0.0630 -0.4918
 5540TIP3    H138111   6.404   4.852   0.222 -0.4554  0.2259 -0.3847
 5540TIP3    H238112   6.419   4.706   0.258 -0.8677  0.6035  1.3348
 5541TIP3   OH238113   5.771   4.779   3.095  0.1032 -0.3867  0.0741
 5541TIP3    H138114   5.711   4.706   3.078  0.0297 -0.7877  1.8844
 5541TIP3    H238115   5.857   4.746   3.068 -0.3410 -0.1796 -1.5863
 5542TIP3   OH238116   5.157   0.271  17.063 -0.5926 -0.1513 -0.0657
 5542TIP3    H138117   5.226   0.300  17.004 -1.5972  0.9170 -0.7205
 5542TIP3    H238118   5.183   0.305  17.149  1.0868 -2.0660  0.2274
 5543TIP3   OH238119   3.795   2.789   3.948  0.3093  0.5121 -0.0966
 5543TIP3    H138120   3.814   2.724   3.880  0.4548  1.8242 -1.3456
 5543TIP3    H238121   3.775   2.737   4.026  2.6475 -1.0125 -0.4457
 5544TIP3   OH238122   0.163   4.424  12.302 -0.4084 -0.5394  0.2972
 5544TIP3    H138123   0.135   4.366  12.231 -3.2283 -0.9982  1.7050
 5544TIP3    H238124   0.115   4.505  12.288  0.5017  0.0692  0.5997
 5545TIP3   OH238125   1.901   1.648   0.445 -0.0231  0.5019 -0.4910
 5545TIP3    H138126   1.881   1.713   0.377  1.1755  1.3865 -0.0284
 5545TIP3    H238127   1.831   1.658   0.509 -2.1970 -1.6442 -2.4894
 5546TIP3   OH238128   5.076   6.165   3.032 -0.0032  0.4916 -0.2192
 5546TIP3    H138129   5.121   6.220   3.096  2.5214 -1.2916 -0.3919
 5546TIP3    H238130   5.140   6.154   2.961 -1.7353  0.1337 -1.7431
 5547TIP3   OH238131   4.793   1.255  16.093 -0.2570 -0.1996  0.0196
 5547TIP3    H138132   4.775   1.343  16.126 -1.2981 -1.0431  1.8048
 5547TIP3    H238133   4.806   1.267  15.999 -0.7752  1.8083  0.1720
 5548TIP3   OH238134   5.299   2.602  16.023  0.2658 -0.0770  1.2396
 5548TIP3    H138135   5.298   2.697  16.026  1.4007 -0.0348  0.4683
 5548TIP3    H238136   5.210   2.576  16.049 -1.7763  1.3127 -3.7508
 5549TIP3   OH238137   3.425   4.007  16.175  0.4837 -0.1743 -0.2109
 5549TIP3    H138138   3.348   3.974  16.222  0.0741  0.0907 -0.6891
 5549TIP3    H238139   3.407   4.101  16.163  1.1279 -0.0008  0.1481
 5550TIP3   OH238140   3.507   5.013   2.750 -0.0943  0.2926  0.4161
 5550TIP3    H138141   3.578   5.019   2.814 -1.3276 -0.8456  1.9148
 5550TIP3    H238142   3.467   4.927   2.766 -2.5046  1.3630  0.3300
 5551TIP3   OH238143   6.104   3.361   3.136  0.8216 -0.3859 -0.1400
 5551TIP3    H138144   6.140   3.323   3.056  0.3141  0.5558 -0.8338
 5551TIP3    H238145   6.152   3.444   3.146  1.1881 -0.7061  0.7741
 5552TIP3   OH238146   4.959   2.558  11.407 -0.0493 -0.6706  0.3242
 5552TIP3    H138147   4.964   2.652  11.426  0.4992 -0.1302 -2.3978
 5552TIP3    H238148   4.867   2.543  11.383  0.3042 -0.4188 -1.2291
 5553TIP3   OH238149   3.498   0.786  12.348 -0.4463  0.3423 -0.0886
 5553TIP3    H138150   3.451   0.834  12.279 -2.4032  0.7750  1.4914
 5553TIP3    H238151   3.477   0.834  12.428  1.1365 -0.6300  0.9215
 5554TIP3   OH238152   1.963   4.989   2.406 -0.0859  0.2390 -0.0263
 5554TIP3    H138153   2.041   4.933   2.402 -0.0716  0.3121 -0.8161
 5554TIP3    H238154   1.910   4.951   2.476  0.7321  0.2831  0.6210
 5555TIP3   OH238155   5.750   6.352   2.506 -1.0735  0.2058  0.2079
 5555TIP3    H138156   5.792   6.266   2.503  0.6957  1.0489  0.7504
 5555TIP3    H238157   5.796   6.404   2.440  0.8680  2.0726  2.9640
 5556TIP3   OH238158   2.976   5.562  14.002 -0.1227 -0.3801 -0.3184
 5556TIP3    H138159   2.942   5.614  13.929 -0.8204 -0.2644  0.0916
 5556TIP3    H238160   3.000   5.479  13.962 -0.0405 -0.1401 -0.7746
 5557TIP3   OH238161   3.018   4.830  16.586  0.2990  0.3131 -0.2062
 5557TIP3    H138162   3.052   4.804  16.500 -1.8342  0.0528 -0.9994
 5557TIP3    H238163   2.924   4.817  16.579  0.1960 -0.6822  2.5328
 5558TIP3   OH238164   5.960   4.025  15.305 -0.2698  0.0424  0.1987
 5558TIP3    H138165   6.002   3.942  15.328  0.9901  0.7719  0.5704
 5558TIP3    H238166   5.944   4.019  15.211 -1.1238 -1.0348  0.4038
 5559TIP3   OH238167   0.582   0.597  12.310 -0.4556  0.0440 -0.5686
 5559TIP3    H138168   0.671   0.568  12.333 -1.1464  0.1470  2.2758
 5559TIP3    H238169   0.596   0.673  12.253  1.2699 -0.3907 -0.7620
 5560TIP3   OH238170   0.403   5.809  14.498  0.0335  0.1707 -0.0556
 5560TIP3    H138171   0.487   5.780  14.535  0.4356  0.5115 -0.6991
 5560TIP3    H238172   0.337   5.760  14.548  0.6840 -1.5049 -0.7949
 5561TIP3   OH238173   2.614   3.239  16.314  0.7513 -0.3351  0.2355
 5561TIP3    H138174   2.549   3.260  16.381  0.5679 -1.1584  0.3128
 5561TIP3    H238175   2.562   3.215  16.237  0.9606 -0.8550  0.2562
 5562TIP3   OH238176   3.967   1.750   1.502  0.3327  0.2817  0.2742
 5562TIP3    H138177   3.948   1.768   1.594  0.0278  1.1677  0.0428
 5562TIP3    H238178   4.063   1.756   1.495  0.2848  1.2055  0.3366
 5563TIP3   OH238179   1.871   2.630  14.396  0.1139  0.1658 -0.2259
 5563TIP3    H138180   1.782   2.596  14.402 -0.0323  0.6772  0.7617
 5563TIP3    H238181   1.919   2.565  14.347 -0.6055 -0.5419 -0.0016
 5564TIP3   OH238182   4.996   3.650  15.726  0.4204  0.9929  0.1003
 5564TIP3    H138183   4.986   3.559  15.753  0.2751  1.1078  0.4383
 5564TIP3    H238184   5.090   3.667  15.732  0.4426  0.8746  0.0770
 5565TIP3   OH238185   5.045   4.975  16.538 -0.1733  0.1249  0.3154
 5565TIP3    H138186   5.068   4.889  16.574  0.9852 -0.8859 -2.6754
 5565TIP3    H238187   4.956   4.964  16.504 -0.4544  0.4495  0.9390
 5566TIP3   OH238188   5.644   2.956   4.587  0.1279  0.1067  0.0219
 5566TIP3    H138189   5.722   2.952   4.533 -0.6697  0.5081 -1.1810
 5566TIP3    H238190   5.676   2.980   4.674  1.5644 -1.8632  0.0788
 5567TIP3   OH238191   0.817   1.901  15.920  0.1237  0.0016  0.1716
 5567TIP3    H138192   0.861   1.957  15.856  0.1825 -2.6415 -2.1441
 5567TIP3    H238193   0.728   1.935  15.924 -0.0566 -0.2085 -1.7948
 5568TIP3   OH238194   4.272   6.473   0.747 -0.7171  0.2954  0.3917
 5568TIP3    H138195   4.238   6.446   0.661 -1.3782 -0.9059  1.0269
 5568TIP3    H238196   4.205   6.447   0.809  0.6369 -0.6740  1.4914
 5569TIP3   OH238197   2.922   2.306  16.443  0.6705  0.4350 -0.3971
 5569TIP3    H138198   2.868   2.228  16.434 -0.6944  1.1103  1.6274
 5569TIP3    H238199   2.890   2.365  16.375  0.0372  0.1739 -0.3342
 5570TIP3   OH238200   0.935   1.911  16.722  0.0088  0.0953 -0.6074
 5570TIP3    H138201   0.905   1.997  16.752  0.1028 -0.2161  0.4004
 5570TIP3    H238202   0.856   1.869  16.687 -0.6718 -0.5435  1.6157
 5571TIP3   OH238203   1.581   6.236  12.631  0.5192  0.0301  0.5870
 5571TIP3    H138204   1.525   6.309  12.605  0.1297 -1.1274 -2.0425
 5571TIP3    H238205   1.519   6.166  12.652  0.9226 -0.6656 -0.5022
 5572TIP3   OH238206   3.100   1.758  12.125  0.1978 -0.5525 -0.9827
 5572TIP3    H138207   3.048   1.719  12.196 -1.0443  1.4819 -0.7187
 5572TIP3    H238208   3.132   1.683  12.075 -0.7600 -1.9550  0.4361
 5573TIP3   OH238209   6.666   2.187   2.952 -0.5835  0.4916 -0.3600
 5573TIP3    H138210   6.736   2.121   2.948 -1.7078 -0.7349 -0.2516
 5573TIP3    H238211   6.667   2.216   3.043 -1.7938 -1.3010  0.2543
 5574TIP3   OH238212   2.837   0.047  11.853 -0.1331 -0.1074  0.4903
 5574TIP3    H138213   2.906   0.113  11.860 -0.7155  0.2990  2.7677
 5574TIP3    H238214   2.864  -0.023  11.913 -0.2958 -1.2603 -0.7448
 5575TIP3   OH238215   1.989   6.166   3.533 -0.0717  0.6378  0.2927
 5575TIP3    H138216   1.936   6.098   3.492  0.5568 -0.9599  2.0230
 5575TIP3    H238217   1.954   6.248   3.499 -2.0601 -0.4770 -0.4301
 5576TIP3   OH238218   0.714   1.759   6.221  0.1183  0.4990 -0.0473
 5576TIP3    H138219   0.765   1.779   6.300  0.3884  1.0781 -0.3695
 5576TIP3    H238220   0.763   1.800   6.150  0.0267 -0.2712 -0.5549
 5577TIP3   OH238221   3.660   2.222   0.962  0.5637 -0.0661 -0.5012
 5577TIP3    H138222   3.621   2.137   0.982 -0.0275 -0.4011 -2.9769
 5577TIP3    H238223   3.751   2.202   0.940  1.2990  0.3388  1.9811
 5578TIP3   OH238224   1.626   3.283  14.591  0.4764  0.4732  0.2204
 5578TIP3    H138225   1.692   3.321  14.649  0.6874 -0.1034  0.3500
 5578TIP3    H238226   1.547   3.280  14.645  0.7794 -0.4662  0.6172
 5579TIP3   OH238227   5.527   3.339   6.430 -0.1855 -0.2233 -0.2242
 5579TIP3    H138228   5.516   3.294   6.514 -2.6194  0.5953 -0.0541
 5579TIP3    H238229   5.441   3.379   6.413  0.8232  1.1865 -2.1906
 5580TIP3   OH238230   1.474   4.738   1.446 -0.2085  0.1286 -0.3811
 5580TIP3    H138231   1.417   4.665   1.423  1.5601 -1.1940 -0.7134
 5580TIP3    H238232   1.557   4.719   1.402  1.1538  0.9070  1.7301
 5581TIP3   OH238233   1.834   0.961  12.500 -0.0429  0.1090 -0.8226
 5581TIP3    H138234   1.750   0.937  12.462 -0.6735  0.4469  0.3303
 5581TIP3    H238235   1.840   1.056  12.488 -0.8859  0.4415  1.1100
 5582TIP3   OH238236   2.620   0.727  13.649 -0.3358  0.4175  0.0612
 5582TIP3    H138237   2.702   0.772  13.629  0.1884 -1.3994 -2.1662
 5582TIP3    H238238   2.647   0.641  13.682 -1.3129  0.2870  0.5257
 5583TIP3   OH238239   0.241   3.862   2.105  0.3493 -0.1401  0.7545
 5583TIP3    H138240   0.240   3.807   2.027  0.4630  0.6958  0.1613
 5583TIP3    H238241   0.151   3.892   2.115  0.8201  1.6978 -0.4452
 5584TIP3   OH238242   3.120   4.969  12.574  0.1806  0.1141 -0.7147
 5584TIP3    H138243   3.065   4.913  12.628  1.1819  0.5839  0.8282
 5584TIP3    H238244   3.189   4.999  12.633  1.4873  0.3817 -2.3451
 5585TIP3   OH238245   0.988   3.750  12.664 -0.3980  0.1100 -0.1667
 5585TIP3    H138246   1.004   3.800  12.744  0.1164  1.6188 -1.2000
 5585TIP3    H238247   1.037   3.669  12.677 -2.0211 -0.5988  1.9318
 5586TIP3   OH238248   3.517   0.832  17.069  0.0469  0.1642 -0.3973
 5586TIP3    H138249   3.587   0.892  17.044 -0.2989  0.6765 -0.1592
 5586TIP3    H238250   3.561   0.748  17.084  0.5467  0.3771 -0.6538
 5587TIP3   OH238251   0.490   2.190   3.108  0.4091 -0.2236 -0.4539
 5587TIP3    H138252   0.567   2.227   3.150  0.3442 -0.9812  0.3403
 5587TIP3    H238253   0.416   2.223   3.160  0.2821 -0.5509 -0.4227
 5588TIP3   OH238254   5.877   2.969   4.931 -0.0101  0.1233  0.4286
 5588TIP3    H138255   5.847   3.059   4.920 -0.1762  0.0315  0.1037
 5588TIP3    H238256   5.856   2.927   4.848 -0.4490 -0.3597  0.7805
 5589TIP3   OH238257   6.398   3.709  14.520 -0.0992 -0.3876  0.4526
 5589TIP3    H138258   6.478   3.741  14.478 -0.5713  1.3442  0.8327
 5589TIP3    H238259   6.350   3.666  14.449  0.0640  0.6940 -0.3337
 5590TIP3   OH238260   2.135   0.645   0.717  0.3281 -0.1239 -0.3544
 5590TIP3    H138261   2.197   0.603   0.776 -0.9834 -0.1307  1.0629
 5590TIP3    H238262   2.114   0.728   0.759 -2.5046 -1.2000  0.4794
 5591TIP3   OH238263   0.247   6.077   3.121  0.5607  0.4744 -0.2034
 5591TIP3    H138264   0.248   5.981   3.118  3.6287  0.4527 -0.1570
 5591TIP3    H238265   0.238   6.103   3.029  2.3463  0.0960 -0.5103
 5592TIP3   OH238266   1.385   4.409   2.596  0.1544 -0.5716  0.1622
 5592TIP3    H138267   1.301   4.378   2.562 -0.4908  0.7739  0.5084
 5592TIP3    H238268   1.397   4.360   2.678 -0.3039 -0.7571  0.1208
 5593TIP3   OH238269   0.116   2.601   3.894  0.4538 -0.0182 -0.2821
 5593TIP3    H138270   0.092   2.653   3.971 -0.1361  0.4153 -0.7617
 5593TIP3    H238271   0.211   2.612   3.887  0.5556 -0.2953  0.5581
 5594TIP3   OH238272   4.704   2.215   0.586 -0.5346 -0.0167  0.0477
 5594TIP3    H138273   4.729   2.204   0.678 -0.5947 -0.7234 -0.0158
 5594TIP3    H238274   4.646   2.291   0.586  1.6818  1.7439  0.1804
 5595TIP3   OH238275   6.017   5.382   5.941 -0.4960 -0.1498  0.0245
 5595TIP3    H138276   6.085   5.317   5.959  0.4705  1.1557  1.1975
 5595TIP3    H238277   6.031   5.450   6.006 -0.0718  2.3256 -2.5393
 5596TIP3   OH238278   0.804   3.796  16.037 -0.4330 -0.6354 -0.3849
 5596TIP3    H138279   0.771   3.813  16.125 -2.5820  0.1232 -1.2841
 5596TIP3    H238280   0.895   3.825  16.038 -0.5348 -0.3455  1.4810
 5597TIP3   OH238281   2.460   6.622  15.405  0.2365 -0.4263 -0.2195
 5597TIP3    H138282   2.545   6.638  15.447 -0.2699  0.5523  0.4575
 5597TIP3    H238283   2.461   6.529  15.383  0.3450 -1.0877  2.4016
 5598TIP3   OH238284   6.189   3.615  14.016  0.7043  0.1267  0.6089
 5598TIP3    H138285   6.283   3.630  14.010  0.6682  0.0734 -0.1894
 5598TIP3    H238286   6.153   3.662  13.940  0.1030  0.0462  0.8452
 5599TIP3   OH238287   0.418   6.380   3.209 -0.0741  0.3334  0.1976
 5599TIP3    H138288   0.343   6.407   3.156 -0.7452 -0.6851  0.6012
 5599TIP3    H238289   0.493   6.383   3.149 -0.4119  1.4335 -0.1886
 5600TIP3   OH238290   1.151   6.270  13.695  0.3180  0.0437 -0.1730
 5600TIP3    H138291   1.214   6.207  13.729 -0.3448 -1.3204 -1.4348
 5600TIP3    H238292   1.205   6.345  13.668  1.2929 -0.7087 -0.3298
 5601TIP3   OH238293   1.180   3.410   2.295 -0.1054 -0.6664  0.5948
 5601TIP3    H138294   1.140   3.487   2.255  0.1206 -1.2659 -0.8259
 5601TIP3    H238295   1.106   3.362   2.333 -0.4504 -0.5827  0.0351
 5602TIP3   OH238296   3.507   5.507  12.491  0.6958  0.2355 -0.5776
 5602TIP3    H138297   3.411   5.502  12.490  0.5113  2.2280  2.3161
 5602TIP3    H238298   3.535   5.420  12.516 -0.2819 -0.5950 -2.2245
 5603TIP3   OH238299   0.755   3.970   4.946 -0.5277  0.0006  0.0536
 5603TIP3    H138300   0.811   3.911   4.896  0.0581  0.5481  0.0527
 5603TIP3    H238301   0.741   3.925   5.030 -1.0721 -0.6740 -0.3983
 5604TIP3   OH238302   4.679   0.500   3.039  0.5145 -0.6598  0.5516
 5604TIP3    H138303   4.760   0.476   2.995  0.8487  1.2098  0.0836
 5604TIP3    H238304   4.640   0.566   2.981  1.2782  2.3511  3.3190
 5605TIP3   OH238305   0.971   5.357  14.977 -0.0135 -0.2571 -0.3195
 5605TIP3    H138306   0.941   5.418  15.045  2.9421  1.0210 -0.0734
 5605TIP3    H238307   0.994   5.277  15.025  0.1851 -0.0518 -0.0698
 5606TIP3   OH238308   0.611   4.762  11.235 -0.6741  0.4687  0.2882
 5606TIP3    H138309   0.701   4.730  11.226 -0.4856  0.3258  2.4513
 5606TIP3    H238310   0.608   4.841  11.181  0.9352  0.8455  0.7210
 5607TIP3   OH238311   4.514   5.062  14.514  0.1579  0.0229 -0.0035
 5607TIP3    H138312   4.532   5.121  14.587  2.2506 -0.2451 -0.2706
 5607TIP3    H238313   4.428   5.026  14.533 -0.6675  2.2968  0.7425
 5608TIP3   OH238314   2.419   0.836   3.957 -0.1330 -0.4660 -0.4998
 5608TIP3    H138315   2.451   0.893   3.887  2.3394 -2.9378 -1.5179
 5608TIP3    H238316   2.353   0.781   3.914 -0.4915 -0.2399 -0.2356
 5609TIP3   OH238317   4.801   2.021  13.292  0.5868 -0.3604  0.4625
 5609TIP3    H138318   4.895   2.012  13.307  0.7145 -0.4832 -0.4226
 5609TIP3    H238319   4.790   2.110  13.259  0.2365  0.0929  1.7547
 5610TIP3   OH238320   4.608   1.278  16.336 -0.0377 -0.4887 -0.7786
 5610TIP3    H138321   4.543   1.345  16.318  0.0641  0.7220  2.9491
 5610TIP3    H238322   4.688   1.326  16.356  0.8705 -1.8209 -1.1098
 5611TIP3   OH238323   1.094   5.485   5.304 -0.0934 -0.2674 -0.0892
 5611TIP3    H138324   1.050   5.419   5.250 -0.1090  0.1109 -0.5415
 5611TIP3    H238325   1.045   5.566   5.289  0.0266 -0.1120  0.3373
 5612TIP3   OH238326   5.382   4.650  14.369  0.0750  0.1355  0.6934
 5612TIP3    H138327   5.379   4.676  14.276  0.6592  0.0364  0.6436
 5612TIP3    H238328   5.476   4.642  14.388 -0.0525 -0.0560  1.2349
 5613TIP3   OH238329   2.051   6.073  15.203 -0.0934  1.1023  0.3673
 5613TIP3    H138330   2.086   6.065  15.291 -1.7133  1.4780  1.0633
 5613TIP3    H238331   2.097   6.005  15.153  3.2604  3.0847  0.6650
 5614TIP3   OH238332   3.978   2.147   1.898 -0.4588 -0.0562  0.1809
 5614TIP3    H138333   3.912   2.081   1.914  1.3384 -1.7839  0.6761
 5614TIP3    H238334   4.009   2.130   1.809 -1.1106  1.1601 -0.2969
 5615TIP3   OH238335   2.596   4.982  10.888  0.2024  0.0221  0.1783
 5615TIP3    H138336   2.594   5.070  10.851 -1.2992 -0.5078 -1.0466
 5615TIP3    H238337   2.677   4.944  10.853  0.9131  0.9537  0.8048
 5616TIP3   OH238338   2.001   2.542   3.736 -0.5018 -0.0527  0.3634
 5616TIP3    H138339   2.006   2.459   3.782  0.5507 -0.5543 -0.6279
 5616TIP3    H238340   2.090   2.558   3.704 -1.1124  0.4469 -1.1775
 5617TIP3   OH238341   0.914   3.500   4.600  0.4144 -0.7188  0.3810
 5617TIP3    H138342   0.976   3.433   4.629 -0.3409 -2.1584 -1.1904
 5617TIP3    H238343   0.829   3.468   4.630  0.1635  0.1387  0.6118
 5618TIP3   OH238344   4.937   6.138  14.780  0.1980  0.6926  0.3378
 5618TIP3    H138345   4.980   6.217  14.813 -1.8103  1.7804  0.4377
 5618TIP3    H238346   4.920   6.085  14.858  3.0506 -0.6749  0.1108
 5619TIP3   OH238347   6.807   3.238   1.169 -0.3741  0.2601 -0.3730
 5619TIP3    H138348   6.887   3.202   1.130 -0.2464 -0.6434  0.7123
 5619TIP3    H238349   6.740   3.221   1.103  0.0071 -0.4804 -0.5781
 5620TIP3   OH238350   4.107   5.490   6.569 -0.1911  0.3123 -0.2119
 5620TIP3    H138351   4.062   5.411   6.540  0.3551  0.8210 -2.5513
 5620TIP3    H238352   4.036   5.554   6.581 -0.2398  0.9317 -3.2968
 5621TIP3   OH238353   4.467   3.225   3.902 -1.1188  0.4130 -0.3884
 5621TIP3    H138354   4.447   3.316   3.926  0.0588  0.7245 -0.5745
 5621TIP3    H238355   4.556   3.228   3.868 -0.5594 -1.0578  0.9051
 5622TIP3   OH238356   4.370   2.434   2.383 -0.4535  0.8971  0.7470
 5622TIP3    H138357   4.388   2.474   2.298 -0.7996  0.5806  0.5219
 5622TIP3    H238358   4.453   2.441   2.431  0.5998 -1.4125 -0.6296
 5623TIP3   OH238359   3.017   0.078  11.545 -0.4774  0.0551 -0.2103
 5623TIP3    H138360   3.008   0.165  11.585 -0.0408 -0.0973  0.2295
 5623TIP3    H238361   2.933   0.035  11.563 -0.3443  0.0461  0.4174
 5624TIP3   OH238362   5.862   1.104  13.446 -0.0165  0.4397  0.1930
 5624TIP3    H138363   5.800   1.051  13.397 -2.0138  1.9329  1.0369
 5624TIP3    H238364   5.934   1.121  13.384 -0.7369 -0.7757 -0.9936
 5625TIP3   OH238365   3.299   2.556  16.981 -0.1771  0.0552  0.0731
 5625TIP3    H138366   3.244   2.530  17.055  0.9738 -0.2610  0.8363
 5625TIP3    H238367   3.239   2.595  16.918 -1.2984 -0.4964  0.7975
 5626TIP3   OH238368   3.899   1.519   5.758 -0.9684  0.0451  0.3091
 5626TIP3    H138369   3.877   1.587   5.822 -0.9227  0.1339  0.2305
 5626TIP3    H238370   3.877   1.558   5.673 -1.1627 -0.1257  0.2811
 5627TIP3   OH238371   5.183   3.527  12.306  0.3427  0.5612 -0.0879
 5627TIP3    H138372   5.092   3.519  12.280  0.6994  0.1828 -1.2621
 5627TIP3    H238373   5.193   3.619  12.331 -0.0994  0.8550 -0.9855
 5628TIP3   OH238374   1.573   5.999  12.332  0.1116  0.0482 -0.1697
 5628TIP3    H138375   1.540   6.027  12.246  0.2607 -0.7111 -0.4758
 5628TIP3    H238376   1.668   5.994  12.320  0.5084  3.2861  1.0074
 5629TIP3   OH238377   2.198   1.708   0.440 -0.5855 -0.3053 -0.1337
 5629TIP3    H138378   2.104   1.696   0.425 -0.5355 -0.8631  0.0212
 5629TIP3    H238379   2.218   1.791   0.397 -1.4305  0.5075  0.9932
 5630TIP3   OH238380   5.346   3.868   5.681 -0.2942  0.4039  0.0362
 5630TIP3    H138381   5.281   3.938   5.684 -0.8414 -0.1061  0.2287
 5630TIP3    H238382   5.394   3.884   5.600 -1.0325  0.4609 -0.3990
 5631TIP3   OH238383   6.298   4.695   5.498 -0.4096 -0.5500 -0.3870
 5631TIP3    H138384   6.351   4.723   5.424 -0.8982  1.2140 -0.0966
 5631TIP3    H238385   6.249   4.619   5.465  1.1755 -1.2824 -1.1011
 5632TIP3   OH238386   4.171   2.346  15.157 -0.6561  0.2848 -0.0065
 5632TIP3    H138387   4.188   2.280  15.090 -1.5912 -0.3295  0.3410
 5632TIP3    H238388   4.077   2.339  15.174 -0.3727  0.1325  1.6582
 5633TIP3   OH238389   1.914   4.449  12.851 -0.0153  0.6692  0.0524
 5633TIP3    H138390   1.898   4.453  12.756  2.1927  0.8340 -0.3342
 5633TIP3    H238391   1.919   4.355  12.870 -0.1893  0.6400 -0.0429
 5634TIP3   OH238392   0.827   5.613   0.952 -0.9077  0.1666 -0.2927
 5634TIP3    H138393   0.862   5.540   1.003 -2.8888 -0.4300  0.2659
 5634TIP3    H238394   0.835   5.584   0.861  0.3735  0.2010 -0.1944
 5635TIP3   OH238395   5.133   4.487   1.855  0.4616  0.2299 -0.5615
 5635TIP3    H138396   5.069   4.556   1.869  0.1048 -0.0963 -0.5668
 5635TIP3    H238397   5.137   4.475   1.760  2.2557  1.8556 -0.7282
 5636TIP3   OH238398   3.365   2.968  13.558  0.0550 -0.3049  0.2392
 5636TIP3    H138399   3.271   2.970  13.573 -0.0991  2.0794 -0.7233
 5636TIP3    H238400   3.375   2.943  13.466  0.2300  1.5385 -0.2706
 5637TIP3   OH238401   1.635   0.002   0.345 -0.3302 -0.1812 -0.0417
 5637TIP3    H138402   1.539  -0.003   0.340 -0.3482  0.4588 -0.3261
 5637TIP3    H238403   1.652   0.069   0.410 -0.0731 -0.5358  0.2564
 5638TIP3   OH238404   0.819   4.172  15.488 -0.0599 -0.0403  0.0742
 5638TIP3    H138405   0.808   4.239  15.420  1.5315  0.8386  0.6434
 5638TIP3    H238406   0.757   4.198  15.557 -1.2751 -0.6215 -0.7763
 5639TIP3   OH238407   0.738   4.357  10.857 -0.6701 -0.4737  0.3161
 5639TIP3    H138408   0.730   4.392  10.945  0.1022 -1.6910  0.8767
 5639TIP3    H238409   0.784   4.425  10.808 -0.2131 -0.2227  1.0955
 5640TIP3   OH238410   2.319   0.658  13.364 -0.4128 -0.7762 -0.3631
 5640TIP3    H138411   2.231   0.623  13.377 -0.6575  0.5702  1.8718
 5640TIP3    H238412   2.342   0.697  13.448  2.4471 -1.3775 -0.8149
 5641TIP3   OH238413   5.628   3.743  16.823  0.3726 -0.0611  0.1524
 5641TIP3    H138414   5.624   3.694  16.740 -2.4206 -1.5122  1.0660
 5641TIP3    H238415   5.657   3.831  16.798  0.2135 -0.6677 -2.2684
 5642TIP3   OH238416   4.876   4.059  11.745  0.1064 -0.2611  0.3096
 5642TIP3    H138417   4.808   4.022  11.688  0.1999 -0.2745  0.2053
 5642TIP3    H238418   4.907   4.137  11.698  0.7797 -0.7492 -0.0692
 5643TIP3   OH238419   3.187   4.751  14.196  0.4584  0.1023 -0.7857
 5643TIP3    H138420   3.186   4.670  14.144  1.7773  0.0523 -0.7522
 5643TIP3    H238421   3.198   4.721  14.286 -0.9454  0.2337 -0.5600
 5644TIP3   OH238422   1.399   3.561   1.762  0.2699 -0.3674 -0.0666
 5644TIP3    H138423   1.466   3.626   1.782 -1.4085  1.0562  1.0657
 5644TIP3    H238424   1.348   3.600   1.690 -0.5205 -0.5784  0.3742
 5645TIP3   OH238425   5.994   5.125   4.015  0.1003 -0.2430 -0.5713
 5645TIP3    H138426   6.089   5.116   4.002  0.9228  3.6147  1.8644
 5645TIP3    H238427   5.968   5.193   3.953 -0.6079  0.4270  0.4567
 5646TIP3   OH238428   1.786   3.378   0.279 -0.3109 -0.2229 -1.0176
 5646TIP3    H138429   1.757   3.322   0.351  0.9856  1.7154  1.1022
 5646TIP3    H238430   1.783   3.467   0.315 -2.8768  1.2089 -4.4608
 5647TIP3   OH238431   2.476   1.778  13.705 -0.2239  0.4256  0.0041
 5647TIP3    H138432   2.536   1.833  13.754  2.4318 -1.6040 -0.8207
 5647TIP3    H238433   2.432   1.837  13.644  0.1217  2.1251  1.3978
 5648TIP3   OH238434   2.833   0.508   6.041  0.0474 -0.5138  0.2657
 5648TIP3    H138435   2.794   0.591   6.069  1.2660  0.2628 -0.3216
 5648TIP3    H238436   2.812   0.447   6.112 -0.3400  0.4398  0.9828
 5649TIP3   OH238437   1.861   1.228  12.419  0.4488 -0.2947  0.1152
 5649TIP3    H138438   1.821   1.282  12.486 -1.3629  1.7303 -2.5015
 5649TIP3    H238439   1.947   1.268  12.403  0.6299 -0.4188  0.7652
 5650TIP3   OH238440   1.588   0.638   0.023  0.1875  0.0401  0.0174
 5650TIP3    H138441   1.664   0.689  -0.006  0.9025 -0.7382  0.4821
 5650TIP3    H238442   1.563   0.587  -0.054  1.1178 -0.8712  0.3097
 5651TIP3   OH238443   2.602   1.377   4.629 -0.1417 -0.0317  0.0884
 5651TIP3    H138444   2.570   1.323   4.702 -0.4880  1.7911  1.3201
 5651TIP3    H238445   2.690   1.404   4.657  0.0679 -0.0354 -0.5642
 5652TIP3   OH238446   0.950   4.155  15.966 -0.0249 -0.2497 -0.0540
 5652TIP3    H138447   0.953   4.198  15.881 -0.9733 -0.9844 -0.4816
 5652TIP3    H238448   0.856   4.140  15.981  0.0574  0.8989  1.6442
 5653TIP3   OH238449   5.783   0.409  16.417 -0.8819 -0.2771 -0.5611
 5653TIP3    H138450   5.694   0.425  16.449 -1.2047  0.9930 -2.0018
 5653TIP3    H238451   5.795   0.474  16.347  1.0921 -0.5876 -0.5480
 5654TIP3   OH238452   4.368   4.379   1.240  0.2769 -0.0199 -0.6053
 5654TIP3    H138453   4.436   4.408   1.179  0.6162  2.0870  0.7056
 5654TIP3    H238454   4.294   4.437   1.221  0.0042 -0.0957  0.2293
 5655TIP3   OH238455   4.183   3.515  14.698  0.2349 -0.5711  0.0759
 5655TIP3    H138456   4.275   3.505  14.722 -0.3797 -1.5759  2.1296
 5655TIP3    H238457   4.161   3.433  14.654  0.1582 -0.5881  0.1456
 5656TIP3   OH238458   3.176   3.211   0.044 -0.1488  0.3127  0.3345
 5656TIP3    H138459   3.170   3.271   0.119  2.0876 -0.5472  1.2724
 5656TIP3    H238460   3.091   3.169   0.040 -0.1436 -0.0435  2.7879
 5657TIP3   OH238461   6.088   0.392   3.567  0.4468 -0.6124 -0.3684
 5657TIP3    H138462   6.128   0.350   3.644 -1.0908 -1.1275  0.1600
 5657TIP3    H238463   6.155   0.454   3.537  2.1254 -2.2717 -0.1966
 5658TIP3   OH238464   5.370   4.262  11.895  0.3486 -0.1330 -0.6571
 5658TIP3    H138465   5.355   4.241  11.803 -0.1157  1.0570 -0.8652
 5658TIP3    H238466   5.295   4.225  11.941  0.0639  0.1617 -0.8863
 5659TIP3   OH238467   1.927   0.073   0.475 -0.2515 -0.0328 -0.1538
 5659TIP3    H138468   1.880   0.152   0.451  3.0459  1.1158 -3.2229
 5659TIP3    H238469   1.937   0.079   0.570 -1.0422  2.6574 -0.2008
 5660TIP3   OH238470   1.821   2.695  16.810 -0.1129  0.4543 -0.4405
 5660TIP3    H138471   1.883   2.650  16.752 -0.6205  0.5269 -1.0476
 5660TIP3    H238472   1.790   2.627  16.869  0.9717  0.5361  0.2434
 5661TIP3   OH238473   2.561   3.592   2.809  0.3405  0.0082  0.2245
 5661TIP3    H138474   2.605   3.636   2.882 -0.5845 -0.1300  0.8816
 5661TIP3    H238475   2.495   3.656   2.779 -0.0100 -0.3535  0.2196
 5662TIP3   OH238476   6.290   4.643  11.643  0.1890 -0.1024  0.1587
 5662TIP3    H138477   6.229   4.605  11.579 -1.1036  0.6019  0.9420
 5662TIP3    H238478   6.279   4.590  11.722 -0.2407  0.7112  0.6570
 5663TIP3   OH238479   3.832   0.369   4.449 -0.0897 -0.1164 -0.0750
 5663TIP3    H138480   3.913   0.348   4.402 -0.6423  1.6896 -1.8523
 5663TIP3    H238481   3.791   0.284   4.463  0.8885 -0.8383 -1.4150
 5664TIP3   OH238482   2.925   4.830   4.040  0.2595 -0.4619  0.0762
 5664TIP3    H138483   2.848   4.782   4.010 -0.0423 -0.5763  1.0289
 5664TIP3    H238484   2.890   4.894   4.103  0.7649  0.4179 -0.5213
 5665TIP3   OH238485   4.101   2.909  11.708 -0.2806  0.1371  0.2980
 5665TIP3    H138486   4.080   2.851  11.780  0.2689 -0.8528 -0.3310
 5665TIP3    H238487   4.018   2.952  11.687 -0.6431 -0.2702  0.8923
 5666TIP3   OH238488   4.395   0.397  16.965 -0.2882  0.0964 -0.3266
 5666TIP3    H138489   4.369   0.310  16.932 -0.8012  0.1742 -0.1312
 5666TIP3    H238490   4.452   0.377  17.039  0.3547 -0.0766 -0.8587
 5667TIP3   OH238491   4.975   0.495  15.273  0.1905  0.0034 -0.2042
 5667TIP3    H138492   4.975   0.423  15.209  0.3800  0.1048 -0.3208
 5667TIP3    H238493   5.044   0.471  15.336 -0.7929 -0.6712  0.6223
 5668TIP3   OH238494   6.012   4.176   0.084  0.3158 -0.0280  0.0820
 5668TIP3    H138495   6.035   4.083   0.084 -1.8884 -0.6126 -2.1510
 5668TIP3    H238496   5.930   4.181   0.132  0.2896  0.7440 -0.0379
 5669TIP3   OH238497   6.608   3.595  16.324 -0.0309 -0.4774  0.2206
 5669TIP3    H138498   6.606   3.499  16.319  2.8405 -0.5523 -0.8075
 5669TIP3    H238499   6.563   3.624  16.245  0.5310 -1.0334 -0.3125
 5670TIP3   OH238500   0.823   4.451   5.381 -0.2631  0.2238 -0.7505
 5670TIP3    H138501   0.804   4.364   5.346 -1.4928  0.6724 -1.2256
 5670TIP3    H238502   0.834   4.437   5.475 -0.2648 -0.4662 -0.8472
 5671TIP3   OH238503   0.486   0.462  13.879 -0.5687 -0.0030 -0.3663
 5671TIP3    H138504   0.539   0.394  13.836 -1.5364 -0.2259 -1.2335
 5671TIP3    H238505   0.469   0.427  13.967 -0.4921 -0.5815 -0.5800
 5672TIP3   OH238506   3.465   6.663  15.481  0.1654  0.0037  0.4612
 5672TIP3    H138507   3.554   6.697  15.482  0.3211 -0.2160 -2.5725
 5672TIP3    H238508   3.473   6.571  15.506  0.6282  0.2363  1.1992
 5673TIP3   OH238509   4.881   1.380  15.450 -0.0630  0.4457  0.3842
 5673TIP3    H138510   4.840   1.460  15.482  0.9650  1.3470 -0.5377
 5673TIP3    H238511   4.974   1.392  15.468 -0.0067 -0.9356  1.0692
 5674TIP3   OH238512   6.582   0.719  11.427 -0.5146  0.2200  0.6365
 5674TIP3    H138513   6.533   0.781  11.373 -1.3957 -0.5476  0.5451
 5674TIP3    H238514   6.650   0.772  11.469  0.5911  0.7032 -1.6959
 5675TIP3   OH238515   5.834   2.010   0.746 -0.9135 -0.8426 -0.0012
 5675TIP3    H138516   5.803   2.025   0.835  0.2185  0.0930  0.2376
 5675TIP3    H238517   5.764   2.045   0.690 -0.0578  1.7841  0.5385
 5676TIP3   OH238518   1.864   2.112   0.324  0.4228 -0.0057  0.0166
 5676TIP3    H138519   1.853   2.207   0.327 -0.4041 -0.1231  0.8738
 5676TIP3    H238520   1.787   2.078   0.369 -0.1155 -1.1298 -1.7188
 5677TIP3   OH238521   6.727   5.810  12.629 -0.3123 -0.2017 -0.0614
 5677TIP3    H138522   6.727   5.876  12.698  0.7983  2.1163 -2.2021
 5677TIP3    H238523   6.809   5.763  12.640  0.1429  0.5655 -0.1562
 5678TIP3   OH238524   5.863   2.130  14.272 -0.2304 -0.2227 -0.0673
 5678TIP3    H138525   5.863   2.080  14.354 -2.4248  1.1221  0.8081
 5678TIP3    H238526   5.770   2.136  14.248  0.1872  1.6192 -1.2834
 5679TIP3   OH238527   0.979   1.001  15.843  0.1065 -0.1595 -0.5755
 5679TIP3    H138528   1.070   0.998  15.874 -0.1317 -2.8970 -0.0396
 5679TIP3    H238529   0.927   1.013  15.923 -0.0559  0.6481 -0.7981
 5680TIP3   OH238530   1.566   1.697  14.108 -0.6898  0.0216 -0.0316
 5680TIP3    H138531   1.543   1.762  14.041 -1.8440 -1.9353 -1.6126
 5680TIP3    H238532   1.579   1.616  14.058  2.8416 -0.5126  1.6379
 5681TIP3   OH238533   4.127   3.541  15.772  0.1069  0.4148 -0.1126
 5681TIP3    H138534   4.179   3.590  15.708  1.5849 -2.0279 -0.8063
 5681TIP3    H238535   4.182   3.536  15.849 -0.4317  0.6727  0.2898
 5682TIP3   OH238536   3.962   2.564  15.595 -0.0847 -0.0362  0.4329
 5682TIP3    H138537   4.048   2.529  15.570 -0.5179 -2.5668  2.1999
 5682TIP3    H238538   3.955   2.647  15.548  2.9615 -0.1791 -0.4124
 5683TIP3   OH238539   1.318   4.841  12.888 -0.1962 -0.0339 -0.0147
 5683TIP3    H138540   1.329   4.909  12.821 -0.4404 -1.2430 -1.2926
 5683TIP3    H238541   1.394   4.851  12.946 -0.3845  1.5148 -0.0187
 5684TIP3   OH238542   0.593   6.318   3.632 -0.1128  0.0515 -0.3319
 5684TIP3    H138543   0.582   6.409   3.662  1.5551 -0.1169  0.8583
 5684TIP3    H238544   0.518   6.303   3.574 -2.1847  1.1315  1.9684
 5685TIP3   OH238545   5.708   5.703  14.675  0.4450 -0.3437  0.2236
 5685TIP3    H138546   5.789   5.718  14.722  0.5093 -0.1340  0.0458
 5685TIP3    H238547   5.700   5.777  14.615  1.2998 -1.5163 -1.3852
 5686TIP3   OH238548   0.399   5.209   4.794 -0.1786 -0.2714 -0.0379
 5686TIP3    H138549   0.389   5.290   4.845  1.6124  0.2680 -0.4878
 5686TIP3    H238550   0.326   5.210   4.733  0.5253  1.6816 -0.9070
 5687TIP3   OH238551   1.498   4.976  14.310  0.2926  0.2336  0.6113
 5687TIP3    H138552   1.515   4.890  14.270 -1.9609  0.3832 -0.7203
 5687TIP3    H238553   1.438   4.957  14.382 -1.5295  0.8924 -0.7223
 5688TIP3   OH238554   4.635   3.036   4.631 -0.7740  0.2930 -0.7209
 5688TIP3    H138555   4.704   2.989   4.584 -0.1741  3.9957 -3.8215
 5688TIP3    H238556   4.554   2.990   4.608 -0.0806  0.0145 -2.6965
 5689TIP3   OH238557   4.409   4.078  11.414 -0.6260 -0.7910  0.2475
 5689TIP3    H138558   4.406   4.102  11.321  0.1165  1.3932  0.7560
 5689TIP3    H238559   4.323   4.040  11.431 -0.9281 -0.8356 -1.2360
 5690TIP3   OH238560   2.551   4.951   6.045 -0.0202  0.2617  0.1386
 5690TIP3    H138561   2.522   4.908   6.125  0.3042  0.6820  0.4821
 5690TIP3    H238562   2.611   4.889   6.004 -0.2937 -0.0110  0.1476
 5691TIP3   OH238563   2.435   0.092  12.444  0.7354  0.5535  0.2510
 5691TIP3    H138564   2.479   0.060  12.365 -0.0721  0.8442 -0.3198
 5691TIP3    H238565   2.414   0.183  12.425 -1.0906  0.1224  0.0782
 5692TIP3   OH238566   4.859   5.776  12.435  0.1447  0.4348  0.1674
 5692TIP3    H138567   4.826   5.827  12.361 -0.4845  0.5594  0.5318
 5692TIP3    H238568   4.951   5.800  12.441 -0.0762  1.2924  0.1473
 5693TIP3   OH238569   0.923   1.509   5.285 -0.2334 -0.4907 -0.2361
 5693TIP3    H138570   0.856   1.540   5.346  0.9653 -0.4990  1.0875
 5693TIP3    H238571   0.944   1.585   5.231  0.7403  0.2875  1.2164
 5694TIP3   OH238572   0.818   1.707   2.018  0.1740 -0.0110 -0.5256
 5694TIP3    H138573   0.759   1.691   2.091 -2.0929  0.1191 -2.2745
 5694TIP3    H238574   0.822   1.623   1.972  0.9721  0.1128 -0.6934
 5695TIP3   OH238575   3.490   4.535   5.883  0.0053  0.0009 -0.2719
 5695TIP3    H138576   3.570   4.513   5.835 -0.1038  0.6458 -0.7615
 5695TIP3    H238577   3.519   4.549   5.973  0.5026  0.5669 -0.5162
 5696TIP3   OH238578   3.448   4.125  14.810  0.1918  0.3921  0.3881
 5696TIP3    H138579   3.442   4.182  14.887 -1.1118 -0.7740  1.1684
 5696TIP3    H238580   3.466   4.038  14.846  2.1926  0.2808 -0.7920
 5697TIP3   OH238581   4.707   1.805  13.047 -0.5458 -0.4348  0.3651
 5697TIP3    H138582   4.618   1.808  13.012 -0.5495  1.0754  0.4566
 5697TIP3    H238583   4.695   1.808  13.142 -0.3830  0.7119  0.3587
 5698TIP3   OH238584   1.308   6.253   4.743 -0.3637 -0.8504  0.3484
 5698TIP3    H138585   1.226   6.302   4.737 -0.8846 -1.8378 -0.9540
 5698TIP3    H238586   1.282   6.167   4.777  0.1059 -1.1920 -0.1446
 5699TIP3   OH238587   1.011   2.649  11.547 -0.2552 -0.8251 -0.0454
 5699TIP3    H138588   1.013   2.557  11.520  0.3295 -0.7241 -0.3545
 5699TIP3    H238589   0.921   2.663  11.576 -0.1215 -1.7456  0.8611
 5700TIP3   OH238590   2.387   4.196   5.951 -0.1453  0.2778  0.2013
 5700TIP3    H138591   2.358   4.232   6.035 -1.7146  0.2960 -0.3129
 5700TIP3    H238592   2.447   4.261   5.916  0.6030  0.2146  1.3624
 5701TIP3   OH238593   1.343   0.073   4.565  0.8665 -0.2081 -0.4903
 5701TIP3    H138594   1.403   0.004   4.595 -0.1515 -0.9737 -0.2169
 5701TIP3    H238595   1.323   0.124   4.644 -0.9053 -1.5332 -0.0617
 5702TIP3   OH238596   5.786   4.007  16.942 -0.0525 -0.3705  0.2574
 5702TIP3    H138597   5.871   3.971  16.966  0.6959  0.7266 -0.7257
 5702TIP3    H238598   5.770   4.077  17.005 -1.2128 -1.9248  1.7589
 5703TIP3   OH238599   0.638   0.412   5.355  0.2291  0.5028  0.1416
 5703TIP3    H138600   0.590   0.352   5.298  1.4748  1.9718 -2.6124
 5703TIP3    H238601   0.570   0.456   5.406 -1.0381 -0.2487 -0.8520
 5704TIP3   OH238602   4.206   0.835   5.866 -0.4570 -0.3438 -0.8204
 5704TIP3    H138603   4.183   0.743   5.852 -0.6978 -0.0034 -2.8875
 5704TIP3    H238604   4.137   0.870   5.921  0.2625 -1.6896  0.9642
 5705TIP3   OH238605   0.169   1.582   5.728 -0.2366 -0.3029  0.5865
 5705TIP3    H138606   0.083   1.605   5.762 -0.9318 -0.4220 -1.0231
 5705TIP3    H238607   0.168   1.612   5.637  0.9132 -1.5674  0.1332
 5706TIP3   OH238608   2.809   5.555  12.678 -0.1154 -0.3021 -0.3699
 5706TIP3    H138609   2.806   5.460  12.692  0.6256 -0.3590 -0.5464
 5706TIP3    H238610   2.719   5.580  12.658 -0.4072 -0.8869  0.2124
 5707TIP3   OH238611   3.225   6.044  12.152 -0.1219  0.8659  0.3976
 5707TIP3    H138612   3.195   5.971  12.098  0.0828 -0.0012  1.4477
 5707TIP3    H238613   3.268   6.103  12.090  0.8976 -0.5452 -0.2596
 5708TIP3   OH238614   3.072   6.764   6.151 -0.1141 -0.3680 -0.4596
 5708TIP3    H138615   3.103   6.681   6.114  1.1053  0.1656 -0.6748
 5708TIP3    H238616   3.123   6.831   6.105  0.1546  0.3936  0.9212
 5709TIP3   OH238617   2.750   3.868   3.322 -0.1804 -0.3876 -0.1147
 5709TIP3    H138618   2.775   3.864   3.230  1.5210 -1.7480  0.3846
 5709TIP3    H238619   2.711   3.783   3.340 -0.4207 -0.1589  0.4538
 5710TIP3   OH238620   2.402   0.742  12.550  0.2530 -0.6106  0.2245
 5710TIP3    H138621   2.371   0.753  12.640  0.2380 -0.2189  0.1704
 5710TIP3    H238622   2.419   0.648  12.542 -0.3196 -0.7342  0.4470
 5711TIP3   OH238623   2.131   0.066   0.078  0.5324 -0.4387 -0.5029
 5711TIP3    H138624   2.114  -0.028   0.084 -0.0556 -0.3130 -0.2013
 5711TIP3    H238625   2.081   0.104   0.150  0.3114  0.1658 -0.9779
 5712TIP3   OH238626   4.056   3.499   1.276  0.0877  0.3291 -0.0954
 5712TIP3    H138627   4.146   3.529   1.264  0.6589 -1.3022 -0.0065
 5712TIP3    H238628   4.060   3.442   1.352 -0.6357 -1.3943 -1.3316
 5713TIP3   OH238629   0.738   1.600  13.536 -0.5439 -0.2264  0.0352
 5713TIP3    H138630   0.828   1.570  13.521  0.4853  2.8823 -0.3819
 5713TIP3    H238631   0.683   1.535  13.494  1.6127 -1.0360 -1.5878
 5714TIP3   OH238632   1.540   4.087   2.874 -0.4767 -0.1413 -0.0723
 5714TIP3    H138633   1.469   4.151   2.864  0.1027  0.3415 -1.1141
 5714TIP3    H238634   1.567   4.097   2.965 -0.3783  1.1207 -0.2240
 5715TIP3   OH238635   5.016   2.136   0.672 -0.3157  0.4097  0.0218
 5715TIP3    H138636   5.074   2.185   0.614 -1.3168  1.3978 -0.1665
 5715TIP3    H238637   4.948   2.101   0.614  1.0111 -2.2451 -0.0411
 5716TIP3   OH238638   2.730   4.565  17.203 -0.3138 -0.2051 -0.1236
 5716TIP3    H138639   2.727   4.476  17.241 -1.7311 -0.1359 -0.0415
 5716TIP3    H238640   2.752   4.551  17.111 -0.2012 -0.6296 -0.0332
 5717TIP3   OH238641   4.601   2.200  15.708 -0.8689  0.0203  0.2487
 5717TIP3    H138642   4.630   2.148  15.783  0.3189 -0.3544 -0.4532
 5717TIP3    H238643   4.554   2.274  15.746  1.0998  0.6961  1.4317
 5718TIP3   OH238644   6.096   5.838  15.055 -0.1197  0.4919 -0.0847
 5718TIP3    H138645   6.183   5.876  15.043  0.3672 -0.4333  0.4381
 5718TIP3    H238646   6.106   5.776  15.127 -0.0065 -3.2874 -3.1899
 5719TIP3   OH238647   0.329   4.234   0.264  0.2666  0.0529 -0.5184
 5719TIP3    H138648   0.415   4.242   0.305 -0.4835  0.5576  1.0141
 5719TIP3    H238649   0.267   4.246   0.337 -1.1034  0.8907 -1.7979
 5720TIP3   OH238650   2.511   0.460  11.931  0.9681 -0.2494  0.2107
 5720TIP3    H138651   2.515   0.482  11.838  0.2549 -2.2790 -0.3290
 5720TIP3    H238652   2.466   0.534  11.972  1.7587  0.8923 -0.9842
 5721TIP3   OH238653   1.794   0.066  11.458  0.1333  0.2329  0.0301
 5721TIP3    H138654   1.783  -0.028  11.472  2.7295  0.0211  0.9575
 5721TIP3    H238655   1.832   0.098  11.540 -3.2555  2.6110  0.7869
 5722TIP3   OH238656   5.006   1.609  15.079 -0.1939  0.0782  0.3840
 5722TIP3    H138657   5.094   1.581  15.051 -0.6633  0.8149 -1.8744
 5722TIP3    H238658   5.020   1.696  15.115  0.2284 -0.4132  1.4472
 5723TIP3   OH238659   4.140   3.492  13.060  0.0634  0.3616  0.6120
 5723TIP3    H138660   4.197   3.427  13.100  0.9622  1.2084  0.7421
 5723TIP3    H238661   4.190   3.524  12.984 -0.5471  0.5804  0.2990
 5724TIP3   OH238662   6.650   2.423   3.961 -0.1342  0.0540  0.1906
 5724TIP3    H138663   6.607   2.500   3.924  0.3818  0.7266  0.9753
 5724TIP3    H238664   6.578   2.363   3.982 -0.5322  0.3040 -0.4610
 5725TIP3   OH238665   3.042   5.506   2.959  0.1468  0.8344 -0.1770
 5725TIP3    H138666   2.994   5.542   2.884  1.5480 -0.9751 -1.9823
 5725TIP3    H238667   3.120   5.466   2.921  0.6746 -0.4989  2.2171
 5726TIP3   OH238668   4.027   1.239   0.998 -0.0237 -0.1876 -0.0162
 5726TIP3    H138669   4.037   1.225   1.092  0.0239  0.4830  0.0806
 5726TIP3    H238670   4.108   1.282   0.971  0.0990 -0.6735 -0.4234
 5727TIP3   OH238671   5.183   1.374  14.256 -0.5883 -0.2257  0.5640
 5727TIP3    H138672   5.265   1.392  14.302 -0.3610 -2.5610  1.1581
 5727TIP3    H238673   5.209   1.324  14.178 -1.4045 -0.7273  0.5983
 5728TIP3   OH238674   2.568   4.144   3.948  0.2268  0.3870 -0.2297
 5728TIP3    H138675   2.641   4.108   3.898 -0.1846 -2.2005  0.9428
 5728TIP3    H238676   2.598   4.141   4.039 -1.2488 -0.5964  0.2530
 5729TIP3   OH238677   5.315   1.854  13.442 -0.0717  0.2592  0.0396
 5729TIP3    H138678   5.267   1.797  13.383  0.6399 -1.6533  1.2682
 5729TIP3    H238679   5.390   1.884  13.391 -1.2795  1.3683 -1.1135
 5730TIP3   OH238680   1.824   3.743   6.066 -0.0210  0.9141  0.1015
 5730TIP3    H138681   1.911   3.709   6.084  0.0921  0.8783 -0.5313
 5730TIP3    H238682   1.790   3.768   6.153  0.2009 -0.0442  0.4713
 5731TIP3   OH238683   6.217   3.842  15.326  0.6755 -0.4387 -0.1220
 5731TIP3    H138684   6.257   3.755  15.318 -0.3609 -0.6794 -2.8399
 5731TIP3    H238685   6.246   3.890  15.248 -0.2312  1.0723  0.4367
 5732TIP3   OH238686   0.825   6.172  15.950 -0.2601  0.6668 -0.1842
 5732TIP3    H138687   0.851   6.090  15.993 -0.7419  0.2836 -0.6134
 5732TIP3    H238688   0.730   6.164  15.938 -0.4256  1.6199  0.4518
 5733TIP3   OH238689   4.260   0.748  16.699 -0.2142  0.3537 -0.5906
 5733TIP3    H138690   4.244   0.735  16.605 -0.7040 -2.3145 -0.1743
 5733TIP3    H238691   4.351   0.776  16.704  0.0940 -0.4090 -1.7985
 5734TIP3   OH238692   6.189   4.512   0.080 -0.7679 -0.3181 -0.2865
 5734TIP3    H138693   6.182   4.582   0.015 -0.8467 -1.2395 -1.2994
 5734TIP3    H238694   6.211   4.434   0.028 -0.2123 -0.9405  0.8716
 5735TIP3   OH238695   0.496   0.428   0.787  0.1085  0.4756  0.1588
 5735TIP3    H138696   0.494   0.419   0.883  0.7688  2.6447  0.4089
 5735TIP3    H238697   0.521   0.341   0.756 -0.0097 -0.2378  1.9689
 5736TIP3   OH238698   2.795   2.165  13.057  0.3267 -0.4240 -0.1704
 5736TIP3    H138699   2.740   2.146  12.981  0.1690 -0.7158  0.0143
 5736TIP3    H238700   2.884   2.150  13.027  0.3048  0.0802 -0.4812
 5737TIP3   OH238701   5.257   4.234   1.684  0.4141  0.2089  0.3354
 5737TIP3    H138702   5.328   4.194   1.634 -0.5856 -0.7357 -0.3256
 5737TIP3    H238703   5.198   4.271   1.619 -0.7999 -0.8684  0.7982
 5738TIP3   OH238704   4.895   0.906  15.206 -0.3987  0.5048  0.6086
 5738TIP3    H138705   4.856   0.878  15.124 -0.3539 -0.0761  0.7820
 5738TIP3    H238706   4.988   0.916  15.187 -0.2257 -0.6322  0.8452
 5739TIP3   OH238707   0.338   3.112  10.803 -0.1512  0.1021  0.0402
 5739TIP3    H138708   0.398   3.175  10.763 -0.8589  1.1346  0.5865
 5739TIP3    H238709   0.281   3.085  10.731  0.0774  0.1682 -0.1693
 5740TIP3   OH238710   5.352   2.062  17.285  0.2636  0.3452 -0.2551
 5740TIP3    H138711   5.429   2.007  17.301  1.2602  2.1283  1.2095
 5740TIP3    H238712   5.375   2.115  17.209  0.2281  0.4149 -0.2189
 5741TIP3   OH238713   0.064   5.943  17.236 -0.1475 -0.9741  0.4026
 5741TIP3    H138714   0.101   5.859  17.262  0.6500 -1.2996 -1.7317
 5741TIP3    H238715  -0.031   5.930  17.243 -0.0248 -2.0168  0.1605
 5742TIP3   OH238716   3.875   6.210  10.393 -0.2987  0.1243  0.1946
 5742TIP3    H138717   3.944   6.173  10.337 -2.1725  0.9145 -2.7673
 5742TIP3    H238718   3.849   6.138  10.450  0.6881 -1.1566 -0.9271
 5743TIP3   OH238719   2.876   0.577   5.707  0.1221 -0.0186  0.4049
 5743TIP3    H138720   2.959   0.623   5.692 -1.6275  2.9525 -0.5246
 5743TIP3    H238721   2.871   0.569   5.802  1.8720 -1.0630  0.4469
 5744TIP3   OH238722   1.091   4.438  16.505 -0.2376 -1.0460 -0.3937
 5744TIP3    H138723   1.037   4.500  16.456  0.7705 -0.6348 -1.0158
 5744TIP3    H238724   1.031   4.369  16.532 -0.8351 -1.2835 -2.2352
 5745TIP3   OH238725   4.012   5.296  14.200  0.5895  0.0459  0.6866
 5745TIP3    H138726   4.001   5.297  14.105 -0.7513  0.8509  0.8436
 5745TIP3    H238727   4.090   5.350  14.215  0.5935  0.2153  0.0857
 5746TIP3   OH238728   0.190   2.096   5.630 -0.4421  0.6513 -0.0007
 5746TIP3    H138729   0.179   2.182   5.590 -1.9739  0.5357  0.1465
 5746TIP3    H238730   0.194   2.113   5.724 -1.1286  0.5245  0.0504
 5747TIP3   OH238731   2.349   4.993   5.466 -0.3603 -0.1710  0.2073
 5747TIP3    H138732   2.429   4.952   5.497 -0.3596 -0.4086 -0.1176
 5747TIP3    H238733   2.283   4.924   5.470 -0.6091  0.0905  0.7163
 5748TIP3   OH238734   4.305   2.793   3.559 -0.1359  0.1076  0.5618
 5748TIP3    H138735   4.342   2.857   3.498 -0.8178 -0.4494 -0.4698
 5748TIP3    H238736   4.233   2.839   3.603  1.2196  0.9236  1.9370
 5749TIP3   OH238737   3.351   5.966  16.354 -0.0382 -0.2359  0.1219
 5749TIP3    H138738   3.311   6.053  16.365 -0.3160 -0.2751 -0.5745
 5749TIP3    H238739   3.289   5.918  16.299  1.8247  0.2992 -2.5192
 5750TIP3   OH238740   4.503   5.220  10.796  0.0044 -0.1906  0.1120
 5750TIP3    H138741   4.529   5.283  10.728 -1.3940 -0.2782 -0.5375
 5750TIP3    H238742   4.563   5.147  10.786  1.4858  0.9263  0.6989
 5751TIP3   OH238743   4.445   4.137   0.139 -0.1526 -0.4104 -0.3246
 5751TIP3    H138744   4.371   4.139   0.079  0.8742 -1.9755 -1.6702
 5751TIP3    H238745   4.411   4.090   0.216 -0.3583 -1.8402 -1.2518
 5752TIP3   OH238746   0.507   2.368   2.221 -0.6331 -1.0649 -0.2902
 5752TIP3    H138747   0.582   2.414   2.183 -2.1606  0.8997 -1.0630
 5752TIP3    H238748   0.538   2.334   2.304  1.3487 -1.0369 -0.9958
 5753TIP3   OH238749   3.885   3.708  17.230 -0.3917  0.4588  0.2086
 5753TIP3    H138750   3.957   3.722  17.293 -1.1334 -1.0802  1.4224
 5753TIP3    H238751   3.823   3.778  17.249  0.2003  1.0517 -0.0060
 5754TIP3   OH238752   0.310   1.181   5.583  0.1288  0.3742 -0.1598
 5754TIP3    H138753   0.388   1.139   5.620  0.9887  1.0291 -1.2032
 5754TIP3    H238754   0.267   1.111   5.534  0.4947  0.2055 -0.2487
 5755TIP3   OH238755   5.568   3.631  10.967 -0.4814  0.3852  0.2995
 5755TIP3    H138756   5.560   3.721  10.936  0.3271  0.6687  0.8819
 5755TIP3    H238757   5.502   3.582  10.918  0.1071  1.0050 -1.1344
 5756TIP3   OH238758   1.714   6.041   3.632 -0.0818 -0.0780 -0.2117
 5756TIP3    H138759   1.787   5.995   3.672  0.1511  1.7114  1.5139
 5756TIP3    H238760   1.731   6.038   3.538  1.2348 -1.2611  0.0563
 5757TIP3   OH238761   2.085   4.903   0.751  0.0691 -0.0814 -0.4949
 5757TIP3    H138762   2.111   4.853   0.674  1.7369 -0.1346  0.0872
 5757TIP3    H238763   2.167   4.923   0.795 -0.8523  0.2301  1.1009
 5758TIP3   OH238764   0.594   5.647  17.064 -0.0112  0.3263  0.0038
 5758TIP3    H138765   0.625   5.734  17.087  2.1140 -0.3641 -0.1024
 5758TIP3    H238766   0.611   5.640  16.970 -1.1770  0.1888 -0.1986
 5759TIP3   OH238767   3.731   4.674  13.625  0.5609 -0.1065 -0.0735
 5759TIP3    H138768   3.693   4.611  13.686 -1.3964  2.0570  1.0139
 5759TIP3    H238769   3.678   4.665  13.546  0.0774  0.4048  0.1942
 5760TIP3   OH238770   5.251   3.293   5.812 -0.0851 -0.3305 -0.2701
 5760TIP3    H138771   5.203   3.375   5.830 -2.2147 -1.4731 -0.5257
 5760TIP3    H238772   5.263   3.253   5.898 -0.3805 -0.4493 -0.2816
 5761TIP3   OH238773   6.798   0.393  16.683  0.2832  0.5469  0.3211
 5761TIP3    H138774   6.720   0.448  16.679  0.6791  1.0057 -1.5063
 5761TIP3    H238775   6.771   0.311  16.641  0.3507  0.1543  1.0340
 5762TIP3   OH238776   0.733   4.208  14.236 -0.1310 -0.3762 -0.5766
 5762TIP3    H138777   0.656   4.265  14.239  1.3232  1.5474  0.6964
 5762TIP3    H238778   0.767   4.208  14.325  0.7063 -2.1688 -0.8670
 5763TIP3   OH238779   0.691   1.770   1.108 -0.0113 -0.1928 -0.5798
 5763TIP3    H138780   0.663   1.730   1.191  0.6183 -0.6037 -0.5575
 5763TIP3    H238781   0.623   1.834   1.088 -0.2616 -0.2179  0.1652
 5764TIP3   OH238782   6.291   5.377  16.116  0.0181  0.6457  0.1269
 5764TIP3    H138783   6.366   5.391  16.058  0.5716 -0.3994  0.5763
 5764TIP3    H238784   6.219   5.420  16.072  0.5689  0.3988 -1.0489
 5765TIP3   OH238785   0.913   0.492   2.016 -0.2186 -0.4982 -0.1783
 5765TIP3    H138786   0.863   0.534   2.085 -0.6875 -0.4032 -0.5740
 5765TIP3    H238787   0.943   0.565   1.961 -0.0548 -0.5907 -0.2101
 5766TIP3   OH238788   2.328   3.344  15.636  0.1721 -0.3004 -0.3114
 5766TIP3    H138789   2.250   3.343  15.582  1.3651 -0.0268 -2.0619
 5766TIP3    H238790   2.322   3.264  15.688  0.2568 -1.8799 -2.6676
 5767TIP3   OH238791   3.518   6.350  13.611 -0.2037  0.1750  0.3668
 5767TIP3    H138792   3.577   6.417  13.647  0.7220 -0.5002  0.1302
 5767TIP3    H238793   3.462   6.397  13.550  0.2022  0.8003  0.4722
 5768TIP3   OH238794   2.493   4.316   1.915  0.4908 -0.2311 -0.6105
 5768TIP3    H138795   2.573   4.342   1.962  0.2100 -1.7996  0.8106
 5768TIP3    H238796   2.526   4.272   1.837  1.0246 -0.6193 -0.1780
 5769TIP3   OH238797   6.547   4.497  12.907  0.3116 -0.1424 -0.4640
 5769TIP3    H138798   6.577   4.407  12.891  0.4737  0.2350 -2.4929
 5769TIP3    H238799   6.605   4.531  12.974  1.5345 -0.9109 -1.1243
 5770TIP3   OH238800   3.838   6.325   5.274  0.4462 -0.4642  0.1690
 5770TIP3    H138801   3.862   6.304   5.364  0.7544  1.8179  0.6483
 5770TIP3    H238802   3.884   6.259   5.221  1.2972 -1.0323  1.5780
 5771TIP3   OH238803   3.501   0.550   5.716  0.2901 -0.1714 -0.0248
 5771TIP3    H138804   3.548   0.498   5.651 -2.1342  1.2706 -3.0752
 5771TIP3    H238805   3.410   0.521   5.709 -0.4382  1.8140  0.8422
 5772TIP3   OH238806   5.577   2.698   1.912 -0.7022 -0.5032 -0.4013
 5772TIP3    H138807   5.633   2.757   1.861  0.3783 -1.2689 -0.1027
 5772TIP3    H238808   5.546   2.633   1.848  2.3771 -2.7380  0.2995
 5773TIP3   OH238809   6.292   0.529   5.675 -0.4586 -0.1505 -0.0368
 5773TIP3    H138810   6.213   0.531   5.729 -1.5305  2.2223 -1.6152
 5773TIP3    H238811   6.359   0.571   5.728 -1.3510  1.6173 -0.2828
 5774TIP3   OH238812   3.874   1.079  15.519 -0.1327 -0.0310 -0.5313
 5774TIP3    H138813   3.887   1.044  15.431 -1.2564  1.3465 -1.2683
 5774TIP3    H238814   3.837   1.006  15.569  0.4926 -0.8123 -1.1992
 5775TIP3   OH238815   3.626   1.004  12.060  0.2132 -0.1121  0.1390
 5775TIP3    H138816   3.620   1.087  12.012  0.9469  1.0603  2.0235
 5775TIP3    H238817   3.608   1.028  12.151  1.1821 -1.9100  0.8228
 5776TIP3   OH238818   4.424   6.508  13.906 -0.0802 -0.0806  0.4727
 5776TIP3    H138819   4.452   6.526  13.816  0.8733 -1.2269  0.5249
 5776TIP3    H238820   4.426   6.413  13.913  0.4584  0.0258  1.8978
 5777TIP3   OH238821   1.620   3.067  12.693  0.0253 -0.2584 -0.2606
 5777TIP3    H138822   1.653   2.981  12.720  1.4523  0.4061  0.1670
 5777TIP3    H238823   1.560   3.048  12.621  0.2869 -1.6151 -0.1420
 5778TIP3   OH238824   0.617   5.682   0.528  0.3667  0.5633  0.3844
 5778TIP3    H138825   0.677   5.756   0.534  0.9928  0.0236  0.8468
 5778TIP3    H238826   0.618   5.642   0.615 -1.4748  1.1678  0.7174
 5779TIP3   OH238827   0.463   3.694  12.787  0.0115  0.3412  0.2647
 5779TIP3    H138828   0.457   3.666  12.696 -1.0337  0.2205  0.3594
 5779TIP3    H238829   0.555   3.683  12.810  0.5598  1.7796 -1.2168
 5780TIP3   OH238830   3.741   5.221   3.501  0.2738 -0.2369 -0.4523
 5780TIP3    H138831   3.664   5.189   3.454  1.8602 -0.4992 -2.9809
 5780TIP3    H238832   3.796   5.143   3.511  1.1001  0.3468 -0.4527
 5781TIP3   OH238833   5.197   2.948   2.580 -0.5727 -0.5636  0.3127
 5781TIP3    H138834   5.158   2.989   2.503 -1.2676 -1.1167  0.3626
 5781TIP3    H238835   5.235   2.867   2.546 -0.0843 -0.3680  0.3915
 5782TIP3   OH238836   5.142   5.903   2.772  0.5132  0.7796 -0.2956
 5782TIP3    H138837   5.156   5.935   2.682 -2.4038 -0.5837 -1.2839
 5782TIP3    H238838   5.049   5.884   2.777  1.0318 -1.4244  2.3022
 5783TIP3   OH238839   1.767   2.723   3.204 -0.1724 -0.2867 -0.4498
 5783TIP3    H138840   1.844   2.779   3.204 -0.3387 -0.0631  0.3946
 5783TIP3    H238841   1.801   2.636   3.183  0.1685 -0.0073 -1.0849
 5784TIP3   OH238842   6.742   3.304   5.134  0.4096 -0.2167 -0.4004
 5784TIP3    H138843   6.823   3.343   5.103  0.9148 -1.7658 -1.0830
 5784TIP3    H238844   6.764   3.268   5.220  0.2805 -0.0676 -0.3055
 5785TIP3   OH238845   5.230   5.050   1.421 -0.2165  0.3788  0.0370
 5785TIP3    H138846   5.321   5.028   1.402 -0.4649  0.7063 -1.6132
 5785TIP3    H238847   5.223   5.044   1.516  0.9593 -1.8475  0.0271
 5786TIP3   OH238848   2.621   0.578  14.481  0.0634 -0.9601  0.0572
 5786TIP3    H138849   2.640   0.621  14.564  2.1641  0.9279 -1.3231
 5786TIP3    H238850   2.527   0.563  14.482 -0.2514  0.8863  1.9264
 5787TIP3   OH238851   6.639   6.516   0.457  0.4580  0.1904  0.1212
 5787TIP3    H138852   6.548   6.537   0.437  0.0055 -0.3624  1.5636
 5787TIP3    H238853   6.657   6.438   0.404  0.3443  0.7564 -0.7619
 5788TIP3   OH238854   4.243   0.186   6.078 -0.4105 -0.1279  0.6166
 5788TIP3    H138855   4.271   0.109   6.128  1.3743  1.3911  2.0039
 5788TIP3    H238856   4.293   0.181   5.997  1.9608  1.1115  1.9460
 5789TIP3   OH238857   6.521   6.074   2.866 -0.1366 -0.7004  0.0204
 5789TIP3    H138858   6.495   6.033   2.784 -0.7742  0.3605 -0.3158
 5789TIP3    H238859   6.611   6.103   2.852 -1.0394  1.6426 -1.1636
 5790TIP3   OH238860   0.063   2.958   0.176 -0.2379  0.0146 -0.1428
 5790TIP3    H138861   0.040   3.002   0.257  1.7207 -1.4510  1.2739
 5790TIP3    H238862  -0.017   2.913   0.149 -0.3961 -1.0498  2.0160
 5791TIP3   OH238863   1.111   0.377   5.905 -0.3020 -0.1203  0.3821
 5791TIP3    H138864   1.191   0.362   5.856 -1.0722 -1.0721 -0.6030
 5791TIP3    H238865   1.077   0.289   5.923 -1.1047  0.2711  0.8215
 5792TIP3   OH238866   1.036   0.703   5.498 -0.0483 -0.0136 -0.1548
 5792TIP3    H138867   1.006   0.670   5.414  1.4168  0.1770 -0.7657
 5792TIP3    H238868   1.055   0.795   5.483 -0.9179  0.3251  0.7022
 5793TIP3   OH238869   0.628   6.614  15.344  0.1057 -0.0146 -0.2592
 5793TIP3    H138870   0.576   6.589  15.268  0.1520  0.3681 -0.4189
 5793TIP3    H238871   0.661   6.531  15.379 -0.1093 -0.2092 -0.5161
 5794TIP3   OH238872   3.113   4.888   2.570 -0.2099  0.6003  0.2351
 5794TIP3    H138873   3.051   4.866   2.501 -2.0829  0.8396  1.8115
 5794TIP3    H238874   3.187   4.829   2.555 -2.4150 -2.3169  0.5629
 5795TIP3   OH238875   5.123   5.229  12.747 -0.3302 -0.0839 -0.2176
 5795TIP3    H138876   5.104   5.317  12.714 -0.9382 -0.5105 -1.0271
 5795TIP3    H238877   5.195   5.241  12.808 -0.0512  0.9016 -0.7374
 5796TIP3   OH238878   3.014   6.139  16.407 -0.2309 -0.2873  0.3775
 5796TIP3    H138879   3.018   6.141  16.311  1.0565 -0.5237  0.4224
 5796TIP3    H238880   2.967   6.058  16.427 -3.5443  1.3821 -0.1037
 5797TIP3   OH238881   1.147   6.399  15.912 -0.1206  0.1677 -0.2435
 5797TIP3    H138882   1.074   6.427  15.967  0.0326  2.3157 -1.0867
 5797TIP3    H238883   1.217   6.378  15.974 -0.4480  1.0926  0.4503
 5798TIP3   OH238884   1.571   6.478   5.623  1.1252  0.5971 -0.5753
 5798TIP3    H138885   1.536   6.408   5.679 -1.7020  3.1954  1.0275
 5798TIP3    H238886   1.513   6.479   5.547  0.3866  1.9706 -0.0118
 5799TIP3   OH238887   5.554   3.240  15.939  0.5582 -0.1178  0.1729
 5799TIP3    H138888   5.624   3.245  15.874  0.8519  0.9534  0.5734
 5799TIP3    H238889   5.596   3.260  16.022  0.0668 -0.9308  0.6295
 5800TIP3   OH238890   2.543   3.887   5.450  0.5173  0.3101 -0.1275
 5800TIP3    H138891   2.516   3.819   5.388  1.0257 -1.3294  1.4122
 5800TIP3    H238892   2.461   3.917   5.490  0.2986  0.5714 -0.7681
 5801TIP3   OH238893   0.985   1.290   2.763  0.5880  0.3380 -0.0220
 5801TIP3    H138894   0.940   1.250   2.689 -2.2953 -2.2556  2.9847
 5801TIP3    H238895   0.933   1.367   2.785  1.6341  1.3025 -0.8390
 5802TIP3   OH238896   5.051   1.450   5.439  0.3547 -0.2069 -0.5336
 5802TIP3    H138897   4.975   1.393   5.453  0.8998 -0.6005  0.9114
 5802TIP3    H238898   5.095   1.453   5.524  0.8060  1.7021 -0.8154
 5803TIP3   OH238899   1.258   1.549  11.896  0.5437  1.2249 -0.5918
 5803TIP3    H138900   1.289   1.608  11.964 -0.9030  0.7664  0.4983
 5803TIP3    H238901   1.321   1.477  11.896  0.5165  1.1978  0.3223
 5804TIP3   OH238902   4.335   6.087   3.747  0.6117 -0.6305 -0.2945
 5804TIP3    H138903   4.390   6.024   3.701 -0.8965 -0.7107 -2.0492
 5804TIP3    H238904   4.246   6.054   3.736 -0.2683  1.9985 -1.6411
 5805TIP3   OH238905   4.105   4.642  17.126 -0.7942  0.2403  0.9051
 5805TIP3    H138906   4.161   4.569  17.103 -0.5544  0.6542  0.1845
 5805TIP3    H238907   4.017   4.614  17.101 -0.5961  0.5142 -0.1385
 5806TIP3   OH238908   1.793   4.607  15.404 -0.0248  0.3260 -0.2054
 5806TIP3    H138909   1.793   4.600  15.499 -1.2778  1.9180 -0.0672
 5806TIP3    H238910   1.711   4.566  15.377  1.6097 -2.6271 -0.8373
 5807TIP3   OH238911   6.662   0.313   3.080  0.0249  0.0988 -0.8213
 5807TIP3    H138912   6.696   0.349   3.162  0.4994 -0.8008 -0.6076
 5807TIP3    H238913   6.640   0.389   3.027  1.5395  0.7120 -0.6034
 5808TIP3   OH238914   1.029   2.840   5.406 -0.2349 -0.4715  0.2797
 5808TIP3    H138915   1.024   2.746   5.389 -0.8182 -0.2056 -1.1107
 5808TIP3    H238916   0.965   2.856   5.475 -0.9235 -0.9317 -0.2425
 5809TIP3   OH238917   4.561   4.919   5.078 -0.3567 -0.7181 -0.3444
 5809TIP3    H138918   4.558   5.013   5.059 -0.5121 -0.9639 -1.6321
 5809TIP3    H238919   4.642   4.890   5.038 -0.2947 -1.1283  0.0843
 5810TIP3   OH238920   0.111   2.275  13.002 -0.3002  0.3610 -0.2590
 5810TIP3    H138921   0.131   2.254  12.911  0.5797 -1.2205  0.2882
 5810TIP3    H238922   0.194   2.267  13.049 -0.5730  1.9815  0.5581
 5811TIP3   OH238923   6.106   3.743  14.804  0.0475 -0.1791 -0.2192
 5811TIP3    H138924   6.112   3.661  14.754 -1.9392 -0.1514 -0.5195
 5811TIP3    H238925   6.153   3.725  14.886 -0.6876 -1.7390 -0.1323
 5812TIP3   OH238926   5.578   5.094   0.362  1.0838 -0.2930 -0.0445
 5812TIP3    H138927   5.611   5.022   0.416  2.8182 -0.2041 -0.9549
 5812TIP3    H238928   5.527   5.052   0.293  1.6710 -0.6205 -0.2819
 5813TIP3   OH238929   0.233   0.912  16.499  0.0121 -0.2155 -0.3393
 5813TIP3    H138930   0.243   0.825  16.539  0.4938 -0.2634 -0.5598
 5813TIP3    H238931   0.202   0.968  16.570  3.2513  0.2701  0.7692
 5814TIP3   OH238932   5.903   4.590  12.566 -0.4588  0.4355 -0.2852
 5814TIP3    H138933   5.939   4.618  12.482  0.8283 -1.0757 -0.2553
 5814TIP3    H238934   5.971   4.536  12.605 -0.7208  1.7426  2.1011
 5815TIP3   OH238935   3.842   0.911  12.336  0.3649 -0.6047  0.8288
 5815TIP3    H138936   3.880   0.840  12.387 -0.4989 -2.0936 -0.5324
 5815TIP3    H238937   3.849   0.882  12.245 -0.1887  0.9739  0.2534
 5816TIP3   OH238938   1.268   3.286  11.297  0.3680  0.3041 -0.2400
 5816TIP3    H138939   1.272   3.244  11.212  0.3444  1.7303 -0.9585
 5816TIP3    H238940   1.223   3.369  11.281 -0.6300  0.0989  1.3610
 5817TIP3   OH238941   5.265   6.065  11.763 -0.3474 -0.5444  0.2721
 5817TIP3    H138942   5.216   6.088  11.842 -1.7869 -1.1990 -0.4104
 5817TIP3    H238943   5.203   6.015  11.710  0.5127  0.1013 -1.3904
 5818TIP3   OH238944   6.771   1.149   2.480  0.1190  0.8292  0.1739
 5818TIP3    H138945   6.820   1.126   2.559 -0.2471  2.7941  1.0193
 5818TIP3    H238946   6.838   1.163   2.413  0.4058 -1.2106  0.0322
 5819TIP3   OH238947   0.715   2.160  11.420  0.5952 -0.0477  0.1069
 5819TIP3    H138948   0.794   2.214  11.423  0.6809 -0.2013  0.5729
 5819TIP3    H238949   0.687   2.151  11.511  0.1938 -0.2242 -0.0286
 5820TIP3   OH238950   6.241   4.484   1.663  0.4426  0.0646 -0.2809
 5820TIP3    H138951   6.237   4.430   1.742  1.9629  0.3618  0.0181
 5820TIP3    H238952   6.168   4.545   1.671  1.1834  0.7527  1.4061
 5821TIP3   OH238953   0.290   0.804   4.331  0.1908  0.1403  0.3367
 5821TIP3    H138954   0.194   0.800   4.326  0.1628  1.4002 -0.5480
 5821TIP3    H238955   0.320   0.731   4.277 -0.2709 -0.4369  0.8598
 5822TIP3   OH238956   2.651   2.245   2.547 -0.2195  0.1466  0.0967
 5822TIP3    H138957   2.605   2.178   2.496 -2.0245  1.1043  0.4291
 5822TIP3    H238958   2.714   2.282   2.486 -1.1834  0.1003 -0.9457
 5823TIP3   OH238959   4.915   0.551   2.301 -0.2049  0.2050  0.0233
 5823TIP3    H138960   4.877   0.555   2.214  1.0284 -1.7526 -0.6244
 5823TIP3    H238961   4.861   0.487   2.348  0.2603 -0.1192  0.1173
 5824TIP3   OH238962   0.776   5.013  17.249  0.0984  0.2351  0.1143
 5824TIP3    H138963   0.703   5.003  17.311  0.6988 -0.3405  0.7377
 5824TIP3    H238964   0.822   5.091  17.279 -0.4130  0.7448 -0.4337
 5825TIP3   OH238965   6.693   1.767  15.357  0.0966  0.1174  0.0621
 5825TIP3    H138966   6.748   1.832  15.401  1.5215 -0.4199 -0.8969
 5825TIP3    H238967   6.749   1.691  15.346 -1.0766 -0.7208 -0.2635
 5826TIP3   OH238968   4.289   0.614  14.344  0.1743 -0.6764 -0.1918
 5826TIP3    H138969   4.329   0.582  14.263 -1.4932 -1.7885 -0.5853
 5826TIP3    H238970   4.199   0.636  14.320  1.0946  4.0893  0.1190
 5827TIP3   OH238971   2.959   4.649   2.847  0.3329  0.5665  0.7740
 5827TIP3    H138972   2.993   4.714   2.908  0.9691  2.1859 -1.2554
 5827TIP3    H238973   2.868   4.637   2.872  0.0112  2.8028  0.7156
 5828TIP3   OH238974   6.581   5.752   3.187  0.0544 -0.2997 -0.2787
 5828TIP3    H138975   6.521   5.717   3.122  0.7014 -1.4074 -0.2866
 5828TIP3    H238976   6.662   5.772   3.139  0.1440 -0.0426 -0.0284
 5829TIP3   OH238977   4.391   5.372  11.421  0.4511  0.4785 -0.3331
 5829TIP3    H138978   4.446   5.435  11.374  2.1566  0.4641  1.5540
 5829TIP3    H238979   4.426   5.371  11.510 -1.1888 -1.2386  0.3438
 5830TIP3   OH238980   2.036   1.150   1.984  0.0764 -0.0916  0.0321
 5830TIP3    H138981   2.107   1.155   2.047 -0.7618 -1.7758  1.1400
 5830TIP3    H238982   1.956   1.150   2.038 -0.7068  0.0402 -1.1082
 5831TIP3   OH238983   2.601   1.752  15.501  0.1047  0.4421 -0.2874
 5831TIP3    H138984   2.643   1.669  15.477 -2.3076 -0.9716  0.2002
 5831TIP3    H238985   2.663   1.819  15.472  2.3525 -1.5291 -0.2048
 5832TIP3   OH238986   2.811   2.011   4.277  0.1014  0.0313  0.6585
 5832TIP3    H138987   2.745   1.972   4.221 -0.4955 -0.2508  1.5429
 5832TIP3    H238988   2.764   2.079   4.325  0.3903 -0.3265  1.4608
 5833TIP3   OH238989   4.661   1.333  16.747 -0.1753  0.5090 -0.2256
 5833TIP3    H138990   4.686   1.391  16.819 -1.4422  3.0396 -1.7535
 5833TIP3    H238991   4.565   1.340  16.743 -0.3023 -1.2150 -0.8764
 5834TIP3   OH238992   5.606   4.564  10.736 -0.1316 -0.6584 -0.8279
 5834TIP3    H138993   5.683   4.518  10.770  0.8205  1.1806 -0.4072
 5834TIP3    H238994   5.618   4.567  10.641 -0.0275 -0.9863 -0.8219
 5835TIP3   OH238995   2.103   0.008   4.937  0.3177  0.3778  0.2786
 5835TIP3    H138996   2.089   0.011   5.031  0.0101 -0.7271  0.2740
 5835TIP3    H238997   2.079   0.096   4.906 -1.3797  0.1660  0.9670
 5836TIP3   OH238998   5.817   6.653  11.700  0.7440 -0.1074  0.5806
 5836TIP3    H138999   5.728   6.643  11.666  0.4290  0.9607  1.1101
 5836TIP3    H239000   5.826   6.583  11.765  0.3446 -0.2955  0.4353
 5837TIP3   OH239001   5.342   0.087  11.758  0.0447 -0.1737  0.5137
 5837TIP3    H139002   5.324   0.036  11.837  0.7490  1.1485  1.5473
 5837TIP3    H239003   5.429   0.124  11.772  0.0343  0.3449 -0.7268
 5838TIP3   OH239004   4.003   2.220   1.311 -0.4425  0.9054 -0.2384
 5838TIP3    H139005   3.915   2.249   1.286  0.0441  2.0135 -0.6937
 5838TIP3    H239006   4.030   2.162   1.241 -2.0976 -2.1120  1.5016
 5839TIP3   OH239007   4.186   5.085   2.569  0.1487 -0.2859 -1.1886
 5839TIP3    H139008   4.098   5.102   2.534 -0.9810  0.0811  1.6912
 5839TIP3    H239009   4.202   4.992   2.551 -2.0040 -1.0560  0.6665
 5840TIP3   OH239010   0.171   0.817  11.328  0.2213 -0.2927  0.2219
 5840TIP3    H139011   0.222   0.770  11.394  0.0107  0.5278  0.9873
 5840TIP3    H239012   0.160   0.754  11.257  1.3554 -0.8382  0.5147
 5841TIP3   OH239013   5.968   3.084   0.646  0.6234 -0.6723  0.4284
 5841TIP3    H139014   5.980   3.042   0.561  0.6363  1.7131 -0.7930
 5841TIP3    H239015   5.991   3.017   0.710 -0.7221 -2.9455 -1.4075
 5842TIP3   OH239016   1.226   0.267   6.712  0.3686 -0.0537  0.4366
 5842TIP3    H139017   1.251   0.184   6.670  1.7622 -0.0300  1.2010
 5842TIP3    H239018   1.204   0.242   6.802 -0.3207  0.2417  0.3512
 5843TIP3   OH239019   4.143   0.831   0.759 -0.2823  0.6032  0.3406
 5843TIP3    H139020   4.171   0.744   0.787 -0.4458 -0.0132 -1.3198
 5843TIP3    H239021   4.122   0.878   0.840  1.3163 -0.3766  1.3394
 5844TIP3   OH239022   2.211   1.264   0.695 -0.1871  1.2334  0.3904
 5844TIP3    H139023   2.195   1.357   0.686 -2.6321  0.8534  0.6094
 5844TIP3    H239024   2.200   1.246   0.788  1.7147  0.9652  0.5839
 5845TIP3   OH239025   1.569   1.774   3.582 -0.0279  0.1138 -0.7515
 5845TIP3    H139026   1.477   1.752   3.568 -0.3833  1.8670 -1.3348
 5845TIP3    H239027   1.585   1.847   3.521  1.7895 -0.3152 -0.7968
 5846TIP3   OH239028   1.430   0.320   1.676 -0.2069  0.3971  0.1648
 5846TIP3    H139029   1.384   0.379   1.616 -0.6578 -0.6900 -0.5751
 5846TIP3    H239030   1.360   0.280   1.728  0.2885  2.4774  2.5033
 5847TIP3   OH239031   0.978   4.858  11.795 -0.5869 -0.3140 -0.5987
 5847TIP3    H139032   0.932   4.788  11.842  0.7915 -0.7719  0.0967
 5847TIP3    H239033   1.069   4.851  11.825 -0.5618  2.2246  0.0294
 5848TIP3   OH239034   6.399   4.525   0.294 -0.1709 -0.0087 -0.0371
 5848TIP3    H139035   6.323   4.525   0.235  1.5418 -0.9458 -2.3187
 5848TIP3    H239036   6.386   4.448   0.349  0.2614 -1.5300 -1.9982
 5849TIP3   OH239037   0.248   0.413   4.305  0.1356  0.1283  0.3751
 5849TIP3    H139038   0.163   0.424   4.263  0.6100  1.1164 -0.3435
 5849TIP3    H239039   0.302   0.368   4.240 -0.5405 -2.7113  1.7363
 5850TIP3   OH239040   6.220   1.990  12.369  0.0562  0.3283 -0.0316
 5850TIP3    H139041   6.158   2.062  12.358  1.0581  0.7540 -3.4399
 5850TIP3    H239042   6.302   2.024  12.335  0.9554 -1.8658 -0.1354
 5851TIP3   OH239043   4.905   1.903   2.442  0.0498  0.3098  0.0585
 5851TIP3    H139044   4.925   1.943   2.527 -1.5547 -0.6227  0.8998
 5851TIP3    H239045   4.967   1.829   2.436 -1.5429 -1.2022  1.6241
 5852TIP3   OH239046   6.156   3.484  14.766  0.2302  0.0289  0.0087
 5852TIP3    H139047   6.228   3.475  14.704  0.6383  0.8389  0.3509
 5852TIP3    H239048   6.135   3.395  14.792  1.7618 -0.1786  0.6290
 5853TIP3   OH239049   0.554   5.591   0.792  0.1918 -0.2292 -0.1569
 5853TIP3    H139050   0.615   5.558   0.859 -2.0725 -1.9809  1.1094
 5853TIP3    H239051   0.520   5.672   0.829 -0.2743 -0.6596  0.3720
 5854TIP3   OH239052   5.051   1.983  12.154 -0.2829  0.1017 -0.4340
 5854TIP3    H139053   5.025   2.053  12.213 -1.5100 -2.2497  1.9029
 5854TIP3    H239054   5.138   1.958  12.183 -0.0697  0.2692 -0.9177
 5855TIP3   OH239055   2.410   0.825  17.034  0.2080 -0.1149 -0.2370
 5855TIP3    H139056   2.430   0.862  16.948  2.1360  0.6821  0.5036
 5855TIP3    H239057   2.337   0.877  17.067 -1.0043 -0.8954 -1.6830
 5856TIP3   OH239058   4.433   1.666   4.102 -0.2402  0.0478  0.5669
 5856TIP3    H139059   4.344   1.632   4.111 -0.8316  1.6155  0.7053
 5856TIP3    H239060   4.431   1.752   4.144  1.2205  0.2982  0.1693
 5857TIP3   OH239061   1.171   1.589   3.111 -0.7753 -0.7798 -0.5561
 5857TIP3    H139062   1.201   1.541   3.188 -0.5883 -1.6357 -1.1549
 5857TIP3    H239063   1.155   1.521   3.045  0.1005  0.0344 -1.6258
 5858TIP3   OH239064   2.030   0.093   3.980  0.5794 -0.3904  0.2461
 5858TIP3    H139065   1.942   0.131   3.981  1.6230  2.2262 -2.0733
 5858TIP3    H239066   2.068   0.118   4.064 -0.3427 -0.2399  0.6238
 5859TIP3   OH239067   3.640   1.882  10.886 -0.0932 -0.3762 -0.1658
 5859TIP3    H139068   3.675   1.797  10.857  0.3773 -0.8499  1.7290
 5859TIP3    H239069   3.555   1.888  10.843  0.3278 -1.3255 -1.1702
 5860TIP3   OH239070   6.388   0.249   4.002 -0.0292 -0.0903  0.0658
 5860TIP3    H139071   6.450   0.176   3.999  0.8971  0.7308 -1.7664
 5860TIP3    H239072   6.334   0.237   3.923 -0.5738  0.5985  0.3319
 5861TIP3   OH239073   6.270   6.748   4.613  0.0198  0.3565  0.0204
 5861TIP3    H139074   6.349   6.696   4.604 -0.7641 -0.6412 -1.2811
 5861TIP3    H239075   6.200   6.684   4.628 -0.3947  1.2910  2.3286
 5862TIP3   OH239076   0.529   2.916  11.873 -0.3952  0.6743  0.0848
 5862TIP3    H139077   0.472   2.891  11.800  1.7906  0.7642 -1.6767
 5862TIP3    H239078   0.496   2.865  11.947 -3.3323  1.3859 -0.6325
 5863TIP3   OH239079   3.132   5.151   2.321 -0.1717  0.2455 -0.5027
 5863TIP3    H139080   3.092   5.190   2.398 -1.0251 -0.4043 -0.6148
 5863TIP3    H239081   3.194   5.086   2.357 -2.6866 -2.1686 -0.3630
 5864TIP3   OH239082   3.206   0.757  15.980  0.2184 -0.5821 -0.1228
 5864TIP3    H139083   3.143   0.728  16.046  1.7249 -1.2198  1.0593
 5864TIP3    H239084   3.233   0.844  16.010  0.5873 -0.6981 -0.1092
 5865TIP3   OH239085   4.548   3.259  16.909 -0.6003  0.1887  0.5427
 5865TIP3    H139086   4.481   3.197  16.880 -1.0957  0.9997 -0.0180
 5865TIP3    H239087   4.630   3.208  16.907 -0.2753  0.7328 -4.0583
 5866TIP3   OH239088   4.372   6.366   4.783  0.6344  0.3570  0.0579
 5866TIP3    H139089   4.380   6.439   4.844 -3.0554 -0.1647  1.2266
 5866TIP3    H239090   4.430   6.298   4.819  0.8572  1.1637  1.2481
 5867TIP3   OH239091   3.200   5.046   3.503  0.0406  0.2076  0.3849
 5867TIP3    H139092   3.291   5.018   3.518 -0.2893 -2.1443 -1.8653
 5867TIP3    H239093   3.206   5.110   3.432 -0.2488 -1.2612 -0.9677
 5868TIP3   OH239094   3.731   4.912   3.445 -0.1267  0.0955  0.3898
 5868TIP3    H139095   3.669   4.931   3.516  0.4878  1.5903  0.5455
 5868TIP3    H239096   3.814   4.947   3.476  0.1031  0.9650 -1.1760
 5869TIP3   OH239097   3.608   0.753  16.521 -0.1244  0.2227  0.1218
 5869TIP3    H139098   3.624   0.661  16.543 -0.7489 -0.0804 -0.6842
 5869TIP3    H239099   3.611   0.798  16.605 -0.2149 -0.5942  0.5741
 5870TIP3   OH239100   0.949   6.736  10.505  0.5272 -0.2436  0.4718
 5870TIP3    H139101   0.943   6.829  10.526 -3.4370 -0.7092  1.6966
 5870TIP3    H239102   0.991   6.697  10.583  0.8780  0.3023  0.5613
 5871TIP3   OH239103   6.028   6.293   5.173  0.8012 -0.4225 -0.0479
 5871TIP3    H139104   6.028   6.383   5.141 -0.4138 -0.0870  0.8605
 5871TIP3    H239105   6.069   6.299   5.260 -0.1018 -0.5943  0.3946
 5872TIP3   OH239106   1.366   3.426   2.679 -0.3364 -0.1445 -0.1253
 5872TIP3    H139107   1.451   3.445   2.640  1.1016 -1.6929  2.0948
 5872TIP3    H239108   1.341   3.508   2.722  1.4931 -0.4857  1.7043
 5873TIP3   OH239109   1.722   3.678   4.424 -0.2481 -0.0009  0.0240
 5873TIP3    H139110   1.627   3.670   4.420 -0.4783  2.5675 -0.3210
 5873TIP3    H239111   1.741   3.767   4.395  2.3250 -0.6754 -0.5637
 5874TIP3   OH239112   0.427   2.355  17.008  0.0442 -0.3068 -0.4984
 5874TIP3    H139113   0.490   2.298  16.965 -0.6106 -1.1284 -0.3969
 5874TIP3    H239114   0.471   2.383  17.088  0.5105 -0.3822 -0.7245
 5875TIP3   OH239115   3.594   3.059   0.182 -0.1518  0.1830  0.6404
 5875TIP3    H139116   3.663   3.018   0.130 -1.2504 -2.1718  0.9694
 5875TIP3    H239117   3.513   3.022   0.146 -1.1596  1.9137  1.1148
 5876TIP3   OH239118   1.451   0.278  12.492  0.3892  0.2656 -0.2938
 5876TIP3    H139119   1.540   0.257  12.519  0.0582  0.2518  0.7996
 5876TIP3    H239120   1.411   0.193  12.473 -0.0895  0.0895  1.4322
 5877TIP3   OH239121   1.265   1.232  14.427  0.6128  0.0969 -0.0261
 5877TIP3    H139122   1.213   1.155  14.402 -0.7933  1.4766 -1.5295
 5877TIP3    H239123   1.353   1.212  14.396  0.3173 -1.0003 -0.2064
 5878TIP3   OH239124   6.639   2.871   5.216  0.3203 -0.5774  0.3639
 5878TIP3    H139125   6.617   2.906   5.303  3.0765  0.0725  0.8575
 5878TIP3    H239126   6.653   2.778   5.230 -0.3762 -0.6804  0.3835
 5879TIP3   OH239127   3.719   1.619   1.938 -0.5129 -0.5486 -0.1300
 5879TIP3    H139128   3.639   1.642   1.984 -0.9611  0.2303 -1.2584
 5879TIP3    H239129   3.705   1.529   1.909 -0.7522 -0.6036  0.1570
 5880TIP3   OH239130   3.194   6.273  14.040 -0.0037 -0.6446  0.4840
 5880TIP3    H139131   3.208   6.184  14.073  0.1846 -1.3201 -1.3100
 5880TIP3    H239132   3.136   6.261  13.964  1.1638  0.5956 -0.6275
 5881TIP3   OH239133   1.063   5.231   6.500  0.0531 -0.2344  0.8859
 5881TIP3    H139134   1.129   5.175   6.458 -0.6542 -2.7947  3.0209
 5881TIP3    H239135   0.980   5.188   6.481 -0.6338  0.8316  1.4552
 5882TIP3   OH239136   2.404   0.180   3.631 -0.6337 -0.4483 -0.2936
 5882TIP3    H139137   2.388   0.137   3.715  0.4632 -1.1887 -0.4458
 5882TIP3    H239138   2.499   0.174   3.619 -0.9068 -1.5677 -2.2185
 5883TIP3   OH239139   0.367   6.067   1.087  0.2529 -0.6091  0.5868
 5883TIP3    H139140   0.308   6.118   1.032  1.0512 -0.5139 -0.1798
 5883TIP3    H239141   0.444   6.123   1.097  0.3406 -0.8589  1.3451
 5884TIP3   OH239142   6.703   1.654  14.765 -0.0352  0.2550 -0.8471
 5884TIP3    H139143   6.735   1.740  14.736 -2.7845  0.7103 -2.7163
 5884TIP3    H239144   6.654   1.672  14.845 -0.1294  0.3487 -0.9255
 5885TIP3   OH239145   6.815   2.520   4.150  0.2258  0.0215 -0.5136
 5885TIP3    H139146   6.778   2.482   4.071 -0.1448  1.3858 -1.0081
 5885TIP3    H239147   6.787   2.611   4.149  1.0463  0.3099  0.6806
 5886TIP3   OH239148   2.854   6.280   3.678  0.0817  0.3950  0.1598
 5886TIP3    H139149   2.769   6.299   3.717 -0.0392 -0.5211  0.3459
 5886TIP3    H239150   2.838   6.285   3.584 -0.5238 -1.1727  0.1584
 5887TIP3   OH239151   3.756   1.846  15.133  0.0110 -0.0013  0.1204
 5887TIP3    H139152   3.761   1.813  15.222  0.0372  0.5502  0.3205
 5887TIP3    H239153   3.761   1.767  15.078  0.9210 -0.2600  0.5713
 5888TIP3   OH239154   2.066   6.098   0.166 -0.0253  0.3829 -0.2141
 5888TIP3    H139155   1.978   6.116   0.134 -0.7047 -1.6193  0.4329
 5888TIP3    H239156   2.109   6.183   0.167 -1.5742  1.2115 -1.6443
 5889TIP3   OH239157   4.732   0.176   4.265  0.0560  0.1510 -0.2436
 5889TIP3    H139158   4.679   0.151   4.190  0.6797 -0.8399 -0.3614
 5889TIP3    H239159   4.773   0.258   4.240 -0.9900  0.6470 -0.3580
 5890TIP3   OH239160   0.275   6.442   6.182  0.9343  0.0855  0.2764
 5890TIP3    H139161   0.278   6.414   6.090 -1.3242 -0.0714  0.2032
 5890TIP3    H239162   0.264   6.361   6.232 -1.3856  0.4204  0.3830
 5891TIP3   OH239163   5.706   1.706   1.164 -0.1107  0.7848 -0.1687
 5891TIP3    H139164   5.736   1.778   1.218 -0.2317  2.3873 -2.1838
 5891TIP3    H239165   5.670   1.748   1.085 -1.5124 -1.3851 -0.7399
 5892TIP3   OH239166   5.583   1.655   3.119 -0.2171 -0.4697 -0.0347
 5892TIP3    H139167   5.526   1.717   3.072 -0.2079 -0.1012  0.4424
 5892TIP3    H239168   5.587   1.579   3.061  1.0227  0.5736 -1.3584
 5893TIP3   OH239169   1.831   1.570   5.008  0.4574  1.3118 -0.6428
 5893TIP3    H139170   1.806   1.651   4.963 -0.3027 -0.2669 -3.1731
 5893TIP3    H239171   1.748   1.530   5.033  0.7404  0.2462 -1.3889
 5894TIP3   OH239172   1.403   0.311  15.009  0.5146 -0.3313  0.6180
 5894TIP3    H139173   1.462   0.235  15.017  0.4262 -0.3317  1.2741
 5894TIP3    H239174   1.431   0.354  14.928 -0.2869 -1.8067 -0.4632
 5895TIP3   OH239175   2.895   6.652   5.141  0.1973 -0.0290  0.1736
 5895TIP3    H139176   2.877   6.558   5.134 -0.7266  0.2300 -1.0470
 5895TIP3    H239177   2.914   6.666   5.234 -0.9040 -1.2073  0.5897
 5896TIP3   OH239178   5.056   3.773   0.040 -0.3598 -0.5359  0.2935
 5896TIP3    H139179   5.090   3.712   0.106 -0.1615 -0.0851  0.6101
 5896TIP3    H239180   5.128   3.783  -0.022 -0.2193 -0.2616  0.4971
 5897TIP3   OH239181   4.059   5.885   2.022 -0.1138 -0.0834 -0.2097
 5897TIP3    H139182   4.035   5.804   1.976  0.7093  0.0471 -0.8813
 5897TIP3    H239183   3.989   5.947   1.999 -0.2079 -0.3014 -0.5163
 5898TIP3   OH239184   2.341   0.359  10.658  0.7627 -0.5250 -0.3191
 5898TIP3    H139185   2.267   0.396  10.611  0.6568 -0.3939 -0.0520
 5898TIP3    H239186   2.412   0.356  10.594  1.1777  1.4192  0.0337
 5899TIP3   OH239187   4.246   4.454   4.095  0.3549  0.2644 -0.2466
 5899TIP3    H139188   4.282   4.499   4.019  0.9634 -2.1287 -1.4205
 5899TIP3    H239189   4.301   4.482   4.168  0.4592  1.7155 -0.8606
 5900TIP3   OH239190   3.849   1.126   4.814 -0.5647 -0.2631 -0.1542
 5900TIP3    H139191   3.811   1.142   4.727  1.4885 -1.2480 -1.2756
 5900TIP3    H239192   3.795   1.178   4.874 -2.3698 -0.0111 -1.9422
 5901TIP3   OH239193   6.557   6.636  14.029 -0.6787 -0.5550 -0.6283
 5901TIP3    H139194   6.479   6.620  14.082 -0.6492 -2.2326 -1.0769
 5901TIP3    H239195   6.628   6.596  14.078 -0.4116 -0.7819 -1.1997
 5902TIP3   OH239196   3.920   3.609   4.857 -0.2464 -0.5798  0.1265
 5902TIP3    H139197   3.888   3.693   4.824  0.5385 -0.6771 -0.9239
 5902TIP3    H239198   3.841   3.560   4.881 -0.8129 -0.2925 -1.1361
 5903TIP3   OH239199   4.945   0.707   2.913  0.5086 -0.6244  0.0056
 5903TIP3    H139200   5.006   0.777   2.888 -0.6787  0.6227  0.5324
 5903TIP3    H239201   4.981   0.672   2.995 -0.3915  1.2792  1.2500
 5904TIP3   OH239202   3.695   3.577  14.148 -0.3149  0.3491 -0.2093
 5904TIP3    H139203   3.701   3.507  14.214  1.9418  0.0403 -0.7194
 5904TIP3    H239204   3.608   3.565  14.109  0.5270 -3.0552 -1.2498
 5905TIP3   OH239205   4.301   0.876  12.919  0.9979  0.0325  0.2392
 5905TIP3    H139206   4.329   0.964  12.896  1.1167 -0.0802 -0.0513
 5905TIP3    H239207   4.349   0.856  13.000 -0.0786  0.7547  1.0590
 5906TIP3   OH239208   2.295   2.096   5.437 -0.0094 -0.3839  0.1050
 5906TIP3    H139209   2.243   2.066   5.362 -0.2884  1.1928 -0.3354
 5906TIP3    H239210   2.384   2.102   5.402  0.0375 -0.6341  0.1799
 5907TIP3   OH239211   4.617   5.937   1.186  0.4791 -1.1317 -0.4670
 5907TIP3    H139212   4.609   5.899   1.274 -0.8911 -0.8186 -0.4420
 5907TIP3    H239213   4.683   6.006   1.196  1.3687 -2.0495 -0.0089
 5908TIP3   OH239214   1.355   4.190  14.303 -0.0550  0.0912  0.6048
 5908TIP3    H139215   1.322   4.218  14.218  2.7444 -1.2433 -0.9617
 5908TIP3    H239216   1.378   4.098  14.291  0.9427  0.0428  2.6578
 5909TIP3   OH239217   0.869   5.837  13.086 -0.1829  0.3931  0.2331
 5909TIP3    H139218   0.804   5.899  13.054 -0.0714 -0.1711 -1.1189
 5909TIP3    H239219   0.903   5.795  13.007 -0.1086 -1.2433  1.1159
 5910TIP3   OH239220   2.908   0.129  13.421 -0.2949  0.3943 -0.3215
 5910TIP3    H139221   2.837   0.066  13.417 -1.1773  1.4135 -0.7651
 5910TIP3    H239222   2.986   0.078  13.396 -1.0455 -0.4408 -1.0190
 5911TIP3   OH239223   4.991   5.629   4.531  0.2216  0.4153 -0.5904
 5911TIP3    H139224   4.948   5.663   4.609  0.1421 -0.1506 -0.3844
 5911TIP3    H239225   4.956   5.680   4.459 -0.5461  0.1819 -0.3846
 5912TIP3   OH239226   2.193   1.599  14.451 -0.5635  0.4144  0.1447
 5912TIP3    H139227   2.196   1.573  14.543 -0.5261 -1.4462 -0.3584
 5912TIP3    H239228   2.172   1.692  14.452 -1.3883  0.2104  2.0114
 5913TIP3   OH239229   0.237   1.398   5.943 -0.2443  0.5640  0.0531
 5913TIP3    H139230   0.227   1.303   5.940 -0.6496  0.5955  0.4187
 5913TIP3    H239231   0.181   1.430   5.872  0.5700  0.4803 -0.6372
 5914TIP3   OH239232   6.701   2.995   0.576 -0.2010 -0.0115 -0.5623
 5914TIP3    H139233   6.718   2.915   0.626  0.8268  1.0680  0.8295
 5914TIP3    H239234   6.766   3.058   0.608 -0.5249  1.1533 -2.1796
 5915TIP3   OH239235   0.232   6.370   4.873  0.4787 -0.5072 -0.4133
 5915TIP3    H139236   0.281   6.423   4.811  2.8587 -1.9918  0.1654
 5915TIP3    H239237   0.209   6.430   4.944 -0.2316  0.6293 -1.5887
 5916TIP3   OH239238   4.433   0.966  11.408  0.2050 -0.2823 -0.8598
 5916TIP3    H139239   4.492   1.001  11.341 -0.0174 -0.6449 -1.2462
 5916TIP3    H239240   4.370   1.036  11.423 -0.2285 -0.5079 -1.6145
 5917TIP3   OH239241   2.943   0.433   3.647 -0.6806  0.0257 -0.1797
 5917TIP3    H139242   2.981   0.442   3.735  0.4987 -0.5708 -0.6179
 5917TIP3    H239243   2.982   0.353   3.612 -1.4299  0.0583 -1.1197
 5918TIP3   OH239244   2.011   5.364   4.793  0.5336 -0.4324 -0.5225
 5918TIP3    H139245   2.073   5.325   4.854  0.2761  1.2585  0.8589
 5918TIP3    H239246   2.054   5.443   4.762 -0.6384  0.3817 -0.0954
 5919TIP3   OH239247   5.832   2.664   2.760  0.3229 -0.1168 -0.3077
 5919TIP3    H139248   5.884   2.691   2.836  0.7260 -0.1344 -0.5729
 5919TIP3    H239249   5.888   2.685   2.685 -0.5828  1.0762 -0.6733
 5920TIP3   OH239250   6.574   6.180  12.881  0.0546  0.7836 -0.0168
 5920TIP3    H139251   6.629   6.104  12.865  1.2893  1.7092 -0.2569
 5920TIP3    H239252   6.531   6.162  12.964 -1.0831 -0.9809 -0.9445
 5921TIP3   OH239253   6.200   1.358  12.722  0.5572 -0.3952 -0.4556
 5921TIP3    H139254   6.117   1.333  12.764  0.5230 -0.2465 -0.4345
 5921TIP3    H239255   6.265   1.299  12.760  0.3471 -0.9614 -0.9740
 5922TIP3   OH239256   6.568   2.167   1.039  0.3402 -0.7468  0.2438
 5922TIP3    H139257   6.493   2.225   1.022  1.3051 -0.6333 -3.9993
 5922TIP3    H239258   6.610   2.205   1.116 -0.7080  2.5710 -0.7356
 5923TIP3   OH239259   3.797   2.802   6.170  0.2456 -0.1049  0.0862
 5923TIP3    H139260   3.882   2.758   6.164  0.1638 -0.5313  1.8100
 5923TIP3    H239261   3.744   2.762   6.101  2.0968  1.7113 -2.4864
 5924TIP3   OH239262   6.794   6.489   0.207 -0.7371  0.4756 -0.0283
 5924TIP3    H139263   6.755   6.455   0.126  0.8814  1.5282 -1.2773
 5924TIP3    H239264   6.855   6.421   0.235 -1.4395  0.0282  0.4029
 5925TIP3   OH239265   5.777   4.620   4.479 -0.1378  0.5571  0.2311
 5925TIP3    H139266   5.849   4.682   4.489 -1.2276  1.3922  3.5489
 5925TIP3    H239267   5.771   4.577   4.565 -4.3119  1.3850  0.4396
 5926TIP3   OH239268   5.014   5.929   2.343  0.2463 -0.3736  0.4077
 5926TIP3    H139269   5.086   5.866   2.353  1.1635  0.9678  2.6588
 5926TIP3    H239270   5.057   6.008   2.311 -0.6931 -0.4617 -1.0867
 5927TIP3   OH239271   2.871   5.797  13.303 -0.4957 -0.5582  0.4806
 5927TIP3    H139272   2.933   5.870  13.296 -1.8260  0.7041  1.5654
 5927TIP3    H239273   2.815   5.804  13.226 -1.8891  0.7823  1.5988
 5928TIP3   OH239274   5.456   5.836  11.160  0.3359 -0.3157 -0.6262
 5928TIP3    H139275   5.360   5.830  11.156  0.0903  1.6753  1.2639
 5928TIP3    H239276   5.480   5.890  11.085 -0.5933  3.8704  1.9411
 5929TIP3   OH239277   3.935   0.767   3.637 -0.0680  0.1178  0.1484
 5929TIP3    H139278   3.863   0.709   3.614 -0.0770  0.4929 -0.7811
 5929TIP3    H239279   3.908   0.808   3.720  0.8289 -2.7124  1.9009
 5930TIP3   OH239280   6.554   4.746   3.607 -0.3168  0.8483  0.0566
 5930TIP3    H139281   6.570   4.773   3.517 -0.2127  0.9106  0.0929
 5930TIP3    H239282   6.459   4.744   3.616 -0.3249  1.1785  0.0448
 5931TIP3   OH239283   3.424   4.915  16.424 -0.0888 -0.1647  0.4399
 5931TIP3    H139284   3.363   4.849  16.392 -0.9869  1.1215 -0.5450
 5931TIP3    H239285   3.510   4.885  16.394 -0.4861 -0.8992  0.0290
 5932TIP3   OH239286   5.372   4.379   5.336  0.0076  0.3318 -0.3237
 5932TIP3    H139287   5.403   4.469   5.328 -0.6298  0.4664 -1.4133
 5932TIP3    H239288   5.421   4.330   5.270 -0.7629  0.1943 -0.8091
 5933TIP3   OH239289   4.330   5.026   6.306  0.5716  0.0543  0.3800
 5933TIP3    H139290   4.360   4.938   6.282  0.0538  0.2815 -1.1754
 5933TIP3    H239291   4.387   5.052   6.378  1.1749 -1.2951  0.4051
 5934TIP3   OH239292   3.686   2.736  15.459  0.1487  0.1300 -0.1430
 5934TIP3    H139293   3.609   2.720  15.513  0.7694  3.3321  1.8383
 5934TIP3    H239294   3.652   2.741  15.370 -1.8256  0.6628  0.6089
 5935TIP3   OH239295   5.741   0.036   4.579  0.0583  0.1035  0.2488
 5935TIP3    H139296   5.786  -0.033   4.628 -1.5107  1.1532  3.2483
 5935TIP3    H239297   5.650   0.030   4.606 -0.8027  0.9852 -2.2871
 5936TIP3   OH239298   2.752   6.209   6.709  0.1566  0.1564  0.0334
 5936TIP3    H139299   2.810   6.137   6.681  1.7715  1.7699 -0.8555
 5936TIP3    H239300   2.726   6.184   6.798 -0.2803 -2.1070 -0.6775
 5937TIP3   OH239301   1.620   5.460   0.583 -0.5950  0.4881  0.4781
 5937TIP3    H139302   1.604   5.427   0.671  0.1574 -1.0338  0.0717
 5937TIP3    H239303   1.558   5.411   0.528 -0.1572  0.4719 -0.0040
 5938TIP3   OH239304   1.472   6.467   0.409 -0.6359  0.0035 -0.3006
 5938TIP3    H139305   1.550   6.461   0.463  0.6271  0.5805 -2.0004
 5938TIP3    H239306   1.440   6.557   0.421 -0.8763 -0.1452  0.1746
 5939TIP3   OH239307   3.739   6.234   4.967 -0.1700 -0.3403 -1.0151
 5939TIP3    H139308   3.813   6.186   5.003 -0.6935  1.0968  2.1514
 5939TIP3    H239309   3.777   6.296   4.905  0.8408 -2.2387 -2.3513
 5940TIP3   OH239310   3.450   5.930  13.212  0.6074  0.1388 -0.1834
 5940TIP3    H139311   3.457   6.023  13.191  1.5169 -0.2172 -1.5447
 5940TIP3    H239312   3.538   5.906  13.243  0.5322 -0.3831 -0.3644
 5941TIP3   OH239313   1.203   3.897  13.006  0.0400  0.3308  0.2701
 5941TIP3    H139314   1.197   3.939  13.092 -1.9918 -0.2207  0.4122
 5941TIP3    H239315   1.243   3.812  13.023  1.4529  1.0027  0.3830
 5942TIP3   OH239316   4.343   6.596  14.188  0.4243 -0.3554 -0.5391
 5942TIP3    H139317   4.382   6.670  14.235 -0.5342  0.0342 -0.3316
 5942TIP3    H239318   4.348   6.622  14.096 -1.7621  0.9098 -0.3321
 5943TIP3   OH239319   3.945   3.780  12.090  0.4633  0.5284  0.8860
 5943TIP3    H139320   3.850   3.778  12.074  0.3603 -0.4547  1.5271
 5943TIP3    H239321   3.953   3.753  12.182  1.4859 -1.5462  0.2187
 5944TIP3   OH239322   6.042   3.493   2.711 -0.0477  0.4126 -0.8220
 5944TIP3    H139323   6.020   3.578   2.749  0.5795  1.4921 -2.8136
 5944TIP3    H239324   6.122   3.466   2.755 -0.0688  1.0040 -0.4217
 5945TIP3   OH239325   5.460   2.732   5.183 -0.2666 -0.1092 -0.0300
 5945TIP3    H139326   5.455   2.642   5.150 -1.6152 -0.5352  1.2386
 5945TIP3    H239327   5.552   2.744   5.206  0.5134 -0.0964 -3.0324
 5946TIP3   OH239328   2.412   6.028  12.882 -0.6234  0.3277 -0.0472
 5946TIP3    H139329   2.454   6.092  12.938 -2.3424  1.8711 -0.4606
 5946TIP3    H239330   2.333   6.072  12.851 -0.3136 -0.8899 -2.7385
 5947TIP3   OH239331   3.938   5.490  12.092 -0.5558 -0.2692 -0.0070
 5947TIP3    H139332   4.027   5.520  12.074 -0.7459  0.6626  0.5443
 5947TIP3    H239333   3.932   5.491  12.187 -1.8733  1.8917 -0.0807
 5948TIP3   OH239334   3.784   1.302   0.098 -0.3809 -0.2501  0.2099
 5948TIP3    H139335   3.852   1.297   0.031 -0.7080 -1.1891 -0.0641
 5948TIP3    H239336   3.831   1.316   0.180  0.2162 -1.8799  0.1580
 5949TIP3   OH239337   3.228   2.693   2.822  0.2467 -0.0087  0.1136
 5949TIP3    H139338   3.269   2.613   2.791 -0.7582 -0.1198 -0.9723
 5949TIP3    H239339   3.254   2.760   2.759  1.2762  0.5679  1.1523
 5950TIP3   OH239340   1.561   6.792   6.609  0.4191 -0.7421 -0.6645
 5950TIP3    H139341   1.484   6.810   6.663  1.4105  1.0513  0.1876
 5950TIP3    H239342   1.630   6.772   6.673  1.3840  0.5333 -1.2886
 5951TIP3   OH239343   4.989   2.454  12.274  0.1553  0.0746 -0.2250
 5951TIP3    H139344   4.971   2.531  12.328 -0.2875 -0.0275 -0.2189
 5951TIP3    H239345   4.940   2.383  12.316 -0.1553 -0.0150 -0.7310
 5952TIP3   OH239346   1.710   3.467   5.591  0.2672 -0.1568  0.0863
 5952TIP3    H139347   1.661   3.475   5.509 -0.5920  3.1464  0.8793
 5952TIP3    H239348   1.787   3.523   5.578 -0.6565  1.6153  2.0775
 5953TIP3   OH239349   4.989   6.591   4.387  0.1816  0.1275  0.8416
 5953TIP3    H139350   5.045   6.554   4.455 -0.4056  0.6970  1.6432
 5953TIP3    H239351   4.901   6.585   4.422 -0.3168 -1.0335 -0.5354
 5954TIP3   OH239352   1.774   4.188   3.864 -0.2507 -0.3063  0.2531
 5954TIP3    H139353   1.777   4.183   3.960  0.0607 -0.5156  0.2335
 5954TIP3    H239354   1.692   4.233   3.845  0.7053  1.6572  0.6739
 5955TIP3   OH239355   3.961   4.852  11.929 -0.7011  0.0947 -0.2593
 5955TIP3    H139356   4.048   4.813  11.938 -1.1310 -0.8351 -0.1656
 5955TIP3    H239357   3.956   4.877  11.836 -0.4308 -0.0613 -0.3172
 5956TIP3   OH239358   5.269   2.234   1.744 -0.0463 -0.1917  0.3830
 5956TIP3    H139359   5.336   2.207   1.807 -0.9985 -0.4073  1.3181
 5956TIP3    H239360   5.218   2.301   1.791 -0.7848 -0.3767 -0.1424
 5957TIP3   OH239361   4.426   6.060  15.349  0.4524  0.5216 -0.3577
 5957TIP3    H139362   4.491   6.125  15.375 -1.0937  2.0214 -0.1708
 5957TIP3    H239363   4.384   6.034  15.430  0.1077  0.3206 -0.5988
 5958TIP3   OH239364   5.364   3.905   4.257  0.0161  0.0782  0.0634
 5958TIP3    H139365   5.357   3.991   4.218  0.0926  0.2013  0.3152
 5958TIP3    H239366   5.324   3.914   4.344  0.5282  0.0137  0.3152
 5959TIP3   OH239367   5.522   2.787   3.811 -0.0396  0.7101 -0.1774
 5959TIP3    H139368   5.508   2.696   3.836 -0.0670  1.1485  1.4470
 5959TIP3    H239369   5.569   2.782   3.728 -0.2648 -0.7794 -0.2221
 5960TIP3   OH239370   5.191   2.727   1.832 -0.0471  0.3741  0.7322
 5960TIP3    H139371   5.167   2.776   1.753 -0.0046 -1.7735 -0.6666
 5960TIP3    H239372   5.283   2.704   1.819  0.0698  0.3457  1.5953
 5961TIP3   OH239373   3.082   1.749  15.617 -0.3414 -0.1007  0.0504
 5961TIP3    H139374   3.140   1.676  15.639  1.3965  1.0199 -0.7417
 5961TIP3    H239375   3.001   1.729  15.664  0.7947 -1.5023  1.4858
 5962TIP3   OH239376   1.154   1.094   2.656 -0.2211  0.3222  0.4245
 5962TIP3    H139377   1.216   1.156   2.694  2.5371 -0.1503 -2.9879
 5962TIP3    H239378   1.105   1.145   2.592  0.2203 -0.4303 -0.5256
 5963TIP3   OH239379   3.802   5.771  16.425 -0.2582  0.2347 -0.1235
 5963TIP3    H139380   3.874   5.783  16.363 -0.6525  1.2152 -0.4080
 5963TIP3    H239381   3.729   5.820  16.387 -0.4978  0.8853  1.1174
 5964TIP3   OH239382   2.980   4.480  10.858 -0.0386 -0.0323 -0.1654
 5964TIP3    H139383   3.046   4.521  10.914 -1.4040  2.5139 -0.3779
 5964TIP3    H239384   2.999   4.386  10.864  2.9165  0.5591  0.6247
 5965TIP3   OH239385   2.036   3.444   4.428  0.4331 -0.3474 -0.5377
 5965TIP3    H139386   2.025   3.536   4.453 -1.7630  0.1518 -3.1405
 5965TIP3    H239387   1.955   3.402   4.456  1.2557 -1.4274  0.2569
 5966TIP3   OH239388   3.624   1.980  13.715  0.0804  0.7407 -0.4981
 5966TIP3    H139389   3.594   1.952  13.629 -0.9113 -0.2225  0.1415
 5966TIP3    H239390   3.554   2.038  13.747 -0.6058 -0.6175  0.5343
 5967TIP3   OH239391   5.990   1.048   3.882  0.5932  0.2199  0.2150
 5967TIP3    H139392   6.082   1.024   3.893  1.2780  2.0779 -1.2573
 5967TIP3    H239393   5.987   1.142   3.899 -0.9785  0.2458 -0.1196
 5968TIP3   OH239394   0.401   0.493   1.036 -0.5409 -0.2483  0.0857
 5968TIP3    H139395   0.333   0.438   1.074  0.6540 -1.3022  0.7410
 5968TIP3    H239396   0.483   0.460   1.074 -0.0150  3.7331  2.6404
 5969TIP3   OH239397   1.103   2.318   2.536  0.1120 -0.5163  0.2381
 5969TIP3    H139398   1.074   2.265   2.610  1.7310 -0.7570  0.7140
 5969TIP3    H239399   1.164   2.381   2.573  2.0738 -1.5913 -1.0764
 5970TIP3   OH239400   3.401   4.924   4.621 -0.4952 -0.2385 -0.2034
 5970TIP3    H139401   3.442   4.898   4.704  2.0729  0.1641 -1.3004
 5970TIP3    H239402   3.307   4.916   4.637 -0.0830  0.7208  3.0399
 5971TIP3   OH239403   4.209   1.901  13.109 -0.1284 -0.3759 -0.0650
 5971TIP3    H139404   4.167   1.843  13.173 -2.2917  1.0175 -0.1875
 5971TIP3    H239405   4.189   1.861  13.024  0.7894 -0.9731 -0.0065
 5972TIP3   OH239406   2.359   5.588  11.669 -0.2385 -0.6214  0.2507
 5972TIP3    H139407   2.385   5.627  11.585  0.3315 -0.9363  0.2823
 5972TIP3    H239408   2.435   5.537  11.697 -0.2333 -0.1015  1.2151
 5973TIP3   OH239409   6.706   4.618  16.293 -0.2392  0.0453 -0.0601
 5973TIP3    H139410   6.636   4.569  16.249  1.9385 -2.4853 -0.8803
 5973TIP3    H239411   6.722   4.693  16.236 -0.8235 -0.5390 -1.0105
 5974TIP3   OH239412   5.123   3.923   2.114  0.1451 -0.4365  0.3054
 5974TIP3    H139413   5.069   3.957   2.042 -0.8660 -0.6133  0.9704
 5974TIP3    H239414   5.161   4.001   2.154 -0.5229 -0.2276  0.5386
 5975TIP3   OH239415   6.623   2.296  13.654  0.2725 -0.2978 -0.3342
 5975TIP3    H139416   6.594   2.206  13.639 -1.4894  0.5839 -2.4429
 5975TIP3    H239417   6.715   2.296  13.628 -0.4024 -0.9132 -2.8306
 5976TIP3   OH239418   1.850   1.122   0.959  0.0511 -0.5188 -0.5718
 5976TIP3    H139419   1.822   1.121   0.867  1.2927 -1.1874 -0.9518
 5976TIP3    H239420   1.929   1.175   0.959  0.0065 -0.4565  0.1265
 5977TIP3   OH239421   3.302   4.327   5.832 -0.0154 -0.0945  0.2631
 5977TIP3    H139422   3.366   4.388   5.867  1.2943 -0.4708 -1.3828
 5977TIP3    H239423   3.295   4.258   5.898 -0.6297  1.2256  1.5901
 5978TIP3   OH239424   2.478   5.495   1.105  0.2725  0.1304 -0.3851
 5978TIP3    H139425   2.508   5.540   1.026  2.1467 -1.2327 -0.5014
 5978TIP3    H239426   2.554   5.496   1.163 -0.9314  0.6719  1.2172
 5979TIP3   OH239427   5.557   5.503   5.818 -0.3414  0.5535 -0.4288
 5979TIP3    H139428   5.552   5.595   5.844  0.5817  1.0522 -1.9471
 5979TIP3    H239429   5.480   5.462   5.858 -1.4410  2.2364 -0.7854
 5980TIP3   OH239430   6.694   5.416  16.818 -0.0780 -0.0772 -0.0390
 5980TIP3    H139431   6.766   5.473  16.843 -1.3253  1.6973 -0.3662
 5980TIP3    H239432   6.658   5.384  16.900  0.4753 -0.1785  0.1575
 5981TIP3   OH239433   6.448   3.604   1.238 -0.5020  0.0903  0.8299
 5981TIP3    H139434   6.480   3.525   1.281 -1.1771  0.4432  2.0214
 5981TIP3    H239435   6.500   3.612   1.159 -0.6048 -1.6910  0.5688
 5982TIP3   OH239436   6.245   5.491   5.796  0.8715  0.3800  0.5151
 5982TIP3    H139437   6.152   5.503   5.774  0.0359  0.7922  3.9704
 5982TIP3    H239438   6.276   5.579   5.817  1.7827  0.0988  0.3579
 5983TIP3   OH239439   2.055   1.821   3.164 -0.2824 -0.2670  0.0856
 5983TIP3    H139440   2.045   1.904   3.210 -0.0983 -0.7358  0.9753
 5983TIP3    H239441   2.147   1.818   3.139 -0.0457 -0.6799  0.9834
 5984TIP3   OH239442   4.420   3.310   5.206 -0.2359  0.6366 -0.3185
 5984TIP3    H139443   4.444   3.272   5.291 -2.5074 -0.4515 -0.1259
 5984TIP3    H239444   4.368   3.387   5.229  0.1789  1.0404 -0.7270
 5985TIP3   OH239445   5.815   1.821   3.054 -0.1356 -0.0532 -0.1925
 5985TIP3    H139446   5.767   1.747   3.016  1.3418 -1.5883  0.8616
 5985TIP3    H239447   5.750   1.865   3.109 -0.4534 -1.9563  1.0282
 5986TIP3   OH239448   3.840   1.461   4.692 -0.9443  0.6691  0.4198
 5986TIP3    H139449   3.797   1.384   4.654 -0.8666  0.5835  0.5028
 5986TIP3    H239450   3.771   1.503   4.744 -1.2240  1.1582 -0.3543
 5987TIP3   OH239451   2.090   0.259   4.813  0.3374 -0.5320  1.2381
 5987TIP3    H139452   2.068   0.326   4.878  1.1598 -0.2791  1.2627
 5987TIP3    H239453   2.171   0.290   4.773  0.1786 -1.0089  0.5358
 5988TIP3   OH239454   3.101   3.850   6.285 -0.4407  0.2426  0.1323
 5988TIP3    H139455   3.070   3.941   6.284  0.4418  0.5355 -0.7221
 5988TIP3    H239456   3.149   3.843   6.367 -2.2591 -0.0576  1.2054
 5989TIP3   OH239457   2.204   5.585   0.302  0.9454 -0.5940  0.7546
 5989TIP3    H139458   2.246   5.671   0.304  0.3000 -0.1216 -2.6117
 5989TIP3    H239459   2.172   5.572   0.391  1.9500  2.1925  1.5796
 5990TIP3   OH239460   5.016   1.232  10.495  0.1005  0.1620 -0.4273
 5990TIP3    H139461   5.081   1.226  10.564 -0.5287 -0.1699  0.1451
 5990TIP3    H239462   4.952   1.295  10.528 -1.2586 -1.4984  0.1890
 5991TIP3   OH239463   3.009   0.859  17.122 -0.1421  0.0678  0.1522
 5991TIP3    H139464   3.024   0.764  17.115 -0.4444  0.0480 -0.2416
 5991TIP3    H239465   3.088   0.898  17.086  0.5114 -0.0305  1.4565
 5992TIP3   OH239466   0.765   1.704   5.687 -0.0687  0.6718  0.1085
 5992TIP3    H139467   0.750   1.787   5.732 -1.4180  0.5809 -0.1604
 5992TIP3    H239468   0.699   1.645   5.724  0.2306 -0.0004 -0.4229
 5993TIP3   OH239469   2.687   6.623  12.218  0.6542  0.3709 -0.3323
 5993TIP3    H139470   2.651   6.555  12.163  0.1353 -0.4688  1.0214
 5993TIP3    H239471   2.620   6.691  12.221 -0.0708 -0.3704  0.6785
 5994TIP3   OH239472   1.529   6.414   5.003 -0.3219 -0.1496  0.3325
 5994TIP3    H139473   1.478   6.433   4.924 -0.0927  0.0663  0.2347
 5994TIP3    H239474   1.464   6.408   5.073 -0.4040  1.0242  0.3710
 5995TIP3   OH239475   6.464   4.420   2.921 -0.6060 -0.4735 -0.1015
 5995TIP3    H139476   6.415   4.428   3.003 -2.4561  0.4000 -1.2522
 5995TIP3    H239477   6.466   4.510   2.886  3.6948 -0.0498  0.9329
 5996TIP3   OH239478   6.300   1.253  16.423 -0.3182 -0.2730 -0.5591
 5996TIP3    H139479   6.217   1.276  16.381 -0.6800 -0.3792  0.0866
 5996TIP3    H239480   6.332   1.337  16.459 -1.3793 -0.6453  1.3392
 5997TIP3   OH239481   1.567   0.210   2.033  0.6250  0.4442 -0.1029
 5997TIP3    H139482   1.587   0.266   2.108 -0.6398  1.1748 -0.3029
 5997TIP3    H239483   1.500   0.150   2.065  1.2534 -0.3112 -0.1850
 5998TIP3   OH239484   1.914   0.083  13.578 -0.4805 -0.1684 -0.6582
 5998TIP3    H139485   1.946   0.149  13.517  0.7744 -0.7200 -0.6173
 5998TIP3    H239486   1.852   0.030  13.526  0.2569 -0.3761 -1.3334
 5999TIP3   OH239487   3.747   6.418   4.282  0.1920  0.0650  0.0307
 5999TIP3    H139488   3.774   6.331   4.251  0.8860  0.0393  0.6853
 5999TIP3    H239489   3.819   6.476   4.257  0.8604  0.0075  1.7366
 6000TIP3   OH239490   3.118   5.838   3.453 -0.0549  0.0277  0.3152
 6000TIP3    H139491   3.106   5.832   3.548 -0.3690 -0.5732  0.2396
 6000TIP3    H239492   3.199   5.791   3.436 -0.6170 -0.8874  0.1483
 6001TIP3   OH239493   6.741   6.640  13.188  0.1625  0.4529 -0.2039
 6001TIP3    H139494   6.831   6.660  13.163  1.1536 -0.1452  2.6545
 6001TIP3    H239495   6.714   6.715  13.242 -0.6641  0.1103 -0.1249
 6002TIP3   OH239496   3.718   4.094   5.655  0.1176 -0.2383 -0.3601
 6002TIP3    H139497   3.682   4.006   5.669 -1.2353  0.2048 -0.9980
 6002TIP3    H239498   3.653   4.153   5.692  1.3870  0.4903  0.7814
 6003TIP3   OH239499   5.523   4.588   5.094 -0.0858  0.2238  0.5417
 6003TIP3    H139500   5.557   4.536   5.167  2.0125  1.2324  0.3419
 6003TIP3    H239501   5.582   4.663   5.089  0.5682 -0.4268 -2.9651
 6004TIP3   OH239502   5.865   5.572   3.839 -0.3141 -0.9849 -0.7229
 6004TIP3    H139503   5.812   5.620   3.902 -0.2205 -1.8984  0.0660
 6004TIP3    H239504   5.890   5.637   3.774 -1.4225 -0.2950 -0.4739
 6005TIP3   OH239505   4.817   0.764   4.187 -0.0489 -0.1411 -0.2506
 6005TIP3    H139506   4.811   0.859   4.185  1.4929  0.0093  1.4643
 6005TIP3    H239507   4.875   0.744   4.260 -0.7201 -2.4281 -0.2747
 6006TIP3   OH239508   3.334   2.449   1.784  0.3675 -0.1871  0.2752
 6006TIP3    H139509   3.417   2.491   1.805 -0.4880  1.7276 -0.1295
 6006TIP3    H239510   3.270   2.491   1.842 -0.4153 -1.2988  0.2334
 6007TIP3   OH239511   4.671   2.229  14.838 -0.0657 -0.0916  0.7485
 6007TIP3    H139512   4.722   2.178  14.901 -1.3247  0.3773  2.1509
 6007TIP3    H239513   4.632   2.299  14.889 -0.6597  0.6199 -0.6579
 6008TIP3   OH239514   2.447   1.047  16.522  0.4580 -0.0901  0.2841
 6008TIP3    H139515   2.372   1.065  16.465 -1.2557 -0.7618  2.2741
 6008TIP3    H239516   2.492   0.974  16.479  0.6417  1.0395 -1.5075
 6009TIP3   OH239517   3.323   1.946  11.983  0.1589 -0.3626  0.7509
 6009TIP3    H139518   3.292   1.889  11.913 -0.9041  0.5820  0.4521
 6009TIP3    H239519   3.243   1.974  12.028  0.6502  1.1484  0.6992
 6010TIP3   OH239520   0.776   4.467   3.585  0.0847  0.3148 -0.2551
 6010TIP3    H139521   0.798   4.381   3.548 -0.4111  0.9613 -2.1340
 6010TIP3    H239522   0.779   4.526   3.510 -2.7021  1.3619  0.3933
 6011TIP3   OH239523   2.348   4.245   4.570  0.2560  0.1143  0.2452
 6011TIP3    H139524   2.332   4.205   4.485  0.5045 -1.9346  1.1490
 6011TIP3    H239525   2.426   4.298   4.557  0.4557 -0.4117 -0.7277
 6012TIP3   OH239526   4.869   3.928   5.471  1.0735  0.3146  0.2388
 6012TIP3    H139527   4.878   3.835   5.452  1.1798  0.4042 -0.1437
 6012TIP3    H239528   4.946   3.968   5.432  0.1838  0.7815 -1.0583
 6013TIP3   OH239529   4.277   3.042  11.902  0.5314 -0.0646  0.3362
 6013TIP3    H139530   4.212   3.003  11.842  1.1200  0.2067 -0.4917
 6013TIP3    H239531   4.256   3.136  11.901  2.0839  0.2965 -1.3994
 6014TIP3   OH239532   5.165   6.547  11.808 -0.1805  0.1458  0.3204
 6014TIP3    H139533   5.165   6.632  11.852 -0.7383 -0.0365  0.6818
 6014TIP3    H239534   5.202   6.487  11.873 -0.0069  0.0689  0.1492
 6015TIP3   OH239535   0.591   4.755  12.046 -0.4843 -0.3715  0.0608
 6015TIP3    H139536   0.507   4.772  12.003 -0.0124  3.1808  0.3491
 6015TIP3    H239537   0.627   4.842  12.061  4.1600 -1.8123 -1.8550
 6016TIP3   OH239538   2.668   3.187   4.670 -0.1908 -0.0878 -0.1141
 6016TIP3    H139539   2.710   3.103   4.650  0.2197  0.4825 -1.7071
 6016TIP3    H239540   2.677   3.238   4.590 -2.0747  0.8256  0.2393
 6017TIP3   OH239541   5.116   4.967   2.196 -0.2273  0.4179  0.5137
 6017TIP3    H139542   5.212   4.965   2.204 -0.0633  2.4328 -0.6868
 6017TIP3    H239543   5.085   4.940   2.283  1.3926 -2.7830  0.1498
 6018TIP3   OH239544   0.587   3.357   1.177 -0.2592 -0.1008 -0.4483
 6018TIP3    H139545   0.527   3.431   1.170  0.7232  0.8276  0.6619
 6018TIP3    H239546   0.671   3.397   1.200  0.2027 -1.5933  0.5422
 6019TIP3   OH239547   3.620   4.904  16.014 -0.4630 -0.2773 -0.1461
 6019TIP3    H139548   3.664   4.880  16.096 -1.6080  0.9943  0.8671
 6019TIP3    H239549   3.679   4.874  15.945  0.6288 -1.1534  1.1495
 6020TIP3   OH239550   6.552   0.376  16.979  0.0512  0.0403 -0.1234
 6020TIP3    H139551   6.550   0.284  17.006  0.2017  0.7294  2.4162
 6020TIP3    H239552   6.645   0.400  16.987  0.0921  0.2876 -1.2779
 6021TIP3   OH239553   5.314   4.923  14.217  0.0254  0.1264 -0.5715
 6021TIP3    H139554   5.366   4.900  14.140  0.4079  0.1194 -0.3154
 6021TIP3    H239555   5.242   4.977  14.183 -0.8695 -1.4255 -1.1769
 6022TIP3   OH239556   0.947   3.134  16.696 -0.2809 -0.4485  0.0664
 6022TIP3    H139557   0.863   3.095  16.671 -0.4592 -0.3704  0.5408
 6022TIP3    H239558   0.984   3.165  16.614 -2.2621  2.6162  0.2497
 6023TIP3   OH239559   0.514   3.977  13.408 -0.2119  0.0580  0.4484
 6023TIP3    H139560   0.483   3.887  13.398 -0.4947  0.0821  1.1443
 6023TIP3    H239561   0.438   4.031  13.389 -0.1055  0.1547  0.2851
 6024TIP3   OH239562   2.582   2.525   0.451 -0.7332  0.4817  0.1411
 6024TIP3    H139563   2.567   2.555   0.361 -2.1508  1.2609  0.6203
 6024TIP3    H239564   2.501   2.547   0.497 -0.2188 -0.4066  1.4822
 6025TIP3   OH239565   0.370   1.385  16.799  0.1928  0.4706  0.4931
 6025TIP3    H139566   0.279   1.400  16.822 -0.0536 -0.6013  0.2703
 6025TIP3    H239567   0.407   1.342  16.876 -0.0106 -0.8976 -0.1500
 6026TIP3   OH239568   5.935   3.058   3.347 -0.1126 -0.2674  0.0479
 6026TIP3    H139569   5.912   3.036   3.437  0.3255 -0.5119  0.0976
 6026TIP3    H239570   5.949   3.153   3.349 -2.0652  0.0660 -0.1839
 6027TIP3   OH239571   0.724   3.920  13.112  0.4191 -0.7690 -0.2894
 6027TIP3    H139572   0.741   3.896  13.203 -0.1887 -0.2055 -0.0294
 6027TIP3    H239573   0.644   3.873  13.088 -0.2842  0.2875 -0.0502
 6028TIP3   OH239574   1.910   1.849  12.937 -0.4788 -0.2292 -0.1933
 6028TIP3    H139575   1.908   1.789  13.012  0.1857  1.6014  1.3396
 6028TIP3    H239576   1.998   1.838  12.901 -0.3954 -0.2446  0.0158
 6029TIP3   OH239577   6.811   2.274  15.118  0.0080 -0.3028  0.3921
 6029TIP3    H139578   6.727   2.260  15.075 -0.2524 -2.2741  1.4740
 6029TIP3    H239579   6.787   2.298  15.208  0.5995 -1.0421  0.7473
 6030TIP3   OH239580   6.780   0.061  12.058 -0.0897  0.4494 -0.1634
 6030TIP3    H139581   6.689   0.034  12.042  0.1803  0.3953 -1.6924
 6030TIP3    H239582   6.775   0.155  12.074 -0.2543  0.7511 -1.8665
 6031TIP3   OH239583   2.640   3.502   1.446 -0.7898  0.2830  0.0343
 6031TIP3    H139584   2.615   3.469   1.532 -0.2023  0.8940  0.4504
 6031TIP3    H239585   2.581   3.577   1.431  1.6513  2.6046  1.6374
 6032TIP3   OH239586   0.919   4.617   5.196  0.3898 -0.1854 -0.3528
 6032TIP3    H139587   0.829   4.627   5.166  0.0665 -0.7914  0.4062
 6032TIP3    H239588   0.914   4.551   5.265  1.6843 -1.7191 -1.6763
 6033TIP3   OH239589   4.271   2.155  14.216  0.4243 -0.1158 -0.1760
 6033TIP3    H139590   4.175   2.156  14.218  0.4307  1.1899  2.5967
 6033TIP3    H239591   4.296   2.244  14.242  2.3981 -0.1567 -1.8067
 6034TIP3   OH239592   1.694   4.231  12.041  0.3823 -0.5256  0.3804
 6034TIP3    H139593   1.685   4.208  11.948  1.9051 -0.6671  0.2482
 6034TIP3    H239594   1.613   4.201  12.081 -0.7197  0.4461 -1.0811
 6035TIP3   OH239595   4.431   0.977  12.080 -0.0657 -0.2144 -0.4618
 6035TIP3    H139596   4.374   0.958  12.005 -1.4648  0.0374  0.5311
 6035TIP3    H239597   4.430   1.073  12.087 -1.5236 -0.3161  1.0721
 6036TIP3   OH239598   4.788   4.126   6.001  0.3520  0.1649 -0.7044
 6036TIP3    H139599   4.747   4.053   6.047  0.8774  0.0007 -0.4932
 6036TIP3    H239600   4.741   4.204   6.032  0.2351 -0.0144 -0.4329
 6037TIP3   OH239601   3.509   3.133  12.011  0.0980  0.1087 -0.5906
 6037TIP3    H139602   3.539   3.192  11.942 -0.5083 -0.5653 -1.4426
 6037TIP3    H239603   3.426   3.098  11.979 -0.2655 -0.0975  0.5517
 6038TIP3   OH239604   3.192   3.273  17.064 -0.4394 -0.0318  0.0526
 6038TIP3    H139605   3.235   3.253  17.147 -0.6420  0.9501  0.3942
 6038TIP3    H239606   3.110   3.223  17.067  0.0849 -0.9183 -0.0706
 6039TIP3   OH239607   0.686   6.028  12.618  0.3439  0.0076 -0.2128
 6039TIP3    H139608   0.705   6.094  12.684 -1.1480  2.6227 -2.2821
 6039TIP3    H239609   0.764   6.026  12.563  0.1253  0.5402 -0.5427
 6040TIP3   OH239610   4.457   2.586  17.272  0.7083  0.2994  0.5558
 6040TIP3    H139611   4.496   2.499  17.273  0.6846  0.2487 -2.0312
 6040TIP3    H239612   4.488   2.626  17.191 -0.1448  2.3242  1.1926
 6041TIP3   OH239613   2.014   5.983   4.803 -0.0043 -0.7019  0.1400
 6041TIP3    H139614   2.033   5.972   4.896 -1.0739 -2.8112  0.1571
 6041TIP3    H239615   2.091   5.948   4.758  0.8274  0.9918  0.2108
 6042TIP3   OH239616   5.765   5.529  13.261 -0.2060 -0.0096 -0.2044
 6042TIP3    H139617   5.686   5.528  13.315 -1.0447 -0.3454 -1.4231
 6042TIP3    H239618   5.734   5.508  13.173  0.9840  1.5745 -1.0222
 6043TIP3   OH239619   1.987   0.488  13.144  0.6319 -0.1548  0.2372
 6043TIP3    H139620   2.033   0.572  13.150 -3.0917  2.0908 -1.2282
 6043TIP3    H239621   1.994   0.463  13.052  0.9008 -0.9802  0.4767
 6044TIP3   OH239622   0.507   3.164  13.120  0.2161 -0.2583 -0.0245
 6044TIP3    H139623   0.533   3.235  13.062 -1.4667  0.7527  0.4296
 6044TIP3    H239624   0.555   3.088  13.088  1.6190  0.9654 -0.8465
 6045TIP3   OH239625   0.475   2.289   4.277  0.2097  0.1597  0.5753
 6045TIP3    H139626   0.395   2.335   4.302 -0.2157  0.2225 -0.8623
 6045TIP3    H239627   0.509   2.338   4.203  0.3773 -1.1856 -0.2519
 6046TIP3   OH239628   0.798   2.761   3.662  0.0130  0.2034 -0.1177
 6046TIP3    H139629   0.775   2.787   3.751 -0.5964 -1.1089  0.1263
 6046TIP3    H239630   0.714   2.741   3.621  0.4129 -0.7702 -0.4716
 6047TIP3   OH239631   2.002   2.708  14.002  0.0451 -0.0115 -0.0451
 6047TIP3    H139632   1.941   2.657  14.056 -0.1787 -0.6155 -0.8519
 6047TIP3    H239633   2.002   2.663  13.918  1.1691  0.3380 -0.2303
 6048TIP3   OH239634   1.088   0.310   0.141 -0.1148  0.0462 -0.0227
 6048TIP3    H139635   1.033   0.387   0.125  0.4032  0.9941  2.4614
 6048TIP3    H239636   1.065   0.249   0.071  0.6712  3.0657 -3.0521
 6049TIP3   OH239637   6.023   3.211   2.330 -0.6257 -0.2469 -0.5000
 6049TIP3    H139638   5.990   3.297   2.356 -0.2440 -0.0727 -0.5944
 6049TIP3    H239639   6.103   3.200   2.382 -0.7194 -0.5812 -0.4249
 6050TIP3   OH239640   4.891   5.952   0.102  0.0583  0.4423 -0.4478
 6050TIP3    H139641   4.881   5.882   0.167  0.7125  1.3330  0.6543
 6050TIP3    H239642   4.802   5.980   0.083 -0.1346  0.3813  0.3220
 6051TIP3   OH239643   2.659   0.158  14.708  0.1752  0.7137  0.2805
 6051TIP3    H139644   2.575   0.145  14.663 -0.0602 -1.2669  1.2118
 6051TIP3    H239645   2.642   0.227  14.772  0.3602  3.1370 -2.2226
 6052TIP3   OH239646   0.736   6.573  12.436 -0.3398  0.7864 -0.1362
 6052TIP3    H139647   0.822   6.540  12.461 -0.7026  0.4380  0.6625
 6052TIP3    H239648   0.753   6.660  12.400  0.1978  1.2299  1.1950
 6053TIP3   OH239649   3.061   4.186  11.983  0.1540 -0.8999  0.5074
 6053TIP3    H139650   3.070   4.276  12.014  0.3762 -1.2160  1.3826
 6053TIP3    H239651   2.984   4.187  11.926 -0.0440 -0.2306  0.7892
 6054TIP3   OH239652   1.773   1.067  16.321 -0.2979 -0.3525 -0.1716
 6054TIP3    H139653   1.772   1.162  16.310  0.0744 -0.2580  0.5757
 6054TIP3    H239654   1.807   1.034  16.238 -0.1018  0.1859 -0.3109
 6055TIP3   OH239655   6.020   2.320  15.058 -0.3425  0.1392 -0.1419
 6055TIP3    H139656   6.091   2.270  15.097  0.9122  0.9504 -1.3145
 6055TIP3    H239657   6.043   2.412  15.075 -1.2914  0.3961 -0.2172
 6056TIP3   OH239658   3.147   1.611  12.652 -0.0298 -0.9566 -0.3214
 6056TIP3    H139659   3.228   1.561  12.641  0.3579 -0.6334  0.9291
 6056TIP3    H239660   3.149   1.676  12.581  1.6989  0.2079  0.7481
 6057TIP3   OH239661   5.129   2.899  10.645 -0.0823 -0.4272  0.5828
 6057TIP3    H139662   5.210   2.870  10.602  2.0417  1.5625  3.0444
 6057TIP3    H239663   5.099   2.973  10.592  0.8203  0.0811  0.7697
 6058TIP3   OH239664   4.038   6.198   6.139 -0.4964 -0.4592 -0.3742
 6058TIP3    H139665   3.992   6.120   6.107 -0.7707 -0.2547 -0.4869
 6058TIP3    H239666   4.014   6.204   6.231 -0.5116 -0.4839 -0.3768
 6059TIP3   OH239667   1.474   3.074  11.400  0.3256 -0.3464 -0.5151
 6059TIP3    H139668   1.503   2.992  11.361  0.6111 -0.6434  0.3163
 6059TIP3    H239669   1.462   3.133  11.325 -2.7936 -2.0126 -1.4263
 6060TIP3   OH239670   6.631   0.965   1.189 -0.2886 -0.5222 -0.4513
 6060TIP3    H139671   6.656   1.039   1.245  2.3707 -1.6835  0.0014
 6060TIP3    H239672   6.655   0.993   1.101 -1.1235 -0.1007 -0.5528
 6061TIP3   OH239673   2.658   3.681  11.732 -0.3815  0.2642  0.5407
 6061TIP3    H139674   2.742   3.684  11.777  0.6119 -1.8572 -1.0794
 6061TIP3    H239675   2.613   3.606  11.770 -0.8799  0.4365  0.3017
 6062TIP3   OH239676   6.082   2.767  11.416 -0.5992  0.5785  0.2357
 6062TIP3    H139677   6.122   2.743  11.499  0.2323 -0.5949 -0.4866
 6062TIP3    H239678   5.988   2.758  11.430 -0.3456 -3.1037  0.0297
 6063TIP3   OH239679   3.877   6.815  16.024  0.3740 -0.6197 -0.2414
 6063TIP3    H139680   3.947   6.776  15.972  0.1079 -0.5240 -0.6771
 6063TIP3    H239681   3.856   6.897  15.978 -1.5910 -1.7430 -1.4008
 6064TIP3   OH239682   0.740   4.059   5.800  0.3135  0.2806 -0.2091
 6064TIP3    H139683   0.736   4.113   5.721  0.5533  0.5751 -0.0237
 6064TIP3    H239684   0.656   4.073   5.843  0.1109 -0.0212 -0.5023
 6065TIP3   OH239685   4.457   5.154   5.311 -0.4618 -0.4613 -0.0962
 6065TIP3    H139686   4.509   5.081   5.345  0.0346  0.1553  0.5155
 6065TIP3    H239687   4.523   5.217   5.280 -0.9102 -0.8735 -1.9171
 6066TIP3   OH239688   5.526   0.871  15.582  0.5886 -0.0433 -0.1824
 6066TIP3    H139689   5.441   0.830  15.564  0.9095 -1.3114  1.0728
 6066TIP3    H239690   5.585   0.834  15.517  0.2222  0.7406 -0.9719
 6067TIP3   OH239691   2.178   4.534  14.328 -0.2009 -0.1865  0.1574
 6067TIP3    H139692   2.098   4.585  14.345 -0.0167 -0.0355  0.5968
 6067TIP3    H239693   2.170   4.459  14.387 -0.6924 -0.9113 -0.8237
 6068TIP3   OH239694   2.518   6.420  13.085 -0.4904 -0.3764  0.3066
 6068TIP3    H139695   2.571   6.399  13.008 -1.1958 -0.4408 -0.1663
 6068TIP3    H239696   2.550   6.505  13.114  0.8023 -1.0332  0.8441
 6069TIP3   OH239697   0.318   6.802  10.863  0.3428 -0.0839  0.0620
 6069TIP3    H139698   0.341   6.871  10.800 -2.3614  2.2455  1.4809
 6069TIP3    H239699   0.396   6.791  10.917  0.7845  2.0239 -0.0933
 6070TIP3   OH239700   1.868   3.610   1.760  0.3838  0.3953 -0.7731
 6070TIP3    H139701   1.895   3.521   1.739 -0.2908  0.5132 -2.1539
 6070TIP3    H239702   1.853   3.652   1.676 -0.0940  1.5733 -0.1160
 6071TIP3   OH239703   6.097   2.221  12.242  0.1121  0.5637 -0.1134
 6071TIP3    H139704   6.031   2.258  12.301  0.0357 -1.6935  1.2691
 6071TIP3    H239705   6.178   2.267  12.264  0.0018  0.0086  1.5276
 6072TIP3   OH239706   2.258   5.210  11.839 -0.2500 -0.1698 -0.0904
 6072TIP3    H139707   2.349   5.220  11.811 -0.4716 -1.5703 -1.3503
 6072TIP3    H239708   2.261   5.218  11.934  1.0256  0.9372 -0.2049
 6073TIP3   OH239709   2.308   0.266  17.256  0.0580 -0.2409  0.1729
 6073TIP3    H139710   2.241   0.211  17.297 -1.9900  1.6143 -0.5780
 6073TIP3    H239711   2.368   0.289  17.327 -0.9062 -0.7656  1.1610
 6074TIP3   OH239712   5.522   0.858  11.301  0.0023  0.3683  0.5865
 6074TIP3    H139713   5.555   0.908  11.375  0.0035 -1.3667  1.7723
 6074TIP3    H239714   5.428   0.854  11.315 -0.1390  1.0445 -0.1421
 6075TIP3   OH239715   5.443   1.505   2.328  0.3302 -0.4471 -0.0544
 6075TIP3    H139716   5.496   1.433   2.293 -0.0477 -0.6482 -0.2167
 6075TIP3    H239717   5.358   1.466   2.345 -0.4708  0.4039 -1.9584
 6076TIP3   OH239718   4.691   3.716  11.409  0.1797  0.1381  0.0871
 6076TIP3    H139719   4.762   3.739  11.349  0.3000  1.4118  0.6915
 6076TIP3    H239720   4.618   3.693  11.352  0.4404  0.8673 -0.5617
 6077TIP3   OH239721   0.493   0.762   3.184 -0.2221 -0.2069  0.4008
 6077TIP3    H139722   0.585   0.783   3.172  0.0457 -0.7247  1.4980
 6077TIP3    H239723   0.446   0.829   3.133  0.7304  0.4851  0.4232
 6078TIP3   OH239724   2.094   5.868  15.513 -0.6127 -0.1350 -0.2227
 6078TIP3    H139725   2.114   5.837  15.601  2.0002 -1.0486 -1.0738
 6078TIP3    H239726   2.151   5.816  15.456  1.5821  3.9736 -1.9924
 6079TIP3   OH239727   1.625   2.392   4.405 -0.2297 -0.2132  0.1418
 6079TIP3    H139728   1.717   2.415   4.419  0.0240 -1.3225  0.3133
 6079TIP3    H239729   1.624   2.296   4.403 -1.3980 -0.2086  0.2550
 6080TIP3   OH239730   6.028   3.577   2.005 -0.1851 -0.0186 -0.0878
 6080TIP3    H139731   5.961   3.631   2.046 -0.4041  0.6655 -1.2990
 6080TIP3    H239732   6.001   3.487   2.023 -1.0306  0.2567  0.0614
 6081TIP3   OH239733   6.424   3.102  15.422 -0.1603 -0.2945  0.1221
 6081TIP3    H139734   6.350   3.050  15.389 -0.9633  0.7958  0.1540
 6081TIP3    H239735   6.501   3.066  15.378 -1.1036  0.6024 -2.3997
 6082TIP3   OH239736   3.044   1.160   4.688  0.5129  0.1937  0.5697
 6082TIP3    H139737   3.113   1.178   4.624  0.9848  0.9193  1.2696
 6082TIP3    H239738   3.009   1.075   4.662 -0.2149  1.0772 -1.4551
 6083TIP3   OH239739   1.943   6.617  13.729 -0.7971 -0.0883  0.2535
 6083TIP3    H139740   1.947   6.631  13.823  0.8300 -0.3873  0.2439
 6083TIP3    H239741   1.944   6.705  13.691 -1.9535  0.0436  0.5316
 6084TIP3   OH239742   6.773   6.432  11.621 -0.2818 -0.4094 -0.3588
 6084TIP3    H139743   6.719   6.391  11.552 -0.4536 -0.3326 -0.2724
 6084TIP3    H239744   6.709   6.471  11.680 -0.2590 -2.9594  1.4235
 6085TIP3   OH239745   5.639   3.872   3.233  0.2947  0.3639 -0.1550
 6085TIP3    H139746   5.598   3.876   3.147 -0.2145  1.1850  0.1222
 6085TIP3    H239747   5.566   3.854   3.293  0.7839 -1.1846  0.0019
 6086TIP3   OH239748   4.328   2.814  12.090 -0.3186 -0.1764  0.1792
 6086TIP3    H139749   4.264   2.854  12.031 -1.5100 -2.9301 -0.4576
 6086TIP3    H239750   4.399   2.784  12.033  2.4148  4.1603  1.0099
 6087TIP3   OH239751   1.043   1.550   5.004  0.1390  0.2696 -0.0195
 6087TIP3    H139752   1.038   1.535   4.910 -1.0842 -1.2855  0.2875
 6087TIP3    H239753   1.031   1.464   5.044  0.9659  0.8523  1.5668
 6088TIP3   OH239754   1.839   6.636   6.461  0.2205 -0.1170 -0.3913
 6088TIP3    H139755   1.925   6.598   6.480  0.1534 -0.2717 -0.3995
 6088TIP3    H239756   1.780   6.593   6.523  0.2833  0.5587  0.1430
 6089TIP3   OH239757   4.977   2.632   0.434  0.3163 -0.4508  0.1585
 6089TIP3    H139758   5.072   2.623   0.443  0.1378 -1.9238  0.8224
 6089TIP3    H239759   4.962   2.633   0.339  0.8684 -1.8835  0.0413
 6090TIP3   OH239760   0.412   3.492   3.595  0.3085 -0.3756 -0.3473
 6090TIP3    H139761   0.358   3.570   3.610  0.1553 -0.2697 -1.4630
 6090TIP3    H239762   0.483   3.500   3.659  0.3542  0.7314 -0.5248
 6091TIP3   OH239763   1.839   3.462   3.233  0.0110 -0.2998 -0.0297
 6091TIP3    H139764   1.750   3.448   3.198  0.7284 -0.9318 -1.6839
 6091TIP3    H239765   1.860   3.380   3.277  0.0811 -0.4588 -0.3554
 6092TIP3   OH239766   3.709   0.019   6.013 -0.1548 -0.4163  0.0730
 6092TIP3    H139767   3.800   0.027   6.039 -0.4169 -1.3705  1.2974
 6092TIP3    H239768   3.675   0.109   6.015  0.6032 -0.1304  0.1173
 6093TIP3   OH239769   1.827   0.882   1.351 -0.0347  0.7231 -0.4795
 6093TIP3    H139770   1.896   0.827   1.314  0.1521  0.3846  0.3491
 6093TIP3    H239771   1.746   0.849   1.311 -0.3631 -2.4503  2.4817
 6094TIP3   OH239772   4.754   0.270  12.227  0.1364 -0.1857  0.1476
 6094TIP3    H139773   4.786   0.180  12.238  1.2139  0.1781  0.0291
 6094TIP3    H239774   4.785   0.316  12.305 -1.8451 -0.3071  1.0297
 6095TIP3   OH239775   2.195   1.977  14.249 -0.0732 -0.2169 -0.0185
 6095TIP3    H139776   2.252   1.910  14.213 -0.6218  0.1447 -1.5827
 6095TIP3    H239777   2.107   1.954  14.217 -0.3121  1.0699 -0.3427
 6096TIP3   OH239778   0.009   6.131  13.287 -0.2110 -0.1199  0.3425
 6096TIP3    H139779   0.078   6.187  13.250 -2.1810  0.6348 -2.3080
 6096TIP3    H239780  -0.058   6.192  13.317 -0.3552 -0.9188  1.6994
 6097TIP3   OH239781   6.379   2.774   2.342  0.6311 -0.0206  0.0845
 6097TIP3    H139782   6.428   2.703   2.383 -0.6365  0.3119  2.2273
 6097TIP3    H239783   6.373   2.842   2.410 -1.5483  0.5205 -0.6244
 6098TIP3   OH239784   5.336   1.502  15.255 -0.4428 -0.1621  0.3847
 6098TIP3    H139785   5.405   1.435  15.258 -0.4923 -0.1373  2.2468
 6098TIP3    H239786   5.274   1.469  15.191  0.6728 -0.7905 -0.4014
 6099TIP3   OH239787   2.297   6.274   4.323 -0.5525  0.7714 -0.0587
 6099TIP3    H139788   2.275   6.197   4.376  0.4596  0.5722  0.0980
 6099TIP3    H239789   2.358   6.241   4.257 -0.0401  1.4455  0.0668
 6100TIP3   OH239790   2.311   6.195  13.962  0.0718  0.0952  0.3055
 6100TIP3    H139791   2.242   6.242  13.915  0.2097 -0.1287 -0.1228
 6100TIP3    H239792   2.348   6.136  13.897  0.7599  0.3105  0.4951
 6101TIP3   OH239793   2.695   6.805   3.527 -0.7781 -0.0879 -0.1075
 6101TIP3    H139794   2.625   6.828   3.467  0.9381 -2.6537 -3.2212
 6101TIP3    H239795   2.758   6.756   3.474  2.2125  0.0303  3.1244
 6102TIP3   OH239796   0.332   0.173   1.622 -0.4661 -0.0035 -0.0794
 6102TIP3    H139797   0.421   0.208   1.627 -0.4246 -0.3938  2.1219
 6102TIP3    H239798   0.308   0.183   1.529  0.8778  2.5302 -0.2104
 6103TIP3   OH239799   6.638   0.014  13.837  0.9279 -0.5887  0.2997
 6103TIP3    H139800   6.642   0.095  13.887 -1.4030  0.4454 -1.1119
 6103TIP3    H239801   6.591  -0.047  13.895  1.2524 -0.4526  0.7132
 6104TIP3   OH239802   1.464   0.703  14.839  0.3896 -0.4543  0.0793
 6104TIP3    H139803   1.506   0.788  14.826 -1.6239  0.7567  1.2015
 6104TIP3    H239804   1.372   0.717  14.815  0.1319 -2.4530 -0.2149
 6105TIP3   OH239805   3.510   4.260  11.886  0.0075  0.2068  0.3336
 6105TIP3    H139806   3.453   4.201  11.935  0.0605  0.9841  1.3243
 6105TIP3    H239807   3.552   4.203  11.821 -0.5268 -0.7013  0.7725
 6106TIP3   OH239808   3.210   0.027  15.479  0.2680 -0.3582 -0.1992
 6106TIP3    H139809   3.204  -0.002  15.388 -2.2113 -0.4801 -0.0252
 6106TIP3    H239810   3.303   0.046  15.491  0.8565 -1.5776 -2.3646
 6107TIP3   OH239811   0.733   2.515  11.302  0.3104  0.0737  0.4400
 6107TIP3    H139812   0.795   2.491  11.370  0.8341  0.2907  0.0346
 6107TIP3    H239813   0.779   2.580  11.248  0.2483 -0.8152 -0.6975
 6108TIP3   OH239814   3.045   4.704  13.475  0.3738  0.3325 -0.0208
 6108TIP3    H139815   3.026   4.615  13.445 -0.2143  0.2293  0.6422
 6108TIP3    H239816   2.998   4.712  13.558  1.3572  0.8755  0.4919
 6109TIP3   OH239817   5.342   6.555  11.609  0.5802 -0.8249 -0.0917
 6109TIP3    H139818   5.314   6.639  11.572  0.9661 -0.3033  0.7702
 6109TIP3    H239819   5.278   6.535  11.676  0.7493 -0.9816  0.0237
 6110TIP3   OH239820   5.636   3.014  17.271 -0.0679  0.7323  0.6063
 6110TIP3    H139821   5.586   2.944  17.228 -1.4933  1.7686  0.5408
 6110TIP3    H239822   5.645   2.985  17.362 -2.0055  1.1490  0.9608
 6111TIP3   OH239823   2.662   4.692  11.167  0.0931  0.5060  0.1988
 6111TIP3    H139824   2.693   4.638  11.239 -0.1662  0.1731  0.0673
 6111TIP3    H239825   2.671   4.782  11.198 -0.5529  0.3454  0.8687
 6112TIP3   OH239826   3.270   2.330  12.306  0.9967 -0.4758  0.7094
 6112TIP3    H139827   3.227   2.269  12.366  1.7484 -1.2113  0.5130
 6112TIP3    H239828   3.310   2.274  12.240  1.8449  0.2183  0.6234
 6113TIP3   OH239829   2.651   3.239  14.700 -0.0118  0.1192  0.4610
 6113TIP3    H139830   2.699   3.167  14.743  1.9637  1.3088  0.3240
 6113TIP3    H239831   2.684   3.239  14.610 -1.6728 -0.2148 -0.1728
 6114TIP3   OH239832   6.607   2.175  12.369 -0.1041  0.1411  0.1580
 6114TIP3    H139833   6.689   2.202  12.412 -0.0262 -1.3434  0.9806
 6114TIP3    H239834   6.583   2.250  12.315  1.6615  0.7106  0.1180
 6115TIP3   OH239835   6.603   1.986   4.489 -0.3557 -0.8495 -0.4257
 6115TIP3    H139836   6.543   2.033   4.547 -0.8610 -0.1006 -1.5449
 6115TIP3    H239837   6.558   1.982   4.405  0.8942 -0.8182 -1.1122
 6116TIP3   OH239838   1.805   3.261   5.172  0.1764 -0.1801 -0.1451
 6116TIP3    H139839   1.815   3.232   5.081 -2.3139  2.4368 -1.3258
 6116TIP3    H239840   1.763   3.187   5.216 -0.8780 -0.5656 -1.7325
 6117TIP3   OH239841   2.816   4.284   0.523  0.5029 -0.7005  1.0021
 6117TIP3    H139842   2.880   4.354   0.515  0.7364 -0.9501  0.6642
 6117TIP3    H239843   2.773   4.300   0.607 -1.4789  1.5564 -0.3510
 6118TIP3   OH239844   3.171   5.581  13.118 -0.1675 -0.0978  0.0804
 6118TIP3    H139845   3.159   5.656  13.175  0.6691 -2.2241  3.1555
 6118TIP3    H239846   3.260   5.590  13.084 -0.4885  0.8881 -0.5241
 6119TIP3   OH239847   3.604   1.850   0.326  0.2905 -0.2138  0.0195
 6119TIP3    H139848   3.675   1.913   0.319  2.0991 -2.1706  0.0451
 6119TIP3    H239849   3.647   1.765   0.323 -2.0234 -1.4612  0.4600
 6120TIP3   OH239850   2.636   6.408  14.259 -0.3855 -0.0322 -0.3776
 6120TIP3    H139851   2.672   6.383  14.344 -0.1298 -2.2596 -1.1086
 6120TIP3    H239852   2.713   6.425  14.204 -0.5152 -0.2308 -0.6257
 6121TIP3   OH239853   5.124   3.814   5.504  0.7283  0.8896  0.1128
 6121TIP3    H139854   5.053   3.859   5.550 -1.6418 -0.1503 -2.4176
 6121TIP3    H239855   5.144   3.870   5.430  0.1395 -0.4632 -1.1083
 6122TIP3   OH239856   0.434   0.121   4.588 -0.0402  0.3847 -0.5350
 6122TIP3    H139857   0.345   0.140   4.617 -0.2633 -0.7087 -0.4644
 6122TIP3    H239858   0.425   0.100   4.495  0.3169  1.4299 -0.8093
 6123TIP3   OH239859   1.542   3.809  14.596 -0.3091 -0.2399  0.7542
 6123TIP3    H139860   1.448   3.797  14.609 -0.5423  1.5526  0.8904
 6123TIP3    H239861   1.555   3.904  14.600  1.1882 -0.3189 -1.5412
 6124TIP3   OH239862   4.062   6.606  14.068 -0.2562 -0.3507 -0.4763
 6124TIP3    H139863   3.980   6.577  14.108 -0.1628  1.2818  0.9975
 6124TIP3    H239864   4.125   6.602  14.140 -0.0374  2.5024 -0.4310
 6125TIP3   OH239865   1.413   4.265  11.260  0.4613 -0.4151 -0.3484
 6125TIP3    H139866   1.460   4.281  11.178  1.3069  0.2760  0.2669
 6125TIP3    H239867   1.446   4.180  11.291 -0.3745 -1.0169 -1.0683
 6126TIP3   OH239868   4.047   3.105  14.047 -0.6919  0.1294  0.1295
 6126TIP3    H139869   4.061   3.032  13.988  0.3306 -0.1990  0.7629
 6126TIP3    H239870   4.010   3.174  13.992  0.6205 -0.0355 -0.9816
 6127TIP3   OH239871   3.562   1.818  12.476  1.1766  0.0564  0.4378
 6127TIP3    H139872   3.495   1.827  12.408  0.9201  0.1857  0.7093
 6127TIP3    H239873   3.514   1.803  12.557  1.4226  1.2402  0.8259
 6128TIP3   OH239874   1.296   6.538   5.904 -0.0547  0.1324 -0.4162
 6128TIP3    H139875   1.383   6.574   5.922 -0.5412  0.1253  1.9965
 6128TIP3    H239876   1.247   6.611   5.866  0.5016  0.5778 -0.2820
 6129TIP3   OH239877   6.490   5.402   5.015  0.0714  0.3946  0.0400
 6129TIP3    H139878   6.417   5.346   4.990 -1.3156  3.1131 -2.3425
 6129TIP3    H239879   6.539   5.416   4.934  1.5787  0.9783  1.0143
 6130TIP3   OH239880   0.374   3.225   0.439 -0.0971  0.1844 -0.5708
 6130TIP3    H139881   0.405   3.135   0.455  0.0948  0.5882  1.4554
 6130TIP3    H239882   0.449   3.268   0.397  0.7179  0.0546  0.7007
 6131TIP3   OH239883   1.643   5.834   2.760  0.3198  0.2409 -0.0750
 6131TIP3    H139884   1.616   5.758   2.813 -0.1875  0.9965  0.7541
 6131TIP3    H239885   1.563   5.884   2.748  0.1208 -0.6729 -2.8330
 6132TIP3   OH239886   5.335   1.573   2.656 -0.4609 -0.2596 -0.0924
 6132TIP3    H139887   5.286   1.639   2.606  0.5102  1.3239  0.9986
 6132TIP3    H239888   5.383   1.624   2.722 -0.9612 -2.2196  1.8226
 6133TIP3   OH239889   2.182   0.381   1.521 -0.2301  0.0630 -0.3976
 6133TIP3    H139890   2.188   0.472   1.491 -0.6605  0.1950 -0.0894
 6133TIP3    H239891   2.268   0.344   1.502  0.5581  1.0590  1.1953
 6134TIP3   OH239892   4.060   2.912   4.780  0.4045  0.0056 -0.0434
 6134TIP3    H139893   3.972   2.885   4.808  0.8762 -0.2650  1.1781
 6134TIP3    H239894   4.077   2.993   4.828  0.9775 -0.1390 -0.0015
 6135TIP3   OH239895   0.627   4.882   4.434 -0.0328  0.0657 -0.0568
 6135TIP3    H139896   0.567   4.814   4.403 -1.3164  1.0301  0.2584
 6135TIP3    H239897   0.644   4.936   4.357 -0.7150  0.6204  0.1736
 6136TIP3   OH239898   1.654   5.102  16.325 -0.5182 -0.2728 -0.3995
 6136TIP3    H139899   1.683   5.127  16.413 -0.6424 -1.0221 -0.1481
 6136TIP3    H239900   1.707   5.025  16.303  0.1914  0.4676 -1.3672
 6137TIP3   OH239901   3.928   3.826  12.944 -0.3930  0.4156  0.5683
 6137TIP3    H139902   3.986   3.820  12.867 -1.2379  0.3965 -0.0791
 6137TIP3    H239903   3.848   3.866  12.910 -0.0866  2.1868  1.8428
 6138TIP3   OH239904   6.130   5.814   1.951  0.0005 -0.3510 -0.3382
 6138TIP3    H139905   6.161   5.724   1.959  0.8245  0.0085  0.5006
 6138TIP3    H239906   6.193   5.866   2.000 -0.8169  0.6204 -0.3049
 6139TIP3   OH239907   6.115   2.794   3.922 -0.3448 -0.0024  0.1933
 6139TIP3    H139908   6.125   2.727   3.854 -0.3083  0.0560  0.1408
 6139TIP3    H239909   6.101   2.875   3.873 -3.3237 -0.4189  0.2972
 6140TIP3   OH239910   0.970   0.294   0.419 -0.0093 -0.5452  0.8481
 6140TIP3    H139911   0.998   0.291   0.327  0.3862 -1.2811  0.9831
 6140TIP3    H239912   1.041   0.341   0.464  0.4933 -1.4347  1.0054
 6141TIP3   OH239913   3.032   3.031   4.291  0.1867  0.3178  0.3605
 6141TIP3    H139914   3.019   2.974   4.216 -2.9339  3.6574 -1.8150
 6141TIP3    H239915   3.124   3.057   4.287  0.4078 -0.7114 -1.4089
 6142TIP3   OH239916   1.536   3.232   3.672 -0.3333 -0.7098  0.4684
 6142TIP3    H139917   1.601   3.236   3.602 -0.0395  0.8240  0.8226
 6142TIP3    H239918   1.486   3.152   3.654  1.2904 -1.6052 -0.1126
 6143TIP3   OH239919   5.402   0.264  14.911 -0.3998  0.8618 -0.2353
 6143TIP3    H139920   5.443   0.262  14.997  0.0286 -3.1935 -0.4547
 6143TIP3    H239921   5.309   0.251  14.928 -0.5539  1.8135 -0.3021
 6144TIP3   OH239922   0.780   1.351  16.941 -0.5437  0.3860 -0.0927
 6144TIP3    H139923   0.718   1.297  16.989  0.3484 -0.5727  0.0049
 6144TIP3    H239924   0.838   1.288  16.898  0.9449  1.2604  0.5968
 6145TIP3   OH239925   1.257   6.387  12.171 -0.1760 -0.4103  0.7711
 6145TIP3    H139926   1.264   6.395  12.076 -0.5901 -2.1710  0.5686
 6145TIP3    H239927   1.196   6.314  12.185 -1.4377  0.8931  2.3957
 6146TIP3   OH239928   1.251   5.972  11.279  0.3311  0.1303  0.1423
 6146TIP3    H139929   1.333   5.947  11.237  0.0813 -0.8872  0.2450
 6146TIP3    H239930   1.227   5.896  11.332  1.2503  1.7725  3.0825
 6147TIP3   OH239931   5.537   0.668  14.984  0.2875  0.3608  0.3150
 6147TIP3    H139932   5.469   0.734  14.993 -0.3992 -0.6132  2.5074
 6147TIP3    H239933   5.530   0.638  14.893 -4.3748 -1.9577  1.3139
 6148TIP3   OH239934   4.175   5.061  14.812  0.1675 -0.3419  0.2114
 6148TIP3    H139935   4.230   5.015  14.876  0.2741  0.8990  1.0254
 6148TIP3    H239936   4.086   5.048  14.843  0.1170 -1.0212 -0.2260
 6149TIP3   OH239937   6.424   2.162  15.381  0.5729  0.0939 -0.6013
 6149TIP3    H139938   6.360   2.139  15.449 -0.3752 -1.2263 -1.9259
 6149TIP3    H239939   6.474   2.234  15.420 -1.2852  0.7287  0.7023
 6150TIP3   OH239940   2.497   2.653   1.292 -0.2248  0.2134 -0.2778
 6150TIP3    H139941   2.504   2.565   1.329  2.7458 -0.1292 -1.5809
 6150TIP3    H239942   2.483   2.710   1.368  1.5339 -0.9497  0.9363
 6151TIP3   OH239943   4.307   1.929  16.884  0.4279  0.3284  1.1092
 6151TIP3    H139944   4.231   1.983  16.863 -0.0215 -0.5612  0.3840
 6151TIP3    H239945   4.314   1.868  16.810 -0.0058 -1.6218  2.6513
 6152TIP3   OH239946   5.292   4.536  16.570  0.2611  0.4213  0.4500
 6152TIP3    H139947   5.214   4.493  16.533 -0.0642  1.8729 -0.6015
 6152TIP3    H239948   5.333   4.469  16.624 -0.7249 -0.9419 -0.4559
 6153TIP3   OH239949   0.657   5.056   2.840 -0.5247  0.3496 -0.8511
 6153TIP3    H139950   0.677   5.135   2.791  2.5400  0.0371 -0.2032
 6153TIP3    H239951   0.571   5.072   2.878 -0.3323  2.9977 -1.4842
 6154TIP3   OH239952   1.500   1.622   5.563 -0.1977  0.3090  0.1770
 6154TIP3    H139953   1.545   1.698   5.598 -0.5738  0.3989  0.4734
 6154TIP3    H239954   1.564   1.579   5.507  0.4135  0.1673  0.9714
 6155TIP3   OH239955   3.580   5.727   2.866  0.1828 -0.2071 -0.1568
 6155TIP3    H139956   3.559   5.639   2.900 -1.9417  1.0704  1.9767
 6155TIP3    H239957   3.498   5.775   2.871  1.4470  2.1047 -0.7963
 6156TIP3   OH239958   2.622   0.024   4.085  0.6814 -0.1548 -0.0607
 6156TIP3    H139959   2.703   0.066   4.117  1.4914 -0.2034 -2.0079
 6156TIP3    H239960   2.581  -0.011   4.164  1.8264  1.1560  1.1425
 6157TIP3   OH239961   4.860   0.536  13.835  0.1381  0.3330 -0.2368
 6157TIP3    H139962   4.770   0.562  13.852  0.5850  1.5188  0.3144
 6157TIP3    H239963   4.862   0.515  13.741 -0.1717  2.4947 -0.7378
 6158TIP3   OH239964   3.401   1.125  14.331 -0.2088  0.0255  0.3264
 6158TIP3    H139965   3.356   1.082  14.404  1.1271 -0.7095  0.7237
 6158TIP3    H239966   3.336   1.126  14.261 -1.5173  0.7534  1.5176
 6159TIP3   OH239967   2.343   5.509   2.881  0.1242 -0.2634  0.2347
 6159TIP3    H139968   2.387   5.592   2.867 -2.5409  1.6156  2.4260
 6159TIP3    H239969   2.346   5.496   2.976 -0.3555 -2.1625  0.0128
 6160TIP3   OH239970   3.654   3.771   3.698  0.6711 -0.5455  0.3412
 6160TIP3    H139971   3.700   3.687   3.705  2.0825  0.0889 -0.9916
 6160TIP3    H239972   3.724   3.836   3.705 -0.1394  0.4560 -0.8081
 6161TIP3   OH239973   6.385   0.638   6.314 -1.2103 -0.4580  0.1806
 6161TIP3    H139974   6.435   0.694   6.254 -2.1618  1.2140  0.9047
 6161TIP3    H239975   6.450   0.582   6.355 -0.4079 -0.8818 -1.6214
 6162TIP3   OH239976   1.662   0.789   4.058 -0.1408  0.0786  0.3705
 6162TIP3    H139977   1.745   0.799   4.105 -0.4671  0.0691  0.9565
 6162TIP3    H239978   1.658   0.695   4.038  0.5653  0.2744 -0.7426
 6163TIP3   OH239979   4.722   2.580   5.714 -0.1178  0.5696 -0.0465
 6163TIP3    H139980   4.776   2.659   5.709  0.4152  0.1563 -1.2163
 6163TIP3    H239981   4.755   2.525   5.643 -2.3536  0.4674 -1.0519
 6164TIP3   OH239982   4.375   4.777  16.615  0.3341 -0.5521 -0.5503
 6164TIP3    H139983   4.365   4.730  16.698 -2.5416 -0.8520 -1.0048
 6164TIP3    H239984   4.337   4.863  16.632  1.2140 -0.0525 -1.1046
 6165TIP3   OH239985   0.306   1.555  12.685  0.4708 -0.1885 -0.0657
 6165TIP3    H139986   0.321   1.615  12.612  2.3540  1.0503  1.3005
 6165TIP3    H239987   0.336   1.602  12.762  0.7067 -2.3663  1.2214
 6166TIP3   OH239988   4.444   5.569  15.695  0.5609 -0.1490  0.3095
 6166TIP3    H139989   4.438   5.559  15.600 -2.1511 -0.3411  0.4696
 6166TIP3    H239990   4.489   5.652  15.708  1.0027 -0.1583 -1.1424
 6167TIP3   OH239991   0.162   1.079  13.146 -0.1911  0.3906 -0.3164
 6167TIP3    H139992   0.242   1.103  13.194 -0.1918  3.4228 -1.6937
 6167TIP3    H239993   0.123   1.009  13.198  3.6192 -1.5825  0.1213
 6168TIP3   OH239994   3.654   0.664   3.516  0.0471 -0.0062  0.0726
 6168TIP3    H139995   3.585   0.730   3.526  1.3075  1.4675 -0.7993
 6168TIP3    H239996   3.661   0.624   3.602 -1.3389  0.3797  0.3848
 6169TIP3   OH239997   5.884   0.255  11.732  0.9201  0.1294 -0.2641
 6169TIP3    H139998   5.877   0.340  11.775  1.3189  1.2661 -2.3799
 6169TIP3    H239999   5.970   0.222  11.759  0.4944  0.0761  1.0743
 6170TIP3   OH240000   1.076   1.449   0.087 -0.5222  0.4144 -0.3886
 6170TIP3    H140001   1.008   1.432   0.152  0.3039 -0.5085  0.2403
 6170TIP3    H240002   1.068   1.543   0.068 -0.9909  0.6201  0.7792
 6171TIP3   OH240003   3.149   0.962  12.326 -0.2272  0.3019  0.4995
 6171TIP3    H140004   3.211   0.936  12.258  0.7732  1.6656  0.8705
 6171TIP3    H240005   3.066   0.924  12.298  0.0891  1.1324 -1.6814
 6172TIP3   OH240006   6.347   3.386   2.404 -0.4436 -0.7638 -0.1925
 6172TIP3    H140007   6.391   3.413   2.323  1.1619  1.0148  1.2063
 6172TIP3    H240008   6.327   3.469   2.448 -1.5025 -1.7097  1.1272
 6173TIP3   OH240009   5.359   5.640  12.460 -0.2548 -0.1881 -0.6200
 6173TIP3    H140010   5.394   5.568  12.512  1.3997  1.3992  0.5279
 6173TIP3    H240011   5.390   5.624  12.371  0.6172 -0.5558 -0.2509
 6174TIP3   OH240012   2.459   5.781  13.620 -0.2970  0.1976 -0.4659
 6174TIP3    H140013   2.386   5.720  13.634 -0.9697  1.1386  0.1590
 6174TIP3    H240014   2.499   5.751  13.538 -0.8528 -0.8568 -0.3688
 6175TIP3   OH240015   5.623   6.124  12.222  0.1931  0.5239 -0.2443
 6175TIP3    H140016   5.713   6.134  12.190 -0.0559  0.4247 -0.9705
 6175TIP3    H240017   5.594   6.040  12.186 -1.2964  2.0181 -2.6428
 6176TIP3   OH240018   2.918   0.798  14.949 -0.5545 -0.2666 -0.8455
 6176TIP3    H140019   2.989   0.791  15.012 -2.0686 -0.8786  0.8184
 6176TIP3    H240020   2.940   0.875  14.897  1.7136 -0.8962 -0.8673
 6177TIP3   OH240021   4.010   0.035  15.722  0.1497 -0.4629 -0.3082
 6177TIP3    H140022   3.933   0.082  15.756  0.8636 -0.6406  1.6291
 6177TIP3    H240023   3.973  -0.039  15.675 -0.9334  0.8628 -1.5974
 6178TIP3   OH240024   3.507   1.913  11.694 -0.1248  0.0298 -0.1203
 6178TIP3    H140025   3.415   1.901  11.715  0.0382 -0.6840  0.1836
 6178TIP3    H240026   3.508   1.988  11.634 -0.9203 -0.1254 -0.3321
 6179TIP3   OH240027   4.239   4.551  12.460  0.3150 -0.2404  0.0166
 6179TIP3    H140028   4.172   4.485  12.440  0.0167 -0.6980  2.3330
 6179TIP3    H240029   4.319   4.500  12.473  0.3993 -0.0034  0.4254
 6180TIP3   OH240030   4.228   3.814   2.762  0.2147 -0.3848 -0.2365
 6180TIP3    H140031   4.266   3.782   2.844  1.8628  2.8181  0.3138
 6180TIP3    H240032   4.175   3.889   2.787 -1.0789 -0.7205 -1.8691
 6181TIP3   OH240033   0.279   4.817   0.409  0.1085 -0.8106  0.2258
 6181TIP3    H140034   0.266   4.911   0.397  0.1173 -0.8912 -0.4350
 6181TIP3    H240035   0.365   4.800   0.370 -0.3940 -1.2852 -0.6881
 6182TIP3   OH240036   3.652   2.614   6.011 -0.0256 -0.0075  0.0280
 6182TIP3    H140037   3.697   2.566   5.942  0.6858  1.3344 -0.4469
 6182TIP3    H240038   3.569   2.568   6.022 -0.4122  0.1226 -2.1397
 6183TIP3   OH240039   2.835   2.068   0.092  0.8840 -0.5193 -0.6260
 6183TIP3    H140040   2.781   1.990   0.082  1.1806 -0.6945 -0.8602
 6183TIP3    H240041   2.775   2.134   0.128  1.1519 -1.4575  1.6218
 6184TIP3   OH240042   3.152   3.681  13.401  0.4985 -0.1858  0.7081
 6184TIP3    H140043   3.091   3.707  13.333 -0.7303 -1.0232  1.4568
 6184TIP3    H240044   3.166   3.587  13.386  1.7645  0.0336  0.4295
 6185TIP3   OH240045   4.153   0.773  17.271 -0.0569 -0.0519  0.2440
 6185TIP3    H140046   4.151   0.772  17.367 -0.3067 -1.2890  0.2320
 6185TIP3    H240047   4.152   0.866  17.248  2.4919  0.3182  1.4757
 6186TIP3   OH240048   5.970   1.266  15.750 -0.0236 -0.3124  0.2935
 6186TIP3    H140049   6.006   1.337  15.804  0.1924 -0.3184  0.1584
 6186TIP3    H240050   5.955   1.307  15.665 -0.5875 -0.2416  0.4252
 6187TIP3   OH240051   1.882   5.901   2.118 -0.4066  0.2643 -1.1931
 6187TIP3    H140052   1.817   5.832   2.120 -0.0631 -0.0557 -0.7606
 6187TIP3    H240053   1.939   5.882   2.193 -1.2332  1.9069 -0.1146
 6188TIP3   OH240054   1.001   6.689  17.136 -0.9312 -0.5251  0.1402
 6188TIP3    H140055   1.047   6.721  17.058  2.2521 -0.5257  1.9469
 6188TIP3    H240056   1.034   6.600  17.148 -0.6272 -0.1658  2.0692
 6189TIP3   OH240057   6.323   1.323   5.962  0.3766 -0.1639 -0.0834
 6189TIP3    H140058   6.314   1.392   6.028 -0.1156 -0.4436  0.1427
 6189TIP3    H240059   6.384   1.359   5.898  1.6391 -0.2904  1.0422
 6190TIP3   OH240060   5.634   4.124  13.807  0.5324 -0.3887  0.8989
 6190TIP3    H140061   5.600   4.209  13.779 -0.4233 -1.0464  0.0299
 6190TIP3    H240062   5.637   4.130  13.902  0.1527  0.5002  0.8634
 6191TIP3   OH240063   6.598   1.243  13.086  0.2030  0.0524  0.3902
 6191TIP3    H140064   6.642   1.231  13.001  2.0828  0.3397  1.2825
 6191TIP3    H240065   6.623   1.166  13.136  0.1489  0.5029  1.1106
 6192TIP3   OH240066   5.372   0.941  16.435  0.3564 -0.3830 -0.3726
 6192TIP3    H140067   5.388   0.962  16.343  1.1335 -0.6833 -0.3096
 6192TIP3    H240068   5.316   0.863  16.432  0.0587 -0.1644 -0.5885
 6193TIP3   OH240069   4.313   4.111  10.747  0.1968  0.1614  0.0311
 6193TIP3    H140070   4.388   4.164  10.722 -0.5789  0.4270 -1.8181
 6193TIP3    H240071   4.349   4.022  10.757  1.0642  0.6019  0.9030
 6194TIP3   OH240072   2.350   5.325  16.000  0.6496  0.4241 -0.1773
 6194TIP3    H140073   2.392   5.311  15.915  1.8755  1.5841  0.2313
 6194TIP3    H240074   2.411   5.287  16.063  0.0773  0.2065  0.2507
 6195TIP3   OH240075   1.558   1.943   0.990 -0.2357  0.1278 -0.2001
 6195TIP3    H140076   1.536   1.852   1.011 -0.4557 -0.4428 -2.7452
 6195TIP3    H240077   1.652   1.941   0.971  0.0636  0.7246  1.1712
 6196TIP3   OH240078   6.177   1.840  10.581  0.4692  0.2332 -0.1790
 6196TIP3    H140079   6.244   1.903  10.556  1.1389 -1.2688 -2.3479
 6196TIP3    H240080   6.222   1.755  10.579 -0.5270 -0.3969  2.2075
 6197TIP3   OH240081   3.639   1.277   5.521  0.0348 -0.1703 -0.1489
 6197TIP3    H140082   3.653   1.257   5.613 -2.4343 -1.4166 -0.0053
 6197TIP3    H240083   3.617   1.193   5.480 -2.6339  0.9245 -1.0970
 6198TIP3   OH240084   2.965   6.501  11.510 -0.1846 -0.0985 -0.3462
 6198TIP3    H140085   2.991   6.565  11.576  1.5558 -0.0842 -1.0088
 6198TIP3    H240086   3.024   6.427  11.525 -0.2630 -0.3807 -1.4115
 6199TIP3   OH240087   2.908   1.615  15.304  0.0961  0.0807 -0.1127
 6199TIP3    H140088   2.922   1.555  15.231  2.6962  0.6828 -0.1971
 6199TIP3    H240089   2.824   1.590  15.341  0.1648 -2.2213 -1.4246
 6200TIP3   OH240090   2.243   3.552   5.461 -0.1012 -0.3372 -0.2171
 6200TIP3    H140091   2.205   3.577   5.545  0.8818  0.7145 -0.0621
 6200TIP3    H240092   2.335   3.534   5.481 -0.0352 -0.8169 -0.9362
 6201TIP3   OH240093   4.544   4.912  15.315  0.1473 -0.1903 -0.5397
 6201TIP3    H140094   4.535   4.855  15.392  0.0905 -1.0076 -1.1482
 6201TIP3    H240095   4.576   4.995  15.351 -0.9882 -0.1856  0.5185
 6202TIP3   OH240096   5.256   1.889  11.634  0.0428 -0.1720  0.0362
 6202TIP3    H140097   5.194   1.953  11.670 -1.2445 -1.4869  0.2059
 6202TIP3    H240098   5.206   1.845  11.565  1.2856 -0.2319 -0.8275
 6203TIP3   OH240099   4.257   5.864  10.832 -0.4050  1.0063  0.0531
 6203TIP3    H140100   4.188   5.801  10.814 -2.5584  2.8005  1.7440
 6203TIP3    H240101   4.222   5.948  10.800  1.9055  1.6078 -1.0722
 6204TIP3   OH240102   6.040   4.837   0.939  0.1377 -0.1768 -0.4197
 6204TIP3    H140103   6.116   4.817   0.884  1.1537 -0.2121  0.9866
 6204TIP3    H240104   6.072   4.827   1.029 -1.9993 -1.8943  0.1816
 6205TIP3   OH240105   3.000   4.669   0.008  0.3992  0.0961 -0.0080
 6205TIP3    H140106   2.934   4.702  -0.053 -0.3739 -0.7601  0.3546
 6205TIP3    H240107   3.053   4.745   0.029 -2.3008  1.5125  2.0542
 6206TIP3   OH240108   3.345   1.975  15.453  0.5617 -0.0050 -0.3067
 6206TIP3    H140109   3.250   1.968  15.449  0.5540 -0.7652  0.8790
 6206TIP3    H240110   3.362   2.035  15.525  0.9596  1.4162 -1.5548
 6207TIP3   OH240111   4.095   4.024   2.331  0.7266  0.2798  0.3700
 6207TIP3    H140112   4.094   4.010   2.237  1.8647  0.8189  0.2773
 6207TIP3    H240113   4.098   3.936   2.369 -1.2836  0.0037 -0.0567
 6208TIP3   OH240114   2.306   0.514  16.842  0.5906 -0.4044 -0.4482
 6208TIP3    H140115   2.284   0.444  16.781 -2.9619  0.9381 -0.8550
 6208TIP3    H240116   2.329   0.588  16.785  3.1314 -0.8738 -0.0466
 6209TIP3   OH240117   0.749   2.976   2.798  0.1014 -0.0102  0.0343
 6209TIP3    H140118   0.781   3.012   2.881  0.5773 -0.5188  0.0695
 6209TIP3    H240119   0.823   2.981   2.738 -0.8400  2.3242 -1.0020
 6210TIP3   OH240120   1.710   6.745   0.783 -0.3198 -0.3518 -0.2257
 6210TIP3    H140121   1.787   6.800   0.772  0.1958 -1.0259 -0.0502
 6210TIP3    H240122   1.637   6.798   0.751  0.3608 -0.1089 -1.3923
 6211TIP3   OH240123   3.363   3.351   1.149 -0.1463  0.0347  0.1426
 6211TIP3    H140124   3.412   3.384   1.225 -0.5922 -0.3319  0.5961
 6211TIP3    H240125   3.307   3.283   1.185 -2.2661  1.6335 -0.0679
 6212TIP3   OH240126   2.253   6.371   4.613  0.1250  0.0251 -0.2135
 6212TIP3    H140127   2.189   6.305   4.586  0.3798 -0.4983  0.4393
 6212TIP3    H240128   2.236   6.446   4.557 -0.6441 -0.3433 -0.4749
 6213TIP3   OH240129   5.316   0.829  15.267 -0.3059 -0.1920  0.1510
 6213TIP3    H140130   5.251   0.785  15.212  0.4648 -1.0279 -0.0882
 6213TIP3    H240131   5.279   0.826  15.355 -1.3842  0.8349 -0.2475
 6214TIP3   OH240132   6.702   5.606  11.911 -0.1512 -0.3850 -0.0331
 6214TIP3    H140133   6.663   5.542  11.970  0.2368 -0.4113  0.1974
 6214TIP3    H240134   6.795   5.584  11.910  0.1666  0.8173  0.8858
 6215TIP3   OH240135   3.257   4.754  12.876 -0.0230  0.1772  0.0107
 6215TIP3    H140136   3.253   4.714  12.789 -1.3601  1.4335 -0.5185
 6215TIP3    H240137   3.237   4.846  12.861 -2.0085  0.0843  1.8548
 6216TIP3   OH240138   0.760   6.771  14.110  0.4467 -0.2052 -0.5971
 6216TIP3    H140139   0.761   6.864  14.089 -0.5316 -0.0117  0.1718
 6216TIP3    H240140   0.790   6.766  14.201  0.4137 -0.6320 -0.6055
 6217TIP3   OH240141   4.745   1.507  14.228  0.2225  0.5429  0.0144
 6217TIP3    H140142   4.763   1.530  14.319 -1.2632 -0.3334  0.5440
 6217TIP3    H240143   4.796   1.571  14.177  0.6039  1.4108  1.4447
 6218TIP3   OH240144   0.988   2.819   3.054 -0.0475 -0.4151  0.5557
 6218TIP3    H140145   1.061   2.768   3.088 -0.3191 -1.0674  0.1832
 6218TIP3    H240146   0.911   2.763   3.069 -0.0646 -1.0738 -1.8884
 6219TIP3   OH240147   2.980   0.242   5.351 -0.2956 -0.1821 -0.1455
 6219TIP3    H140148   3.012   0.323   5.392  0.3400  0.5820 -2.0377
 6219TIP3    H240149   2.887   0.258   5.336 -0.3170 -0.0698  0.1098
 6220TIP3   OH240150   3.487   4.325  11.408 -0.4074  0.3145 -0.0123
 6220TIP3    H140151   3.578   4.295  11.403 -0.3342  0.8003 -2.1934
 6220TIP3    H240152   3.492   4.419  11.393 -1.3172  0.2799 -0.5893
 6221TIP3   OH240153   2.836   4.922   5.025  0.0628  0.6646 -0.4307
 6221TIP3    H140154   2.782   4.870   5.085 -0.2156  2.7715  1.2148
 6221TIP3    H240155   2.790   4.917   4.941 -1.7653  0.9602  0.5206
 6222TIP3   OH240156   6.511   3.432  17.279  0.0807  0.2375  0.0549
 6222TIP3    H140157   6.457   3.477  17.344  1.1953  2.3762 -0.4449
 6222TIP3    H240158   6.540   3.352  17.322  0.0261  1.1771  1.8556
 6223TIP3   OH240159   2.051   4.236  15.947 -0.0431 -0.4763 -0.0658
 6223TIP3    H140160   2.101   4.157  15.968  0.6672  0.4724  1.9291
 6223TIP3    H240161   2.037   4.279  16.032 -1.9435  0.6476 -0.9132
 6224TIP3   OH240162   4.592   3.365   4.995  0.4440  0.0674  0.7369
 6224TIP3    H140163   4.593   3.272   4.972 -2.5702 -0.4877  2.5638
 6224TIP3    H240164   4.567   3.366   5.088 -1.2337  2.7331  0.3017
 6225TIP3   OH240165   6.793   6.572   5.185 -0.1829  0.1922 -0.0454
 6225TIP3    H140166   6.832   6.657   5.204 -2.8793  1.7664 -1.2754
 6225TIP3    H240167   6.716   6.567   5.242 -0.4148 -1.1622 -0.4461
 6226TIP3   OH240168   2.240   0.202  13.559  0.2651 -0.4293  0.1168
 6226TIP3    H140169   2.248   0.297  13.563 -0.1509 -0.3132 -1.5525
 6226TIP3    H240170   2.291   0.176  13.482 -0.5666 -1.4339 -0.1096
 6227TIP3   OH240171   2.212   4.254  11.684 -0.5377  0.0489  0.0520
 6227TIP3    H140172   2.288   4.299  11.721  0.0221 -1.9186  1.3998
 6227TIP3    H240173   2.207   4.285  11.593  1.0355  1.2329  0.3501
 6228TIP3   OH240174   1.809   1.003  11.267 -0.1478 -0.1068 -0.2316
 6228TIP3    H140175   1.901   0.995  11.243 -0.1926 -1.1711 -0.0688
 6228TIP3    H240176   1.765   0.936  11.215 -0.8464  0.4493 -0.3653
 6229TIP3   OH240177   6.050   2.630   4.771  0.3342  0.1447  0.9297
 6229TIP3    H140178   6.074   2.696   4.836  1.2229  0.2506  0.5051
 6229TIP3    H240179   6.116   2.639   4.703  0.0595 -0.7256  0.5443
 6230TIP3   OH240180   5.344   4.385  16.820 -0.0469 -0.7635  0.3589
 6230TIP3    H140181   5.397   4.456  16.857  0.3085 -1.8436  1.9600
 6230TIP3    H240182   5.269   4.377  16.879 -1.0023 -0.5535 -0.8090
 6231TIP3   OH240183   0.020   0.552   2.202 -0.8339  0.1731  0.4084
 6231TIP3    H140184   0.065   0.541   2.285 -0.3494 -1.5877 -0.0680
 6231TIP3    H240185   0.089   0.548   2.136 -1.4325 -0.3456 -0.1922
 6232TIP3   OH240186   3.910   2.139  14.805 -0.3494 -1.1399 -0.0282
 6232TIP3    H140187   3.858   2.060  14.792  1.2800 -2.1201 -0.7807
 6232TIP3    H240188   3.862   2.188  14.871 -2.4895 -1.7524 -1.0668
 6233TIP3   OH240189   3.033   3.723  12.239 -0.6766  0.1304  0.0745
 6233TIP3    H140190   3.127   3.707  12.254 -0.6926  0.3009  0.3527
 6233TIP3    H240191   2.993   3.636  12.241 -0.5242  0.0560 -0.0555
 6234TIP3   OH240192   1.531   6.804   3.294  0.2136 -0.2923  0.0819
 6234TIP3    H140193   1.571   6.738   3.350  2.1147  1.2554  0.6324
 6234TIP3    H240194   1.444   6.819   3.331  0.5703 -0.9809  1.2018
 6235TIP3   OH240195   5.751   4.718  10.310 -0.2899 -0.2848  0.2720
 6235TIP3    H140196   5.817   4.742  10.245 -1.4364  1.0333 -0.4239
 6235TIP3    H240197   5.789   4.746  10.394 -0.1983  0.9632 -0.1817
 6236TIP3   OH240198   1.938   0.684  10.807  0.1537  0.3271  0.0556
 6236TIP3    H140199   2.028   0.665  10.837  0.1273  2.2791  1.4572
 6236TIP3    H240200   1.920   0.616  10.742  1.5960 -1.8278  1.8195
 6237TIP3   OH240201   2.185   0.567  12.614  0.5313 -0.2934  0.1628
 6237TIP3    H140202   2.223   0.483  12.585  2.7872  1.2114 -1.3940
 6237TIP3    H240203   2.224   0.581  12.700 -0.6157 -1.3083  0.8572
 6238TIP3   OH240204   4.196   0.442  17.224  0.5470 -0.2063 -0.4267
 6238TIP3    H140205   4.228   0.437  17.315 -0.4497 -1.7509 -0.1455
 6238TIP3    H240206   4.251   0.379  17.177  1.5428  1.1083 -1.0678
 6239TIP3   OH240207   3.795   2.732   5.440 -0.0140  0.0817  0.1758
 6239TIP3    H140208   3.873   2.729   5.383  0.1464 -1.2387  0.4509
 6239TIP3    H240209   3.828   2.761   5.525 -0.1828  1.6206 -0.2589
 6240TIP3   OH240210   6.673   5.243  11.557 -0.6347 -0.0245 -0.1382
 6240TIP3    H140211   6.598   5.272  11.608 -1.5063 -1.5060 -0.5412
 6240TIP3    H240212   6.739   5.219  11.622 -0.2165  1.9603  0.2041
 6241TIP3   OH240213   4.832   2.477  15.798 -0.8156 -0.3722  0.3278
 6241TIP3    H140214   4.877   2.465  15.715  0.5723  0.8553  0.8773
 6241TIP3    H240215   4.754   2.528  15.776  0.0956  0.8614 -0.0815
 6242TIP3   OH240216   1.180   5.683  11.851 -0.0443  0.1532 -0.2038
 6242TIP3    H140217   1.217   5.739  11.918  1.0767  1.2653 -1.7121
 6242TIP3    H240218   1.094   5.658  11.885  0.0094  1.6820  1.1090
 6243TIP3   OH240219   4.679   0.074  15.952  0.3212  0.1044 -0.2055
 6243TIP3    H140220   4.762   0.066  15.998 -1.2324 -3.0446  2.2122
 6243TIP3    H240221   4.687   0.015  15.877  0.7310  0.8956 -0.8042
 6244TIP3   OH240222   4.595   4.106  12.292 -0.0782  0.9102  0.6700
 6244TIP3    H140223   4.634   4.072  12.373  0.3869  1.0820  0.5169
 6244TIP3    H240224   4.659   4.087  12.224  0.2638  2.2115  0.6023
 6245TIP3   OH240225   2.766   3.031   1.919 -0.1064 -0.0303  0.4350
 6245TIP3    H140226   2.733   3.110   1.963 -3.4263 -1.6916  1.0929
 6245TIP3    H240227   2.809   2.981   1.987 -1.2123 -0.4515  0.8423
 6246TIP3   OH240228   6.199   0.489   1.218 -0.3606  0.6783  0.2065
 6246TIP3    H140229   6.134   0.419   1.220  1.8053 -1.3819  2.7425
 6246TIP3    H240230   6.263   0.461   1.152  0.5707  0.1835  1.3067
 6247TIP3   OH240231   1.587   3.789   1.885  0.3466 -0.2954  0.0340
 6247TIP3    H140232   1.532   3.866   1.901 -0.4208 -1.0360  1.0042
 6247TIP3    H240233   1.620   3.801   1.796 -0.4585  0.7387 -0.1246
 6248TIP3   OH240234   3.432   1.615   1.612 -0.2262 -0.5152 -0.0450
 6248TIP3    H140235   3.517   1.610   1.568 -0.6216 -0.1796 -0.8437
 6248TIP3    H240236   3.393   1.696   1.581 -0.7730 -0.5869  0.4473
 6249TIP3   OH240237   0.846   1.203  12.134 -0.2979 -0.0988  0.2687
 6249TIP3    H140238   0.882   1.285  12.099 -1.2342 -0.2987 -1.2259
 6249TIP3    H240239   0.887   1.193  12.220 -1.0730  2.5487  0.9885
 6250TIP3   OH240240   1.125   0.085   4.873 -0.6169 -0.4730 -0.1817
 6250TIP3    H140241   1.175   0.008   4.901 -0.5415 -0.3774 -0.0565
 6250TIP3    H240242   1.083   0.058   4.791 -0.1575 -0.4634 -0.4175
 6251TIP3   OH240243   2.288   5.928   5.835 -0.3250  0.1743  0.0268
 6251TIP3    H140244   2.267   5.896   5.747  0.5984 -1.0615  0.2455
 6251TIP3    H240245   2.344   5.860   5.873 -1.3723  0.2992  1.8655
 6252TIP3   OH240246   5.492   0.399  10.768 -0.1880 -0.5783  0.2899
 6252TIP3    H140247   5.399   0.376  10.768  0.2419 -2.4315 -1.1001
 6252TIP3    H240248   5.515   0.403  10.675  0.6003  2.1987  0.5591
 6253TIP3   OH240249   5.878   2.224  17.075 -0.3094 -0.2187 -0.4368
 6253TIP3    H140250   5.921   2.144  17.045  0.3832  0.0703 -0.2302
 6253TIP3    H240251   5.832   2.257  16.998  0.5782 -0.0576 -0.9065
 6254TIP3   OH240252   3.505   3.377  12.531 -0.0466 -0.2388  0.7825
 6254TIP3    H140253   3.468   3.298  12.572 -1.6113  1.0427  1.8962
 6254TIP3    H240254   3.577   3.402  12.590  0.9351 -1.2332  0.0302
 6255TIP3   OH240255   4.643   5.931   6.410 -0.2917  0.3095  0.4348
 6255TIP3    H140256   4.652   5.874   6.487  0.7012  1.6040  1.3028
 6255TIP3    H240257   4.594   6.007   6.442  0.5731  1.0902 -0.0720
 6256TIP3   OH240258   3.431   2.575   1.021 -0.0277  0.3918 -0.3810
 6256TIP3    H140259   3.449   2.517   0.947  0.9816 -3.6251  2.8042
 6256TIP3    H240260   3.517   2.595   1.058 -0.6866 -0.2232  1.5332
 6257TIP3   OH240261   2.216   3.697   5.718  0.0729  0.4215 -0.0754
 6257TIP3    H140262   2.126   3.669   5.730 -0.1918  1.2460 -0.1159
 6257TIP3    H240263   2.265   3.653   5.787 -0.5546  0.9098  0.6862
 6258TIP3   OH240264   2.709   4.335  11.962 -0.4246  0.4005 -0.3885
 6258TIP3    H140265   2.695   4.240  11.962 -0.8373  0.4545 -1.5268
 6258TIP3    H240266   2.720   4.357  12.055 -2.0814 -0.4949  0.0536
 6259TIP3   OH240267   3.076   1.230  14.657 -0.2360  0.2050  0.3898
 6259TIP3    H140268   3.000   1.289  14.646 -0.0109  0.3476 -0.5104
 6259TIP3    H240269   3.145   1.287  14.691  0.3380  0.7616 -1.6128
 6260TIP3   OH240270   4.257   5.121  15.867  0.0647  0.1775 -0.0962
 6260TIP3    H140271   4.302   5.117  15.783  1.4601 -0.6299  0.6596
 6260TIP3    H240272   4.242   5.030  15.891  0.8556  0.3432  1.1188
 6261TIP3   OH240273   5.789   0.194   4.920 -0.4488  0.0521  0.1625
 6261TIP3    H140274   5.713   0.136   4.915 -1.0593  0.7520  1.0812
 6261TIP3    H240275   5.815   0.191   5.012 -0.2666  0.9563  0.1452
 6262TIP3   OH240276   0.787   2.948  13.246 -0.6500 -0.7911  0.6756
 6262TIP3    H140277   0.829   2.863  13.258  0.4190 -0.2732  0.6860
 6262TIP3    H240278   0.853   3.012  13.273 -0.5922  0.1440 -1.5502
 6263TIP3   OH240279   0.530   3.512   1.690  0.2650 -0.4519 -0.4567
 6263TIP3    H140280   0.592   3.448   1.654 -0.0638 -0.7688 -0.4608
 6263TIP3    H240281   0.477   3.462   1.752  1.2696  0.2482  0.9828
 6264TIP3   OH240282   4.243   2.551   5.946  0.2333 -0.3477  0.2146
 6264TIP3    H140283   4.297   2.482   5.906 -0.7225 -1.2755  0.4925
 6264TIP3    H240284   4.300   2.591   6.011  0.8937 -0.6868 -0.1460
 6265TIP3   OH240285   4.987   3.538   4.333 -0.0156  0.4367 -0.4185
 6265TIP3    H140286   5.047   3.467   4.355 -1.0655 -1.2872 -2.8173
 6265TIP3    H240287   4.904   3.512   4.372 -0.0522  1.0461 -0.0963
 6266TIP3   OH240288   0.625   4.436  13.558  0.0935 -0.0489 -0.2732
 6266TIP3    H140289   0.555   4.435  13.623 -1.0551 -1.0635 -1.4811
 6266TIP3    H240290   0.679   4.510  13.582 -2.2604  1.7045 -0.2089
 6267TIP3   OH240291   0.940   1.569  16.574  0.2834 -0.1748  0.0599
 6267TIP3    H140292   0.874   1.579  16.642 -0.1278 -1.4958 -0.1278
 6267TIP3    H240293   1.022   1.559  16.622  0.4425  2.0114  0.2843
 6268TIP3   OH240294   2.776   2.725   5.451 -0.3614 -0.0902  0.0384
 6268TIP3    H140295   2.809   2.758   5.535  2.0358  0.8123 -1.2036
 6268TIP3    H240296   2.724   2.798   5.417  0.3279  0.3227 -0.1543
 6269TIP3   OH240297   1.985   2.238   2.181  0.1920 -0.0465  0.3994
 6269TIP3    H140298   1.898   2.277   2.168  0.1718 -0.2618 -0.1123
 6269TIP3    H240299   1.983   2.159   2.128  1.0486  0.4547 -0.3935
 6270TIP3   OH240300   1.736   4.893  14.827 -0.3625 -0.2246  0.2194
 6270TIP3    H140301   1.815   4.842  14.844  0.1215 -0.3194 -2.2307
 6270TIP3    H240302   1.725   4.946  14.906  3.9886  2.2271 -0.6609
 6271TIP3   OH240303   0.703   0.650  14.006  0.0297 -0.6349  0.2962
 6271TIP3    H140304   0.682   0.612  13.921  1.5249 -0.8473  0.0019
 6271TIP3    H240305   0.636   0.614  14.066  0.7281 -2.8576 -0.1985
 6272TIP3   OH240306   4.814   6.273   3.624  0.4688 -0.6986 -0.5089
 6272TIP3    H140307   4.805   6.269   3.719  0.4269  2.3310 -0.3498
 6272TIP3    H240308   4.899   6.232   3.606  1.5908  0.8885  1.0676
 6273TIP3   OH240309   4.650   3.856  15.531  0.5296 -0.5129 -0.2003
 6273TIP3    H140310   4.726   3.833  15.477 -0.2294 -1.2287 -0.9781
 6273TIP3    H240311   4.640   3.782  15.590  0.3330 -0.4946 -0.2118
 6274TIP3   OH240312   0.383   3.789  13.735  0.2236  0.0735  0.3191
 6274TIP3    H140313   0.470   3.748  13.733 -0.7079 -1.9360 -3.0533
 6274TIP3    H240314   0.324   3.717  13.758 -0.8624  0.7841 -0.2460
 6275TIP3   OH240315   6.032   2.662   0.514  0.3293  0.6654  0.3855
 6275TIP3    H140316   5.966   2.620   0.570  0.5186  0.2512  0.2983
 6275TIP3    H240317   5.999   2.649   0.425  1.7048 -1.6437  0.1621
 6276TIP3   OH240318   1.291   6.023   3.043 -0.8152 -0.0105  0.0361
 6276TIP3    H140319   1.260   6.022   3.134 -1.7953 -1.2484 -0.2993
 6276TIP3    H240320   1.375   5.978   3.046 -0.4526  0.6859  0.4650
 6277TIP3   OH240321   3.730   5.016   2.902 -0.5569 -0.1143  0.1898
 6277TIP3    H140322   3.781   5.066   2.838 -1.8335 -0.1174 -0.8417
 6277TIP3    H240323   3.781   5.022   2.983 -0.4797  2.4613 -0.0252
 6278TIP3   OH240324   3.962   0.051   0.875  0.2369 -0.1644 -0.0606
 6278TIP3    H140325   4.023   0.022   0.807  1.4630  0.3317  0.8219
 6278TIP3    H240326   4.015   0.102   0.935 -1.0327  0.1824  0.7867
 6279TIP3   OH240327   3.330   0.950  14.006  0.3866  0.5370 -0.8414
 6279TIP3    H140328   3.319   0.857  13.989  1.6462  0.6282 -2.2797
 6279TIP3    H240329   3.313   0.992  13.922  0.2834  1.5685 -0.3140
 6280TIP3   OH240330   4.198   5.984   4.812  0.4948 -0.3756  0.4664
 6280TIP3    H140331   4.144   5.905   4.808 -1.1342  0.7737 -1.1266
 6280TIP3    H240332   4.268   5.969   4.748 -0.3177 -0.1803 -0.4788
 6281TIP3   OH240333   2.334   1.800   3.822  0.1535 -0.1768  0.0987
 6281TIP3    H140334   2.401   1.735   3.844 -0.5489 -0.4754  1.4156
 6281TIP3    H240335   2.361   1.879   3.867 -0.6718 -0.4566  1.0972
 6282TIP3   OH240336   5.005   4.462  17.215  0.2878 -0.1006 -0.2082
 6282TIP3    H140337   4.974   4.552  17.228  1.7238  0.2200  1.1207
 6282TIP3    H240338   5.073   4.450  17.282 -0.9464 -2.6993  0.6508
 6283TIP3   OH240339   0.354   6.530  13.994  0.5818 -0.1025 -0.3607
 6283TIP3    H140340   0.441   6.494  14.010  0.4614 -0.4816 -0.5401
 6283TIP3    H240341   0.324   6.558  14.080  0.6968 -0.3973 -0.2197
 6284TIP3   OH240342   3.303   2.623   2.047 -0.4174  0.2925 -0.1405
 6284TIP3    H140343   3.294   2.669   1.964 -2.7363 -0.4851 -0.3758
 6284TIP3    H240344   3.301   2.692   2.113 -0.4987  0.7794 -0.6455
 6285TIP3   OH240345   3.530   4.120   0.781 -0.1519 -0.6837  0.1262
 6285TIP3    H140346   3.501   4.152   0.867 -0.8178  0.7798 -0.6406
 6285TIP3    H240347   3.450   4.090   0.738  0.0054 -0.2161 -0.4906
 6286TIP3   OH240348   5.792   2.979   2.748 -0.1541  0.7635 -0.1849
 6286TIP3    H140349   5.861   3.019   2.800 -1.2513 -0.6839  2.4514
 6286TIP3    H240350   5.820   2.992   2.657  2.4098  2.2356  0.7706
 6287TIP3   OH240351   2.775   3.188  16.704  0.5794  0.0720  0.3694
 6287TIP3    H140352   2.817   3.227  16.627  2.0152  0.3993  1.3140
 6287TIP3    H240353   2.823   3.223  16.779  0.2375 -1.5108  1.3529
 6288TIP3   OH240354   4.261   4.643  13.988  0.4699  0.0974 -0.0725
 6288TIP3    H140355   4.344   4.607  14.020 -0.0363 -0.7574  0.3031
 6288TIP3    H240356   4.195   4.608  14.048 -0.6426 -2.3670 -2.6184
 6289TIP3   OH240357   2.819   4.693   6.559  0.1139  0.2742 -0.0999
 6289TIP3    H140358   2.875   4.721   6.487  0.4776  1.7751  0.7575
 6289TIP3    H240359   2.795   4.603   6.536  1.5657  0.1577 -1.2687
 6290TIP3   OH240360   3.633   3.903   3.281  0.4106 -0.1982 -0.4132
 6290TIP3    H140361   3.669   3.859   3.204  1.2083 -1.8775  0.8803
 6290TIP3    H240362   3.601   3.831   3.336 -1.1208  1.0366  0.3494
 6291TIP3   OH240363   2.138   5.728   1.776 -0.5761  0.0957 -0.5354
 6291TIP3    H140364   2.087   5.807   1.794 -1.7906 -0.7908 -0.0181
 6291TIP3    H240365   2.173   5.702   1.861  0.3252  0.4077 -0.8054
 6292TIP3   OH240366   6.117   2.145   2.093  0.1164  0.1949  0.0462
 6292TIP3    H140367   6.047   2.121   2.153 -0.9097 -1.0346 -1.6012
 6292TIP3    H240368   6.132   2.238   2.109 -3.1961  0.9400 -0.8829
 6293TIP3   OH240369   3.469   5.806   1.272  0.0012  0.1156 -0.2937
 6293TIP3    H140370   3.449   5.822   1.180 -0.2104 -1.2347 -0.4991
 6293TIP3    H240371   3.565   5.801   1.275 -0.0703 -2.4392 -0.9299
 6294TIP3   OH240372   5.254   1.245  13.522 -0.4833 -0.5077 -0.8548
 6294TIP3    H140373   5.187   1.215  13.461 -0.5524 -1.3513 -0.3728
 6294TIP3    H240374   5.332   1.194  13.499 -0.3397 -0.3843 -0.6458
 6295TIP3   OH240375   4.323   3.366   0.381 -0.2854  0.2144 -0.1798
 6295TIP3    H140376   4.390   3.364   0.313 -1.2373 -1.8662 -1.0918
 6295TIP3    H240377   4.327   3.280   0.422 -1.1201  0.7245  1.0277
 6296TIP3   OH240378   2.594   1.949   0.488  0.1944  0.4913 -0.0337
 6296TIP3    H140379   2.541   2.020   0.452  2.1008  0.9586 -2.0847
 6296TIP3    H240380   2.681   1.963   0.450  1.0434 -1.9373  0.9057
 6297TIP3   OH240381   2.486   5.294  12.472 -0.3487 -1.2819  0.5184
 6297TIP3    H140382   2.404   5.318  12.516 -0.6073 -1.6037  0.2077
 6297TIP3    H240383   2.555   5.320  12.534 -0.5314  1.9990 -0.5612
 6298TIP3   OH240384   5.821   3.653   1.139  0.0625 -0.2714 -0.4267
 6298TIP3    H140385   5.815   3.569   1.093  0.4828 -1.8639  2.3178
 6298TIP3    H240386   5.730   3.682   1.148 -0.2846 -1.6521  0.7124
 6299TIP3   OH240387   4.611   1.818  13.574 -0.2758 -0.1191 -0.0975
 6299TIP3    H140388   4.665   1.782  13.504  0.2723  1.4362 -0.4752
 6299TIP3    H240389   4.575   1.740  13.618  2.7956 -1.2283  0.5977
 6300TIP3   OH240390   4.577   0.052   4.082 -0.1367  0.1816  0.6142
 6300TIP3    H140391   4.544   0.078   3.996  0.5058 -2.6123 -0.5527
 6300TIP3    H240392   4.510  -0.007   4.117 -0.6583  1.7292  2.3290
 6301TIP3   OH240393   3.105   3.683  13.871  0.3551  0.0082  0.1496
 6301TIP3    H140394   3.187   3.635  13.857  1.7222  2.5452 -0.8232
 6301TIP3    H240395   3.082   3.717  13.784 -1.4582 -0.2077  0.5265
 6302TIP3   OH240396   3.282   2.608  11.431 -0.0044  0.0168  0.4818
 6302TIP3    H140397   3.209   2.630  11.374  0.6407 -0.4782 -0.5576
 6302TIP3    H240398   3.250   2.537  11.486  0.5590 -2.1173 -1.8837
 6303TIP3   OH240399   2.368   5.528  14.996  0.1538 -0.0477 -0.4631
 6303TIP3    H140400   2.309   5.562  14.929 -1.6876 -0.5090  0.8667
 6303TIP3    H240401   2.404   5.606  15.038 -1.4575  0.2773  0.3578
 6304TIP3   OH240402   1.068   4.845  15.294 -0.0152 -0.3658  0.1669
 6304TIP3    H140403   1.079   4.885  15.380 -0.8277 -1.4639  0.7960
 6304TIP3    H240404   1.150   4.797  15.279 -1.0182 -2.6643  1.6947
 6305TIP3   OH240405   0.124   4.443  16.472 -0.3490  0.6574 -0.4215
 6305TIP3    H140406   0.120   4.423  16.379  0.9617 -0.8746 -0.1726
 6305TIP3    H240407   0.035   4.433  16.504 -0.2998 -1.7826 -0.9414
 6306TIP3   OH240408   1.197   2.710  13.806  0.3956  0.2603  0.2525
 6306TIP3    H140409   1.161   2.669  13.728  0.2170  0.8427  0.0190
 6306TIP3    H240410   1.264   2.770  13.772  0.3688  0.4574  0.5445
 6307TIP3   OH240411   4.291   3.129   2.800  0.7092  0.3328 -0.1476
 6307TIP3    H140412   4.212   3.114   2.748  1.5023 -0.6684 -1.0850
 6307TIP3    H240413   4.260   3.177   2.877 -1.2526 -2.1670  0.7057
 6308TIP3   OH240414   5.975   5.004  16.310 -0.2950 -0.2003 -0.1926
 6308TIP3    H140415   5.917   5.077  16.288  1.0073  0.4207 -1.6082
 6308TIP3    H240416   6.002   5.021  16.400  0.8993  1.7042 -0.8794
 6309TIP3   OH240417   4.255   4.825   4.659  0.0439 -0.1107  0.4807
 6309TIP3    H140418   4.344   4.836   4.694 -0.3561  0.5930  1.2766
 6309TIP3    H240419   4.198   4.839   4.734 -0.7918  0.7195 -0.2990
 6310TIP3   OH240420   6.651   1.420   1.908 -0.0635 -0.4275 -0.4101
 6310TIP3    H140421   6.646   1.476   1.830 -0.9999  0.7196  0.4420
 6310TIP3    H240422   6.588   1.350   1.892 -0.1639 -0.2606 -0.7430
 6311TIP3   OH240423   3.451   1.932  14.328 -0.1312 -0.6874 -0.1268
 6311TIP3    H140424   3.529   1.987  14.333  0.5011 -1.5559 -0.4632
 6311TIP3    H240425   3.455   1.878  14.407 -0.5052 -0.5844 -0.0367
 6312TIP3   OH240426   2.523   3.949  16.647  0.7685 -0.2297 -0.2557
 6312TIP3    H140427   2.583   3.877  16.663  0.8758 -0.4028 -1.3758
 6312TIP3    H240428   2.458   3.943  16.717  0.7110 -1.4928 -0.4095
 6313TIP3   OH240429   3.899   1.859   2.028  0.3602  0.0048  0.2384
 6313TIP3    H140430   3.924   1.925   2.092  0.4313  0.8401 -0.6293
 6313TIP3    H240431   3.947   1.781   2.053  2.1168  0.9582 -0.1141
 6314TIP3   OH240432   4.220   5.750   0.143  0.3205  0.4977 -0.0534
 6314TIP3    H140433   4.268   5.758   0.060  0.4918 -1.2103 -0.1318
 6314TIP3    H240434   4.207   5.656   0.155 -0.4820  0.7748  1.4266
 6315TIP3   OH240435   4.824   3.861  16.214 -0.7696  0.0454 -0.2596
 6315TIP3    H140436   4.848   3.896  16.300  2.1907 -1.3854 -0.4203
 6315TIP3    H240437   4.795   3.772  16.232 -0.4871 -0.1349 -0.6948
 6316TIP3   OH240438   4.317   5.315  14.730 -0.5245 -0.0351  0.2264
 6316TIP3    H140439   4.409   5.290  14.716 -0.7120  0.3542 -1.9571
 6316TIP3    H240440   4.269   5.232  14.730 -0.0193 -0.3704  2.9902
 6317TIP3   OH240441   6.751   2.386   0.311 -0.0849  0.1066 -0.0195
 6317TIP3    H140442   6.659   2.380   0.339 -0.5161 -0.8113 -1.5792
 6317TIP3    H240443   6.782   2.468   0.351 -0.8675 -0.7595  2.4956
 6318TIP3   OH240444   1.506   5.068  11.656 -0.8565  0.0533 -0.2789
 6318TIP3    H140445   1.558   5.086  11.577 -1.9082  0.5507 -0.8713
 6318TIP3    H240446   1.567   5.083  11.728  0.7310 -2.4943 -1.0356
 6319TIP3   OH240447   2.036   3.557   5.287 -0.3712 -0.4602  0.7362
 6319TIP3    H140448   2.056   3.512   5.205  0.1012  0.9316  0.0755
 6319TIP3    H240449   2.122   3.578   5.324 -0.5879  0.7447  0.5611
 6320TIP3   OH240450   2.633   6.006   6.289 -0.1946 -0.0626 -0.5320
 6320TIP3    H140451   2.628   6.073   6.356  1.8182 -0.0021 -0.4117
 6320TIP3    H240452   2.560   6.025   6.230 -0.5430  1.3168  0.3297
 6321TIP3   OH240453   0.893   2.180   4.184  0.2870  0.1828  0.1164
 6321TIP3    H140454   0.976   2.206   4.144  0.6592  0.5130  1.0669
 6321TIP3    H240455   0.831   2.177   4.112  0.4055  2.9847 -0.1382
 6322TIP3   OH240456   5.393   5.260  13.173  0.2143  0.4455 -0.3993
 6322TIP3    H140457   5.370   5.199  13.243 -3.1484  1.3380 -0.6655
 6322TIP3    H240458   5.458   5.317  13.212 -0.6275  0.0857  1.5798
 6323TIP3   OH240459   6.065   1.352  11.594  0.2808 -0.4631  0.3906
 6323TIP3    H140460   5.979   1.342  11.636  0.0084 -0.8387 -0.2587
 6323TIP3    H240461   6.118   1.396  11.660 -0.4171 -0.2119  0.7891
 6324TIP3   OH240462   5.707   0.785   0.778 -0.5040  0.4450 -0.1049
 6324TIP3    H140463   5.800   0.777   0.799 -0.6097  2.6219  1.3279
 6324TIP3    H240464   5.692   0.717   0.712  1.7732 -0.8511  0.6380
 6325TIP3   OH240465   3.907   3.624   0.985 -0.1715 -0.5003 -0.1106
 6325TIP3    H140466   3.998   3.596   0.970  0.9048  2.1945  1.1865
 6325TIP3    H240467   3.882   3.580   1.066  0.4304 -0.1656  0.2540
 6326TIP3   OH240468   2.545   6.754  10.522  0.6149  0.0709  0.0607
 6326TIP3    H140469   2.603   6.737  10.597 -0.5863  0.7865  1.1781
 6326TIP3    H240470   2.563   6.844  10.498  0.5154  0.0515 -0.0841
 6327TIP3   OH240471   0.081   1.620  15.580  0.2808  0.9639 -0.6513
 6327TIP3    H140472   0.127   1.536  15.587  0.4789  0.8762 -2.6673
 6327TIP3    H240473   0.152   1.685  15.573  0.1390  1.3825  1.4833
 6328TIP3   OH240474   5.340   4.880   4.104 -0.0463  0.4605  0.3172
 6328TIP3    H140475   5.408   4.945   4.120  0.0157  0.3551  0.4825
 6328TIP3    H240476   5.365   4.839   4.022  0.2970  0.1616  0.5668
 6329TIP3   OH240477   5.936   5.167  15.235 -0.6697  0.2587  0.1306
 6329TIP3    H140478   6.016   5.192  15.189 -0.0467 -0.4487  0.7933
 6329TIP3    H240479   5.967   5.136  15.321 -1.7621  1.1884  0.8699
 6330TIP3   OH240480   2.128   1.358  15.755 -0.1367 -0.4572 -0.0690
 6330TIP3    H140481   2.074   1.301  15.810 -1.4079 -0.0315 -0.8419
 6330TIP3    H240482   2.152   1.431  15.811 -2.5274  0.6371 -0.4318
 6331TIP3   OH240483   2.764   3.239   5.694  0.5616  0.0487 -0.2311
 6331TIP3    H140484   2.839   3.196   5.733  2.1910  2.7496 -0.2427
 6331TIP3    H240485   2.756   3.201   5.607  2.8490  0.7470 -0.7662
 6332TIP3   OH240486   2.274   1.190   2.129 -0.5805  0.1683  0.0542
 6332TIP3    H140487   2.230   1.269   2.160 -1.6973  0.8478 -3.0190
 6332TIP3    H240488   2.350   1.223   2.080 -1.3534 -0.5633 -1.7124
 6333TIP3   OH240489   0.894   1.602  11.593  0.0406 -0.1717  0.5332
 6333TIP3    H140490   0.989   1.600  11.605 -0.0153  0.7198  1.1645
 6333TIP3    H240491   0.874   1.694  11.576 -0.5152 -0.5943 -1.2379
 6334TIP3   OH240492   0.380   6.131  15.566  0.2989  0.1553  0.9637
 6334TIP3    H140493   0.418   6.147  15.480 -0.9031  0.1891  0.4233
 6334TIP3    H240494   0.378   6.217  15.608 -0.1577  0.3305  0.5847
 6335TIP3   OH240495   0.466   1.523  13.671 -0.1512 -0.1413 -0.6110
 6335TIP3    H140496   0.436   1.571  13.748  1.8616  0.0003  0.1120
 6335TIP3    H240497   0.451   1.583  13.598 -0.9980  0.1630 -0.1971
 6336TIP3   OH240498   0.053   0.371   5.019 -0.1984  0.4524 -0.3353
 6336TIP3    H140499   0.116   0.400   4.953 -0.5250 -1.0071 -1.3198
 6336TIP3    H240500   0.009   0.451   5.047  1.6298  1.4084 -0.1060
 6337TIP3   OH240501   5.109   5.345  14.592  0.4927  0.0179  0.3086
 6337TIP3    H140502   5.117   5.438  14.575  2.3098  0.1311  1.5704
 6337TIP3    H240503   5.143   5.303  14.512 -1.2804  0.4059 -0.6656
 6338TIP3   OH240504   3.814   0.477   6.558  0.1540  0.1057  0.0013
 6338TIP3    H140505   3.825   0.386   6.586  0.6531  0.5181  1.2149
 6338TIP3    H240506   3.903   0.507   6.540 -0.1687 -0.1409 -2.0430
 6339TIP3   OH240507   1.101   3.224  16.470 -0.6595  0.0747  0.1604
 6339TIP3    H140508   1.080   3.317  16.461  0.7157  0.3759 -0.0538
 6339TIP3    H240509   1.179   3.212  16.416 -1.4803 -1.4489 -0.7169
 6340TIP3   OH240510   1.960   2.282  14.741  0.2379  0.1013  0.0404
 6340TIP3    H140511   2.001   2.255  14.659 -1.1118 -1.1706 -0.2362
 6340TIP3    H240512   1.979   2.211  14.803  0.5251  0.6544  0.5955
 6341TIP3   OH240513   5.439   4.086   1.520 -0.0281 -0.3344  0.0181
 6341TIP3    H140514   5.449   3.997   1.554  1.0854 -0.3776 -0.3923
 6341TIP3    H240515   5.370   4.078   1.454  0.3314 -0.9879 -0.2962
 6342TIP3   OH240516   1.525   6.147  14.798 -0.6139 -0.0093 -0.0887
 6342TIP3    H140517   1.541   6.241  14.789  1.9158 -0.4295 -0.4314
 6342TIP3    H240518   1.606   6.112  14.836 -1.1381 -2.1853 -0.8543
 6343TIP3   OH240519   1.418   3.715  13.596  0.3318  0.4398  0.3343
 6343TIP3    H140520   1.476   3.717  13.520 -0.4183  0.6759 -0.2326
 6343TIP3    H240521   1.466   3.764  13.663  0.5231  1.1827 -0.3277
 6344TIP3   OH240522   1.793   5.379   4.603 -0.4042 -0.1658  0.2725
 6344TIP3    H140523   1.779   5.473   4.603  0.4132 -0.0344 -0.7706
 6344TIP3    H240524   1.858   5.364   4.671  0.3531  0.1698 -0.3697
 6345TIP3   OH240525   6.584   1.589  16.335  0.3721  0.0008 -0.0184
 6345TIP3    H140526   6.586   1.540  16.253 -1.3445 -1.5044  0.7841
 6345TIP3    H240527   6.658   1.649  16.330  1.0573 -0.9858 -2.0995
 6346TIP3   OH240528   2.310   3.167  10.735  0.5503 -0.0967 -0.2058
 6346TIP3    H140529   2.221   3.185  10.763  0.1012  0.0901 -1.7054
 6346TIP3    H240530   2.305   3.084  10.688  1.5844 -1.2464  1.6629
 6347TIP3   OH240531   1.367   1.345  10.464  0.2400 -0.5022 -0.0440
 6347TIP3    H140532   1.329   1.338  10.552  0.2808 -0.0820  0.0074
 6347TIP3    H240533   1.419   1.425  10.466 -1.0470  0.3767 -0.9314
 6348TIP3   OH240534   6.094   6.167  11.912 -0.0923 -0.1282 -0.0273
 6348TIP3    H140535   6.079   6.074  11.897 -1.1113  0.3317 -2.1777
 6348TIP3    H240536   6.017   6.196  11.962 -0.8838 -0.0211 -1.2803
 6349TIP3   OH240537   2.111   2.485   0.993 -0.2529  0.0873 -0.0530
 6349TIP3    H140538   2.029   2.489   1.043  0.4356  0.3757  1.0764
 6349TIP3    H240539   2.115   2.394   0.961 -1.5939  0.3935 -1.1411
 6350TIP3   OH240540   3.648   0.953   0.002 -0.1833  0.0767  0.1941
 6350TIP3    H140541   3.724   0.900   0.024 -0.5582 -1.3590 -1.8703
 6350TIP3    H240542   3.595   0.897  -0.055 -0.5297  2.6820 -2.1373
 6351TIP3   OH240543   5.539   4.992   0.656 -0.5154  0.3285 -0.3519
 6351TIP3    H140544   5.625   4.949   0.653 -0.9443 -0.5070 -0.9769
 6351TIP3    H240545   5.477   4.919   0.659 -1.2120  0.9290 -0.2271
 6352TIP3   OH240546   3.756   4.433   1.965 -0.0722  0.0302  0.0326
 6352TIP3    H140547   3.726   4.365   2.025 -0.6403 -0.9133 -1.3043
 6352TIP3    H240548   3.824   4.391   1.913  0.1495  0.7326 -0.2532
 6353TIP3   OH240549   6.787   4.372   0.084 -0.0438 -0.0836 -0.3876
 6353TIP3    H140550   6.759   4.460   0.059 -1.2400 -0.0334  0.9967
 6353TIP3    H240551   6.739   4.314   0.026  0.6366  0.1686 -1.2059
 6354TIP3   OH240552   3.002   4.891   3.589  0.7608  0.6444 -0.0896
 6354TIP3    H140553   3.044   4.849   3.664 -0.1228 -0.8715 -0.4007
 6354TIP3    H240554   3.065   4.956   3.559  1.5805  0.5096  1.3011
 6355TIP3   OH240555   1.522   5.740   1.631  0.1135  0.1568 -0.7051
 6355TIP3    H140556   1.544   5.825   1.669  2.1910 -1.5617  2.1053
 6355TIP3    H240557   1.603   5.709   1.592 -0.1844 -1.2709 -0.2262
 6356TIP3   OH240558   4.811   6.116   1.202  0.1680 -0.0329  0.1282
 6356TIP3    H140559   4.890   6.083   1.160 -0.3382 -3.3426  1.5652
 6356TIP3    H240560   4.836   6.201   1.238  1.6208  1.2116 -3.6230
 6357TIP3   OH240561   6.377   2.237  15.760 -0.2986 -0.0769  0.3955
 6357TIP3    H140562   6.434   2.242  15.837  0.6493 -0.1034 -0.2892
 6357TIP3    H240563   6.428   2.277  15.690 -1.7755  1.4087  0.1320
 6358TIP3   OH240564   1.502   1.579  12.465 -0.2015  0.0617  0.4044
 6358TIP3    H140565   1.446   1.508  12.497  0.7594 -0.7695  0.2595
 6358TIP3    H240566   1.515   1.635  12.542 -1.1786  0.2216  0.4532
 6359TIP3   OH240567   1.755   2.004  12.147 -0.6418  0.1951  0.0879
 6359TIP3    H140568   1.846   1.988  12.124 -0.8692  1.4263 -1.8078
 6359TIP3    H240569   1.751   2.097  12.167 -1.7605  0.4800 -1.3614
 6360TIP3   OH240570   3.216   1.877  13.126  0.3192  0.3931  0.0364
 6360TIP3    H140571   3.274   1.951  13.108  0.5349  0.2887  0.2945
 6360TIP3    H240572   3.235   1.853  13.217 -0.1333  0.3631  0.1295
 6361TIP3   OH240573   3.430   3.987   1.678 -0.7306 -0.1299 -0.6135
 6361TIP3    H140574   3.381   4.052   1.729 -1.2845 -0.9378 -0.1064
 6361TIP3    H240575   3.455   4.034   1.599  0.1811  1.1591  0.4094
 6362TIP3   OH240576   0.936   1.588  14.023  0.2754 -0.3561 -0.1418
 6362TIP3    H140577   0.947   1.565  13.930 -0.4674 -0.0462 -0.3034
 6362TIP3    H240578   0.842   1.602  14.033  0.3491 -0.4842  0.6826
 6363TIP3   OH240579   0.346   2.928   0.121  0.0144 -0.4391 -0.3156
 6363TIP3    H140580   0.358   2.966   0.034  2.6378 -0.1062  0.1387
 6363TIP3    H240581   0.257   2.950   0.146  0.0965  1.6910 -1.8584
 6364TIP3   OH240582   5.553   2.647   3.126 -0.0026 -0.5791  0.4856
 6364TIP3    H140583   5.643   2.677   3.141 -0.1729  0.3950 -0.3406
 6364TIP3    H240584   5.527   2.691   3.045 -1.3745 -0.4941  0.9574
 6365TIP3   OH240585   2.473   1.725   5.179  0.4064  0.2495  0.0021
 6365TIP3    H140586   2.452   1.806   5.133  0.0289  0.4430  0.5062
 6365TIP3    H240587   2.454   1.656   5.115 -0.8462  0.4785  0.1066
 6366TIP3   OH240588   0.498   2.563  15.397  0.9257  0.4016  0.5149
 6366TIP3    H140589   0.472   2.489  15.452  1.7966  0.1445  0.5814
 6366TIP3    H240590   0.593   2.554  15.387  0.7279  0.1489 -1.4516
 6367TIP3   OH240591   4.449   3.548   0.654 -0.1239  0.4765  0.4773
 6367TIP3    H140592   4.460   3.607   0.728  0.4247  0.5162  0.3642
 6367TIP3    H240593   4.354   3.539   0.645 -0.1880  0.0504  1.5116
 6368TIP3   OH240594   2.585   0.955  13.855  0.0813 -0.1576 -0.0932
 6368TIP3    H140595   2.663   1.010  13.847 -0.9447  1.1635 -0.9906
 6368TIP3    H240596   2.588   0.898  13.778 -0.4863  0.7204 -0.7671
 6369TIP3   OH240597   1.892   4.289   6.395 -0.0232 -0.5577 -0.8818
 6369TIP3    H140598   1.873   4.196   6.406 -0.4219 -0.0678  3.5707
 6369TIP3    H240599   1.806   4.331   6.388  0.0490 -0.2219  0.2027
 6370TIP3   OH240600   1.467   1.913   2.272 -0.3429  0.3370 -0.1064
 6370TIP3    H140601   1.381   1.936   2.305 -0.3193 -0.1652  0.3169
 6370TIP3    H240602   1.499   1.845   2.332  0.6677  1.0635  0.1908
 6371TIP3   OH240603   2.500   3.943  16.367 -0.0257 -0.0152 -0.6826
 6371TIP3    H140604   2.502   3.926  16.462  1.1685  0.3701 -0.6373
 6371TIP3    H240605   2.473   4.035  16.360  1.2868  0.3766 -0.6638
 6372TIP3   OH240606   2.082   4.266   1.609 -0.8649 -0.7281 -0.1979
 6372TIP3    H140607   2.139   4.195   1.638 -0.3094 -0.2783 -0.1748
 6372TIP3    H240608   2.049   4.305   1.690  0.6978  0.5369 -0.1404
 6373TIP3   OH240609   4.359   0.457  14.600  0.2418 -0.2734  0.4853
 6373TIP3    H140610   4.307   0.441  14.522 -1.8962 -1.7571  2.1575
 6373TIP3    H240611   4.449   0.443  14.572 -0.6054 -2.3244 -1.3238
 6374TIP3   OH240612   2.817   5.210   4.610 -0.6817 -0.6585 -0.0770
 6374TIP3    H140613   2.733   5.179   4.646 -1.2570  2.2620  1.2039
 6374TIP3    H240614   2.793   5.265   4.536  0.1686 -0.4465 -0.1988
 6375TIP3   OH240615   1.520   4.418   5.996 -0.6796 -0.2883  0.5744
 6375TIP3    H140616   1.551   4.362   5.926 -0.4539  0.1706  0.3025
 6375TIP3    H240617   1.532   4.366   6.076 -0.4751 -0.6221  0.3261
 6376TIP3   OH240618   0.792   0.521   4.082 -0.1674 -0.0836 -0.7940
 6376TIP3    H140619   0.707   0.536   4.042 -0.1851 -1.6784 -1.4026
 6376TIP3    H240620   0.773   0.469   4.161 -0.1127  2.7864  1.1865
 6377TIP3   OH240621   6.106   5.658  12.646  0.1051  0.2128  0.3444
 6377TIP3    H140622   6.160   5.735  12.631 -0.1915  0.3484 -0.0559
 6377TIP3    H240623   6.160   5.599  12.698  0.8270  0.1345 -0.4833
 6378TIP3   OH240624   6.138   3.913   2.583  0.3719 -0.1334 -0.3618
 6378TIP3    H140625   6.148   3.850   2.654 -1.9290 -0.3966 -0.2298
 6378TIP3    H240626   6.226   3.925   2.548  0.9937 -2.6342  0.2863
 6379TIP3   OH240627   6.260   3.531   3.869 -0.0076 -0.3571  0.3255
 6379TIP3    H140628   6.323   3.580   3.817  1.2336 -0.6964  1.4771
 6379TIP3    H240629   6.188   3.511   3.808  0.4075  1.1221 -0.6654
 6380TIP3   OH240630   5.677   3.584  15.842 -0.3684  0.4770 -0.2231
 6380TIP3    H140631   5.773   3.577  15.836 -0.2365  2.4442 -0.6613
 6380TIP3    H240632   5.645   3.539  15.764  0.1969 -0.2823 -0.0184
 6381TIP3   OH240633   4.756   1.035   0.859 -0.9078  0.4666 -0.2166
 6381TIP3    H140634   4.693   1.105   0.875 -0.5084  0.8472 -0.3025
 6381TIP3    H240635   4.755   1.024   0.763 -0.1797  1.0953 -0.3009
 6382TIP3   OH240636   1.312   3.024   5.573 -0.1767 -0.6675  0.0679
 6382TIP3    H140637   1.256   2.983   5.639  0.4285  0.1251  1.0895
 6382TIP3    H240638   1.385   2.963   5.563 -1.0902 -1.5956 -1.1068
 6383TIP3   OH240639   4.505   4.941   2.541  0.4635  0.9537  0.3118
 6383TIP3    H140640   4.544   5.028   2.552  0.0642  1.2013 -0.1915
 6383TIP3    H240641   4.495   4.908   2.630  1.1729  1.1765  0.4743
 6384TIP3   OH240642   0.348   1.455  15.375 -0.1739 -0.7952  0.1756
 6384TIP3    H140643   0.396   1.388  15.326  0.4033 -0.9912  0.9893
 6384TIP3    H240644   0.283   1.405  15.425 -0.3000 -0.6701  0.1351
 6385TIP3   OH240645   5.268   6.335   3.165  0.4619 -0.6531  0.2723
 6385TIP3    H140646   5.335   6.402   3.153 -1.6360  1.1379 -2.0489
 6385TIP3    H240647   5.243   6.343   3.258  1.6003  0.4665  0.4978
 6386TIP3   OH240648   4.444   1.341  15.393 -0.1298 -0.2467 -0.4969
 6386TIP3    H140649   4.466   1.367  15.483 -0.6290  0.8360 -0.6768
 6386TIP3    H240650   4.418   1.423  15.351 -0.8450 -0.9107 -1.3523
 6387TIP3   OH240651   1.364   3.245  14.677  0.0310 -0.2383  0.4372
 6387TIP3    H140652   1.355   3.339  14.687 -0.0982 -0.2057  0.0254
 6387TIP3    H240653   1.276   3.213  14.658  0.1718 -0.3624 -0.0294
 6388TIP3   OH240654   3.066   1.650   2.365  0.2518  0.2101 -0.7369
 6388TIP3    H140655   3.142   1.698   2.334  0.0960  0.7157 -0.3368
 6388TIP3    H240656   3.066   1.569   2.314  1.2843  0.0232 -0.4463
 6389TIP3   OH240657   2.657   3.268  10.926 -0.9129 -0.7405  0.1642
 6389TIP3    H140658   2.629   3.348  10.880  1.1881 -0.6131 -0.9708
 6389TIP3    H240659   2.721   3.228  10.867  0.4775 -1.5502  2.1693
 6390TIP3   OH240660   4.638   0.551   1.599 -0.9817  0.0044 -0.2001
 6390TIP3    H140661   4.668   0.531   1.687  0.9055  1.1961 -0.5541
 6390TIP3    H240662   4.545   0.572   1.610 -0.7648  0.1289  1.4990
 6391TIP3   OH240663   4.506   4.822  11.726  0.6438  0.4822  0.1983
 6391TIP3    H140664   4.515   4.917  11.739 -3.2589  0.8439  1.0711
 6391TIP3    H240665   4.560   4.783  11.794  0.2501  2.1399  1.4941
 6392TIP3   OH240666   1.774   4.260  15.003  0.0477  0.2448 -0.3275
 6392TIP3    H140667   1.816   4.345  15.014 -1.0811  0.8097 -0.3026
 6392TIP3    H240668   1.689   4.269  15.046 -0.1299 -0.8616 -0.4189
 6393TIP3   OH240669   1.828   3.762   4.653  0.6098 -0.0948 -0.1163
 6393TIP3    H140670   1.784   3.730   4.574  1.9431  0.0344 -0.9258
 6393TIP3    H240671   1.762   3.816   4.697  0.3251  1.0571 -1.9097
 6394TIP3   OH240672   0.659   5.426  15.368  0.0292  0.0730 -0.2887
 6394TIP3    H140673   0.724   5.419  15.438 -0.6423 -0.5710  0.2815
 6394TIP3    H240674   0.605   5.502  15.392 -0.0994 -0.0478 -0.1967
 6395TIP3   OH240675   0.154   4.812  10.840 -0.0502 -0.2823  0.2004
 6395TIP3    H140676   0.074   4.848  10.801  0.3053  0.8188  0.4555
 6395TIP3    H240677   0.167   4.728  10.796 -1.6200 -0.6954  0.5130
 6396TIP3   OH240678   0.272   3.359   2.041  0.1277 -0.2298  0.3133
 6396TIP3    H140679   0.346   3.345   2.100 -0.2233  1.5180  1.1930
 6396TIP3    H240680   0.196   3.328   2.090  0.0482 -0.4203  0.0755
 6397TIP3   OH240681   4.098   0.628   2.664  0.2658 -0.4033 -0.3491
 6397TIP3    H140682   4.138   0.549   2.700  1.3845  0.0879 -0.4890
 6397TIP3    H240683   4.038   0.596   2.596 -1.0473 -1.2553  1.1917
 6398TIP3   OH240684   3.689   2.961   5.281 -0.0689  1.0571 -0.5932
 6398TIP3    H140685   3.700   2.879   5.329  0.0119  0.3206 -1.8427
 6398TIP3    H240686   3.664   3.025   5.348 -0.1200  0.0191  0.3955
 6399TIP3   OH240687   1.847   0.617  11.478 -1.0095 -0.4052 -0.6162
 6399TIP3    H140688   1.809   0.585  11.395 -1.1147 -1.5167 -0.1449
 6399TIP3    H240689   1.770   0.636  11.532 -0.9313  0.0110 -0.6481
 6400TIP3   OH240690   0.483   4.617   2.164 -0.2299  0.5067  0.1592
 6400TIP3    H140691   0.506   4.541   2.219 -0.0577  0.0808 -0.4914
 6400TIP3    H240692   0.514   4.593   2.077 -1.1002  0.9070 -0.2593
 6401TIP3   OH240693   4.546   4.018   4.742  0.7858 -0.5258 -0.0399
 6401TIP3    H140694   4.510   3.932   4.722 -0.2640 -0.5872  1.9894
 6401TIP3    H240695   4.639   4.010   4.724  0.7916 -2.2625  0.6595
 6402TIP3   OH240696   2.725   1.180  16.716 -0.3853 -0.2888 -0.0304
 6402TIP3    H140697   2.741   1.199  16.623 -1.6305  0.6883 -0.0549
 6402TIP3    H240698   2.725   1.084  16.721 -0.1292 -0.3500 -0.9993
 6403TIP3   OH240699   2.669   0.735  13.308  0.2259  0.5092 -0.8057
 6403TIP3    H140700   2.759   0.738  13.342 -0.1531  0.8641  0.1811
 6403TIP3    H240701   2.633   0.653  13.344 -0.2864  1.0525 -0.0814
 6404TIP3   OH240702   3.664   0.425  11.579 -0.1060  0.1588  0.4977
 6404TIP3    H140703   3.683   0.405  11.671  2.1797 -0.2086 -0.0178
 6404TIP3    H240704   3.618   0.347  11.547 -0.3964  0.0448  1.1987
 6405TIP3   OH240705   3.388   0.983  13.211  0.6777  0.0975 -0.2048
 6405TIP3    H140706   3.345   1.038  13.145  0.8316 -0.9619 -1.2118
 6405TIP3    H240707   3.448   0.928  13.160  1.2051 -0.3506  0.8887
 6406TIP3   OH240708   0.512   1.049  16.765 -0.2692  0.3421  0.0422
 6406TIP3    H140709   0.594   1.026  16.720 -1.2730 -2.6050 -0.4044
 6406TIP3    H240710   0.462   1.097  16.700  0.4281  0.6992 -0.2419
 6407TIP3   OH240711   4.365   5.383  16.767 -0.4299 -0.3947 -0.1112
 6407TIP3    H140712   4.362   5.468  16.723 -0.0622 -0.1265  0.3753
 6407TIP3    H240713   4.315   5.325  16.710 -0.0090 -0.0413 -0.8489
 6408TIP3   OH240714   4.504   3.778   1.749 -0.7535  0.0562 -0.0555
 6408TIP3    H140715   4.541   3.694   1.726 -0.5587 -0.0966  0.8058
 6408TIP3    H240716   4.481   3.818   1.665  0.7451 -0.1146 -0.5602
 6409TIP3   OH240717   0.977   4.689  13.802  0.2931 -0.6881  0.4282
 6409TIP3    H140718   0.983   4.727  13.714  2.4776 -0.5578  0.6154
 6409TIP3    H240719   0.958   4.764  13.858 -0.8034 -0.7231  0.1183
 6410TIP3   OH240720   1.501   2.706  14.433  0.0313 -0.0429  0.2953
 6410TIP3    H140721   1.472   2.749  14.514  0.2504 -0.3841  0.5543
 6410TIP3    H240722   1.423   2.705  14.378 -0.4258 -0.8207  0.9308
 6411TIP3   OH240723   2.172   6.364   2.457  0.2356 -0.6109  0.0308
 6411TIP3    H140724   2.241   6.379   2.393 -0.4246  0.8508 -0.3497
 6411TIP3    H240725   2.216   6.323   2.531  1.2132 -1.2091 -0.8703
 6412TIP3   OH240726   1.603   1.346  15.338 -0.1223  0.4760  0.3442
 6412TIP3    H140727   1.653   1.290  15.397 -0.7227  0.9930  1.3491
 6412TIP3    H240728   1.527   1.374  15.389 -0.8547  0.6182 -0.7955
 6413TIP3   OH240729   2.291   0.706   1.085  0.2000 -0.4489  0.0314
 6413TIP3    H140730   2.223   0.649   1.048 -1.0974  0.4707  0.9375
 6413TIP3    H240731   2.257   0.730   1.171  0.9725  1.2550 -0.1285
 6414TIP3   OH240732   3.252   2.856  11.657 -0.4756  0.1270 -0.5117
 6414TIP3    H140733   3.294   2.865  11.742  0.1406 -0.5672 -0.7359
 6414TIP3    H240734   3.158   2.851  11.677 -0.2468 -1.5045  0.2698
 6415TIP3   OH240735   0.796   3.394   6.349 -0.0307  0.2198  0.0606
 6415TIP3    H140736   0.710   3.421   6.379 -0.1299 -0.3086  0.2428
 6415TIP3    H240737   0.802   3.429   6.260  0.0528  1.3161  0.4794
 6416TIP3   OH240738   6.421   1.792  15.395  0.5192 -0.8606 -0.0726
 6416TIP3    H140739   6.453   1.861  15.453  0.5858 -1.5599  0.7253
 6416TIP3    H240740   6.500   1.752  15.358  0.5188 -1.3480  0.4497
 6417TIP3   OH240741   0.191   3.901  17.150 -0.1788 -0.2567 -0.1295
 6417TIP3    H140742   0.281   3.875  17.133  0.4609  1.2597  0.8220
 6417TIP3    H240743   0.141   3.820  17.144  1.7843 -1.8218  3.0077
 6418TIP3   OH240744   1.522   3.541   0.400  0.0732 -0.1039  0.0219
 6418TIP3    H140745   1.561   3.612   0.349 -0.2142 -0.1498 -0.2657
 6418TIP3    H240746   1.540   3.564   0.491 -1.1344  1.0173 -0.0008
 6419TIP3   OH240747   1.298   4.292   2.827 -0.1025 -0.4589 -0.0017
 6419TIP3    H140748   1.220   4.240   2.843  0.1931 -1.3187 -1.2367
 6419TIP3    H240749   1.279   4.377   2.866 -2.3053 -0.1307 -1.7121
 6420TIP3   OH240750   3.138   5.938   5.800  0.0576 -0.3374 -0.3388
 6420TIP3    H140751   3.173   6.027   5.801 -1.0892  0.1429 -1.5814
 6420TIP3    H240752   3.158   5.903   5.887  0.8013  1.0228  0.0409
 6421TIP3   OH240753   0.691   5.166  13.578 -0.3902 -0.5385 -0.2030
 6421TIP3    H140754   0.759   5.186  13.514 -1.0497  1.5965 -0.2713
 6421TIP3    H240755   0.726   5.094  13.629  2.1065  0.8433  0.0717
 6422TIP3   OH240756   4.390   0.067  12.530 -0.0986 -0.0587  0.5242
 6422TIP3    H140757   4.336   0.116  12.592  0.3736  0.7415  0.3031
 6422TIP3    H240758   4.477   0.107  12.538 -0.1726  0.4332 -1.0923
 6423TIP3   OH240759   2.002   0.265  16.821 -0.2424 -0.0229 -0.0773
 6423TIP3    H140760   1.942   0.323  16.773  0.4785 -0.1500 -1.1667
 6423TIP3    H240761   2.026   0.315  16.899 -1.6583  0.0782  0.3181
 6424TIP3   OH240762   3.530   3.123   0.928  0.3009 -0.3329  0.6058
 6424TIP3    H140763   3.501   3.191   0.988  0.0660 -0.4942  0.6747
 6424TIP3    H240764   3.595   3.166   0.872 -1.8112  0.6792 -1.1482
 6425TIP3   OH240765   0.125   1.734   5.457  0.0832  0.2263 -0.0910
 6425TIP3    H140766   0.061   1.674   5.418 -0.4023 -0.1054  1.1878
 6425TIP3    H240767   0.082   1.819   5.458  0.1252  0.2509 -0.3407
 6426TIP3   OH240768   6.273   0.136  16.063  0.6762  0.2127  0.1905
 6426TIP3    H140769   6.300   0.142  16.155  2.2972 -1.1249 -0.1763
 6426TIP3    H240770   6.182   0.167  16.063  0.5453 -0.0796  2.3106
 6427TIP3   OH240771   3.250   0.467   2.328 -0.0703  0.1291 -0.2176
 6427TIP3    H140772   3.336   0.468   2.371 -0.0388 -2.9269 -0.0790
 6427TIP3    H240773   3.191   0.433   2.395 -0.9588  0.0494 -1.0360
 6428TIP3   OH240774   2.760   2.516   4.430  0.4014  0.1715 -0.5855
 6428TIP3    H140775   2.764   2.484   4.520  1.7371  2.0139  0.0487
 6428TIP3    H240776   2.790   2.443   4.377 -0.5527 -0.9880  0.4449
 6429TIP3   OH240777   0.128   6.626   1.894  0.1414  0.3585 -0.3080
 6429TIP3    H140778   0.079   6.544   1.885 -0.0622  0.5481 -0.9177
 6429TIP3    H240779   0.085   6.686   1.834  1.5476  0.3352 -1.3378
 6430TIP3   OH240780   3.652   2.491  13.521 -0.0159  0.3165  0.3057
 6430TIP3    H140781   3.651   2.586  13.507 -0.0081  0.1502 -0.8733
 6430TIP3    H240782   3.730   2.475  13.574 -0.7705  1.1202  1.7094
 6431TIP3   OH240783   2.877   5.620  14.987 -0.2412 -0.0329 -0.4621
 6431TIP3    H140784   2.865   5.546  14.928  0.2554 -0.3417 -0.1830
 6431TIP3    H240785   2.843   5.589  15.071 -0.1081  0.0875 -0.3640
 6432TIP3   OH240786   1.117   3.259   5.687  0.4060 -0.0911 -0.3519
 6432TIP3    H140787   1.126   3.337   5.741 -1.9279  0.1575 -0.2644
 6432TIP3    H240788   1.062   3.200   5.740  1.7300 -1.6181 -0.6119
 6433TIP3   OH240789   1.010   3.476  17.177 -0.2972  0.3206  0.1205
 6433TIP3    H140790   1.072   3.444  17.243  1.4615  1.6613 -0.8473
 6433TIP3    H240791   0.986   3.564  17.206  2.2363  1.8440 -2.1122
 6434TIP3   OH240792   0.150   5.865   3.974  0.1883 -0.4515 -0.0335
 6434TIP3    H140793   0.089   5.883   3.902  0.2292  1.6174  0.4363
 6434TIP3    H240794   0.229   5.916   3.952 -0.4006  1.5181  2.2836
 6435TIP3   OH240795   0.015   5.478   1.160 -0.3944  0.1779 -0.5846
 6435TIP3    H140796   0.037   5.571   1.171  0.0348  0.0691 -0.4858
 6435TIP3    H240797   0.098   5.433   1.173 -0.4153 -0.1573 -1.5365
 6436TIP3   OH240798   2.294   6.691  10.902 -0.4853  0.1292 -0.0617
 6436TIP3    H140799   2.305   6.752  10.829 -0.5690 -0.1002 -0.2710
 6436TIP3    H240800   2.324   6.607  10.867 -2.9124 -0.5393 -0.6969
 6437TIP3   OH240801   1.001   5.099   2.950  0.3385  0.3340  0.2523
 6437TIP3    H140802   0.938   5.029   2.932 -0.8332  1.4929 -0.2574
 6437TIP3    H240803   0.951   5.166   2.996  1.8871  0.0682  2.3945
 6438TIP3   OH240804   5.306   5.310   4.281  0.6246 -0.6308 -0.0386
 6438TIP3    H140805   5.394   5.305   4.320  1.4207 -1.2106 -1.8823
 6438TIP3    H240806   5.270   5.222   4.292  1.0409 -0.9297 -1.0422
 6439TIP3   OH240807   5.226   2.314  15.048 -0.3668  0.2460  0.2859
 6439TIP3    H140808   5.261   2.244  15.104 -0.4013 -0.8418 -1.0334
 6439TIP3    H240809   5.297   2.378  15.042 -0.5763  0.6723  2.0575
 6440TIP3   OH240810   3.428   6.471   4.884 -0.0643 -0.7509  0.0277
 6440TIP3    H140811   3.496   6.442   4.823  1.4532  1.6405  0.5621
 6440TIP3    H240812   3.346   6.453   4.837  1.0360 -0.0805 -2.2185
 6441TIP3   OH240813   4.206   4.209   4.977  0.5919 -0.2047  0.4857
 6441TIP3    H140814   4.251   4.125   4.968  2.3203  0.6813  0.6678
 6441TIP3    H240815   4.253   4.268   4.918 -1.6459  0.2472 -0.9021
 6442TIP3   OH240816   6.568   5.045  13.580 -0.4492 -0.1360 -0.5588
 6442TIP3    H140817   6.548   4.983  13.650  0.8443  0.0434 -0.0210
 6442TIP3    H240818   6.590   4.991  13.505 -0.7215 -0.3208 -0.5089
 6443TIP3   OH240819   2.925   2.651  16.999 -0.5792 -0.0822 -0.4637
 6443TIP3    H140820   2.950   2.644  17.091  0.2596  0.2197 -0.6683
 6443TIP3    H240821   2.971   2.580  16.956 -2.5634 -1.4965 -0.3347
 6444TIP3   OH240822   4.786   1.877  13.910  0.1684  0.9207  0.0739
 6444TIP3    H140823   4.699   1.845  13.888  0.4182  1.8105 -2.3091
 6444TIP3    H240824   4.771   1.962  13.951 -0.0180  1.8081 -1.8026
 6445TIP3   OH240825   1.078   1.386  14.897  0.0899 -0.6250 -0.3920
 6445TIP3    H140826   1.151   1.340  14.939  0.4360 -1.2739 -1.6600
 6445TIP3    H240827   1.085   1.361  14.805 -0.8500  0.5042 -0.7720
 6446TIP3   OH240828   2.328   3.580  16.605  0.2074 -0.0601  0.0088
 6446TIP3    H140829   2.264   3.540  16.664  1.0788 -1.4402  0.0220
 6446TIP3    H240830   2.381   3.636  16.662 -0.5745  0.6008  0.1005
 6447TIP3   OH240831   5.126   3.824  10.916  0.1181  0.5571 -0.3585
 6447TIP3    H140832   5.175   3.892  10.869 -0.2956  0.4985 -0.8779
 6447TIP3    H240833   5.186   3.749  10.918  0.8108  1.1182  0.7440
 6448TIP3   OH240834   3.572   5.834  13.566 -0.1805 -0.5219  0.0670
 6448TIP3    H140835   3.504   5.846  13.499 -1.1486 -0.3237  1.0610
 6448TIP3    H240836   3.627   5.912  13.558 -0.6387 -0.2095 -0.1016
 6449TIP3   OH240837   3.918   1.593   5.361  0.2193  0.3613  0.5436
 6449TIP3    H140838   4.007   1.621   5.385  0.2356  0.6366  0.1732
 6449TIP3    H240839   3.873   1.674   5.337 -0.2463  0.2638  1.0757
 6450TIP3   OH240840   2.959   3.683   0.924 -0.3444  0.4756 -0.0128
 6450TIP3    H140841   3.036   3.708   0.975 -1.0198  1.5058  0.5186
 6450TIP3    H240842   2.910   3.626   0.983 -1.3222  1.9816  0.6696
 6451TIP3   OH240843   0.913   5.567   5.780  0.5160 -0.0015 -0.0804
 6451TIP3    H140844   0.873   5.624   5.845  0.0719 -0.7519  0.3047
 6451TIP3    H240845   0.964   5.504   5.831  0.7476 -0.1467 -0.4863
 6452TIP3   OH240846   5.988   0.172   5.820 -0.1848  0.0951 -0.5773
 6452TIP3    H140847   5.927   0.179   5.894 -0.1670  0.3949 -0.5921
 6452TIP3    H240848   6.073   0.199   5.855  0.0926 -1.0352 -0.3640
 6453TIP3   OH240849   0.634   0.757  16.026 -0.0794  0.1400  0.2371
 6453TIP3    H140850   0.696   0.684  16.031 -1.9886 -1.6055 -0.5658
 6453TIP3    H240851   0.662   0.808  15.950  1.7326  0.6896  1.2649
 6454TIP3   OH240852   4.166   2.003   0.813  0.6201  0.0311  0.2515
 6454TIP3    H140853   4.127   1.935   0.758  3.4466 -0.6800 -0.9773
 6454TIP3    H240854   4.249   1.965   0.841  0.0145  1.0921  3.6231
 6455TIP3   OH240855   3.398   3.790   4.759 -0.1056 -0.1385  0.1694
 6455TIP3    H140856   3.358   3.751   4.681  1.7478 -1.4791 -0.1357
 6455TIP3    H240857   3.490   3.803   4.736  0.4940 -0.6189  2.1314
 6456TIP3   OH240858   5.887   1.741   3.556 -0.7228 -0.5690  0.1840
 6456TIP3    H140859   5.927   1.757   3.471  0.0002 -0.0333  0.6168
 6456TIP3    H240860   5.929   1.661   3.588 -0.3613 -0.2889  0.4148
 6457TIP3   OH240861   1.433   3.418  17.105  0.1783 -0.6350  0.3157
 6457TIP3    H140862   1.487   3.374  17.171  0.0299 -0.8542  0.2924
 6457TIP3    H240863   1.489   3.422  17.027  0.1697 -0.8354  0.2997
 6458TIP3   OH240864   5.270   5.107   0.856  0.5451  0.5436 -0.0812
 6458TIP3    H140865   5.246   5.198   0.841  1.5439  0.6502 -1.0568
 6458TIP3    H240866   5.234   5.059   0.782  2.2621  0.5297 -0.9255
 6459TIP3   OH240867   0.793   1.190   1.177 -0.3748  0.1200  0.2354
 6459TIP3    H140868   0.737   1.192   1.099 -2.2991 -1.1707  1.5385
 6459TIP3    H240869   0.882   1.204   1.144 -1.2881  0.6475 -2.0578
 6460TIP3   OH240870   2.558   5.679   2.854  0.6083 -0.3057  0.1353
 6460TIP3    H140871   2.603   5.623   2.789  2.0590 -0.2170  1.0345
 6460TIP3    H240872   2.612   5.758   2.857 -1.4197  1.1545 -1.1047
 6461TIP3   OH240873   4.721   3.971   0.993 -0.1045  0.4554  0.1619
 6461TIP3    H140874   4.676   4.022   0.925 -0.2265 -0.8193 -0.7162
 6461TIP3    H240875   4.716   4.027   1.071 -1.4412  1.2002 -0.4377
 6462TIP3   OH240876   5.507   0.783  16.146 -0.5903 -0.7541  0.1654
 6462TIP3    H140877   5.585   0.825  16.181 -0.9502 -1.2597  1.6109
 6462TIP3    H240878   5.495   0.705  16.200 -1.7772 -0.9846 -0.4057
 6463TIP3   OH240879   1.552   6.761   4.085  0.3758  0.8513 -0.3641
 6463TIP3    H140880   1.568   6.811   4.165  0.7681 -0.6752  0.5416
 6463TIP3    H240881   1.475   6.707   4.107  1.2204 -0.4586 -0.5778
 6464TIP3   OH240882   1.882   2.783   2.248 -0.0062 -0.3531  0.5952
 6464TIP3    H140883   1.890   2.689   2.233  0.2275  0.0068 -1.8045
 6464TIP3    H240884   1.800   2.793   2.296  0.2083 -1.8083  1.3001
 6465TIP3   OH240885   5.397   6.637   6.240 -0.0188 -0.5354  0.0658
 6465TIP3    H140886   5.313   6.592   6.251 -0.3367  0.3303  1.2253
 6465TIP3    H240887   5.460   6.566   6.225 -0.9087 -1.2056 -0.5764
 6466TIP3   OH240888   6.472   4.811  13.138  0.0020 -0.5461  0.1432
 6466TIP3    H140889   6.504   4.837  13.051  0.5250  0.0065  0.4965
 6466TIP3    H240890   6.394   4.759  13.120 -1.2490  1.5097 -0.5866
 6467TIP3   OH240891   2.348   4.413   3.566  0.4862 -0.2789  0.3087
 6467TIP3    H140892   2.300   4.387   3.487  1.1271  0.7924 -0.4292
 6467TIP3    H240893   2.438   4.423   3.538  0.5839  0.8607  1.0193
 6468TIP3   OH240894   4.691   4.880  14.443 -0.8541 -0.8985 -0.6038
 6468TIP3    H140895   4.644   4.952  14.484  0.5609 -0.8095  0.9142
 6468TIP3    H240896   4.776   4.917  14.420 -0.5631 -1.7623 -0.9460
 6469TIP3   OH240897   4.820   2.920  14.358 -0.0363 -0.3315 -0.0735
 6469TIP3    H140898   4.851   2.838  14.319 -0.4182  0.7891 -2.8465
 6469TIP3    H240899   4.775   2.893  14.438 -2.1470 -3.0914 -2.0929
 6470TIP3   OH240900   5.374   2.159   5.210  0.4024 -0.0644 -0.3762
 6470TIP3    H140901   5.443   2.143   5.275  0.3860 -0.6900 -0.5134
 6470TIP3    H240902   5.295   2.173   5.263  0.5730  0.3518 -0.2296
 6471TIP3   OH240903   3.654   3.872   0.728 -0.2362 -0.1242  0.1139
 6471TIP3    H140904   3.618   3.897   0.643  1.1304  0.4011 -0.3148
 6471TIP3    H240905   3.676   3.955   0.770  0.1369 -0.4279  0.5244
 6472TIP3   OH240906   6.441   1.369  12.411 -0.4519  0.0599 -0.1559
 6472TIP3    H140907   6.467   1.293  12.359  1.6853  0.8463 -0.3245
 6472TIP3    H240908   6.497   1.364  12.489 -1.2976  0.6789  0.4910
 6473TIP3   OH240909   1.886   6.140   0.440  0.7593  0.2923  0.1161
 6473TIP3    H140910   1.803   6.094   0.453  0.6193  1.0315  2.1194
 6473TIP3    H240911   1.871   6.194   0.363  0.5519 -2.1299 -1.5792
 6474TIP3   OH240912   1.227   0.721  14.663  0.0619  0.5216 -0.2854
 6474TIP3    H140913   1.215   0.685  14.575 -0.0680  0.0092 -0.0601
 6474TIP3    H240914   1.151   0.690  14.712 -0.1017  1.1920 -0.1187
 6475TIP3   OH240915   4.547   1.539   0.899  0.1564  0.1885 -0.1668
 6475TIP3    H140916   4.609   1.611   0.906 -1.4130  1.6160 -0.5247
 6475TIP3    H240917   4.486   1.566   0.831 -1.0271 -1.0382  0.3631
 6476TIP3   OH240918   4.613   5.022   1.474 -0.4143  0.3315 -0.0639
 6476TIP3    H140919   4.655   5.000   1.391  1.3526 -1.0903  1.1572
 6476TIP3    H240920   4.539   5.077   1.450  0.8705  1.0798 -2.4730
 6477TIP3   OH240921   1.598   5.960   3.112 -0.6668  0.4569 -0.1864
 6477TIP3    H140922   1.566   5.871   3.124  1.6668 -0.5539 -1.1699
 6477TIP3    H240923   1.631   5.962   3.022  1.3237  1.6581  0.5403
 6478TIP3   OH240924   6.176   3.604   1.065 -0.1873 -0.1965  0.2625
 6478TIP3    H140925   6.244   3.613   0.998 -1.7037  0.4003 -1.2213
 6478TIP3    H240926   6.102   3.655   1.032 -1.6762 -1.5448  1.4282
 6479TIP3   OH240927   6.432   3.378   3.334 -0.4652  0.1956  0.1930
 6479TIP3    H140928   6.436   3.422   3.248  1.6873 -2.4861 -1.1596
 6479TIP3    H240929   6.346   3.336   3.335 -0.4298  0.0833 -0.7317
 6480TIP3   OH240930   3.264   4.468  14.868 -0.2556  0.1198 -0.3091
 6480TIP3    H140931   3.303   4.444  14.783  0.7756  0.1595  0.1449
 6480TIP3    H240932   3.275   4.390  14.922  0.0730  0.4737  0.1288
 6481TIP3   OH240933   4.784   3.775  11.743 -0.2321 -0.2609  0.2065
 6481TIP3    H140934   4.735   3.856  11.749 -0.6737 -0.6277  1.7494
 6481TIP3    H240935   4.724   3.708  11.774  0.2359 -1.1370 -0.7496
 6482TIP3   OH240936   1.879   4.211  16.899 -0.0864 -0.0684 -0.6169
 6482TIP3    H140937   1.965   4.184  16.931 -0.6190 -1.1055 -0.0568
 6482TIP3    H240938   1.883   4.195  16.804  0.3678 -0.0296 -0.6093
 6483TIP3   OH240939   4.147   6.170  13.075  0.1779  0.0727  0.7426
 6483TIP3    H140940   4.166   6.193  12.984  1.8584  1.5336  1.4332
 6483TIP3    H240941   4.193   6.236  13.127 -0.8638 -0.6651  2.6565
 6484TIP3   OH240942   6.312   3.582   6.066  0.4867 -0.2578  0.5013
 6484TIP3    H140943   6.235   3.636   6.047  0.4454 -0.6389 -0.4238
 6484TIP3    H240944   6.308   3.511   6.002  0.8330 -1.0655  1.3663
 6485TIP3   OH240945   4.752   1.521  16.249 -0.1981 -0.1151  0.5645
 6485TIP3    H140946   4.719   1.605  16.218 -0.3055  0.2193  1.5648
 6485TIP3    H240947   4.827   1.543  16.304  0.9276 -0.7969 -0.6988
 6486TIP3   OH240948   1.012   2.278  15.703  0.0498  0.2684 -0.2547
 6486TIP3    H140949   1.011   2.193  15.658 -1.0116 -0.3067  0.8093
 6486TIP3    H240950   1.033   2.256  15.794 -0.2190  1.1485  0.0208
 6487TIP3   OH240951   2.718   2.622  16.430  0.8998  0.1522  0.7508
 6487TIP3    H140952   2.811   2.644  16.428  1.2539 -1.1748  1.7731
 6487TIP3    H240953   2.685   2.666  16.509  1.4691 -2.3337  2.4296
 6488TIP3   OH240954   0.701   0.983  11.803  0.2771 -0.6544 -0.3095
 6488TIP3    H140955   0.755   1.044  11.752  0.5485 -0.5424  0.1042
 6488TIP3    H240956   0.677   1.033  11.881 -2.3931  0.0974 -1.5676
 6489TIP3   OH240957   6.320   1.538  15.485 -0.2451  0.2435 -0.2706
 6489TIP3    H140958   6.357   1.625  15.471  0.1282  0.5502  2.5130
 6489TIP3    H240959   6.384   1.479  15.445  1.3255  1.0213  1.0351
 6490TIP3   OH240960   0.017   1.652   4.650  0.1699 -0.1062  0.1451
 6490TIP3    H140961  -0.042   1.720   4.619  1.8756  1.1157 -0.4841
 6490TIP3    H240962   0.023   1.666   4.744  1.4567  1.4192 -0.1350
 6491TIP3   OH240963   2.719   6.728   5.767  0.2180 -0.2918 -0.1264
 6491TIP3    H140964   2.642   6.730   5.823 -0.9470 -0.8221 -1.6560
 6491TIP3    H240965   2.713   6.643   5.723  2.1164 -0.6801  0.3422
 6492TIP3   OH240966   3.413   1.819   4.034  0.1292  0.7899  0.5072
 6492TIP3    H140967   3.454   1.852   3.954  1.9484 -1.3622  0.5058
 6492TIP3    H240968   3.448   1.875   4.103 -3.0364  4.0015 -0.3520
 6493TIP3   OH240969   1.159   4.191   4.887 -0.0827 -0.4762  0.2490
 6493TIP3    H140970   1.087   4.254   4.892 -0.0893 -0.4508 -0.1635
 6493TIP3    H240971   1.140   4.138   4.810 -0.2288 -1.1811  0.7652
 6494TIP3   OH240972   2.855   2.522  14.207  0.5226  0.2865  0.0219
 6494TIP3    H140973   2.910   2.444  14.210  2.6834  1.6766 -1.7999
 6494TIP3    H240974   2.838   2.537  14.114 -3.8760 -0.6654  0.5558
 6495TIP3   OH240975   0.796   3.198   0.820 -0.0716  0.4641  0.0164
 6495TIP3    H140976   0.860   3.175   0.888  0.2154 -0.0105 -0.4134
 6495TIP3    H240977   0.808   3.291   0.806  0.0982  0.4972  0.3810
 6496TIP3   OH240978   0.662   6.679   4.249 -0.3363 -0.7945 -0.3564
 6496TIP3    H140979   0.730   6.745   4.234 -0.5613 -0.4222  0.2716
 6496TIP3    H240980   0.708   6.605   4.288 -0.3698 -0.3496  0.5427
 6497TIP3   OH240981   4.693   0.357  14.993 -0.1631 -0.1555 -0.0876
 6497TIP3    H140982   4.686   0.264  15.011  0.1760 -0.3520 -0.9778
 6497TIP3    H240983   4.603   0.389  14.998 -0.0435 -0.0531  2.6771
 6498TIP3   OH240984   3.679   4.060   3.535 -0.3953  0.0055 -0.1192
 6498TIP3    H140985   3.657   4.146   3.499  2.0059  1.0664  0.8568
 6498TIP3    H240986   3.661   3.999   3.463 -2.2563  1.2716 -0.7817
 6499TIP3   OH240987   6.572   1.926  12.457 -0.3643 -0.1807 -0.3023
 6499TIP3    H140988   6.585   2.015  12.425 -3.3774  0.1557 -0.7479
 6499TIP3    H240989   6.578   1.872  12.378 -1.7917  0.0041 -0.5512
 6500TIP3   OH240990   2.997   4.566  14.836  0.0600 -0.3029 -0.0012
 6500TIP3    H140991   3.078   4.517  14.841  0.4920  0.3201 -0.8442
 6500TIP3    H240992   2.994   4.601  14.747 -0.4568  0.8033  0.4282
 6501TIP3   OH240993   6.211   4.024  12.897 -0.1630  0.7968 -0.2841
 6501TIP3    H140994   6.253   4.036  12.982 -0.9623  0.5342  0.1556
 6501TIP3    H240995   6.153   4.100  12.887 -2.0294 -0.4640  0.5950
 6502TIP3   OH240996   5.494   3.899   0.044  0.1046  0.2313  0.8808
 6502TIP3    H140997   5.555   3.877  -0.026 -1.2786  2.0364 -0.9523
 6502TIP3    H240998   5.408   3.879   0.009 -0.7802  3.1412  1.2111
 6503TIP3   OH240999   5.493   5.237  16.951  0.0644 -0.3007 -0.2531
 6503TIP3    H141000   5.488   5.160  17.008  1.3354 -0.9703 -1.0234
 6503TIP3    H241001   5.479   5.201  16.863  1.3629  0.2588 -0.6855
 6504TIP3   OH241002   5.370   1.954   2.899  0.2711 -0.2407  0.2101
 6504TIP3    H141003   5.367   2.027   2.837  1.2739 -1.0641 -0.8337
 6504TIP3    H241004   5.384   1.995   2.984 -0.6285  0.8753 -0.1829
 6505TIP3   OH241005   4.445   4.260  11.905  0.1583 -0.4035  0.0855
 6505TIP3    H141006   4.451   4.345  11.861  0.7621 -0.1680  0.6102
 6505TIP3    H241007   4.431   4.197  11.835 -0.0978  0.1092 -0.3266
 6506TIP3   OH241008   0.650   2.749   2.953  0.5298 -0.1167 -0.0014
 6506TIP3    H141009   0.672   2.820   2.893 -0.7692 -0.4283 -0.8587
 6506TIP3    H241010   0.719   2.684   2.939  1.0746  0.4677 -0.0507
 6507TIP3   OH241011   4.727   1.749  13.324 -0.1219 -0.1414 -0.1980
 6507TIP3    H141012   4.813   1.706  13.327 -0.0422  0.0543  0.4247
 6507TIP3    H241013   4.748   1.843  13.317 -0.2900 -0.1706 -1.0988
 6508TIP3   OH241014   4.217   0.440  12.595 -0.0424  0.0979 -0.4889
 6508TIP3    H141015   4.193   0.511  12.655  0.4072 -0.0172 -0.1720
 6508TIP3    H241016   4.307   0.460  12.569  0.1384 -0.4405 -0.2806
 6509TIP3   OH241017   4.743   2.787  16.231  0.0827 -0.2353  0.9556
 6509TIP3    H141018   4.736   2.872  16.273  0.3123  0.4396 -0.3373
 6509TIP3    H241019   4.678   2.789  16.161  4.0401  1.2335 -2.9506
 6510TIP3   OH241020   4.049   3.380   1.535  0.1568 -0.0762  0.1643
 6510TIP3    H141021   4.039   3.285   1.543 -0.4373  0.0687  1.2695
 6510TIP3    H241022   4.092   3.406   1.617 -1.4400  0.8364  0.7323
 6511TIP3   OH241023   0.193   1.970  14.266  0.0153  0.2134  0.2153
 6511TIP3    H141024   0.141   1.892  14.247 -0.6446  0.7627 -0.2727
 6511TIP3    H241025   0.148   2.014  14.338 -0.0032  0.5081  0.0277
 6512TIP3   OH241026   3.405   1.192   6.178 -0.4582  0.0878 -0.0573
 6512TIP3    H141027   3.489   1.174   6.221 -0.4572  2.3613  0.9276
 6512TIP3    H241028   3.377   1.107   6.144  1.7234 -0.8948  0.5332
 6513TIP3   OH241029   1.272   2.545  17.056 -0.6897 -0.4311 -0.4478
 6513TIP3    H141030   1.184   2.572  17.029 -1.0398 -1.2474 -0.1182
 6513TIP3    H241031   1.274   2.451  17.040 -0.1606 -0.5556  0.3424
 6514TIP3   OH241032   4.651   4.022  16.821  0.4573  0.4070 -0.1356
 6514TIP3    H141033   4.620   3.969  16.748  0.9454  0.6916 -0.5599
 6514TIP3    H241034   4.603   3.991  16.897  1.0263 -0.9181 -0.3054
 6515TIP3   OH241035   2.796   4.706   5.590  0.1555  0.0146  0.6668
 6515TIP3    H141036   2.822   4.757   5.513  3.0085 -0.2571  1.3873
 6515TIP3    H241037   2.780   4.771   5.658 -0.7498  0.1767  0.2977
 6516TIP3   OH241038   0.011   4.279  10.967 -0.2028  0.1368 -0.0967
 6516TIP3    H141039  -0.081   4.257  10.951  0.2534 -1.3806 -0.7570
 6516TIP3    H241040   0.035   4.334  10.893  0.1375 -1.6676 -1.3712
 6517TIP3   OH241041   3.207   4.530   1.283  0.0551 -0.2373 -0.1130
 6517TIP3    H141042   3.112   4.531   1.270  0.0195  0.9452  0.1252
 6517TIP3    H241043   3.221   4.594   1.353  0.9768 -0.8151  0.2368
 6518TIP3   OH241044   5.151   2.458   1.902 -0.4544  0.3911  0.5832
 6518TIP3    H141045   5.067   2.442   1.859  0.3058 -0.5933 -0.5532
 6518TIP3    H241046   5.174   2.548   1.877  0.6406 -0.6255 -2.2391
 6519TIP3   OH241047   6.077   4.425   4.684  0.5781  0.1983 -0.7973
 6519TIP3    H141048   6.055   4.424   4.591 -2.4181  0.5423 -0.1416
 6519TIP3    H241049   6.113   4.512   4.700 -3.1673  1.8187 -0.7624
 6520TIP3   OH241050   1.983   2.651   4.152 -0.0686 -0.1928 -0.0953
 6520TIP3    H141051   1.974   2.670   4.059 -0.4784 -0.7193 -0.1650
 6520TIP3    H241052   2.075   2.670   4.172 -0.2119  0.8264 -0.3961
 6521TIP3   OH241053   0.991   6.323   5.792  0.0316 -0.6668 -0.0958
 6521TIP3    H141054   0.962   6.406   5.756  2.6562  0.0323 -0.7213
 6521TIP3    H241055   1.008   6.341   5.884 -0.3321 -0.7456 -0.0154
 6522TIP3   OH241056   5.880   2.644   3.077 -0.5934 -0.1774 -0.1796
 6522TIP3    H141057   5.956   2.587   3.062  0.0043  0.4963  0.2025
 6522TIP3    H241058   5.903   2.726   3.032 -1.5337 -0.3070 -0.9015
 6523TIP3   OH241059   4.080   6.066  14.125  0.3971  0.2804 -0.2524
 6523TIP3    H141060   4.047   6.030  14.043 -0.6404  2.2430 -0.7386
 6523TIP3    H241061   4.120   6.150  14.100  2.6514 -0.4427  0.8433
 6524TIP3   OH241062   5.427   3.965  14.533 -0.2274 -0.2924 -0.1796
 6524TIP3    H141063   5.431   3.990  14.625  1.1814  0.7179 -0.4945
 6524TIP3    H241064   5.363   3.894  14.530 -1.8175  1.0381  1.2458
 6525TIP3   OH241065   2.063   0.586  13.434  0.2077  0.5317  0.3223
 6525TIP3    H141066   2.010   0.600  13.513  0.6816  0.8379  0.5895
 6525TIP3    H241067   2.027   0.506  13.395 -0.0517  0.3968  0.8306
 6526TIP3   OH241068   2.539   6.261  11.380 -0.2589  0.3385 -0.2945
 6526TIP3    H141069   2.617   6.304  11.345 -0.0247 -0.0135 -0.2026
 6526TIP3    H241070   2.478   6.258  11.306 -0.8304  2.1286  0.0691
 6527TIP3   OH241071   2.653   1.848   1.958  0.7375  0.0934 -0.4087
 6527TIP3    H141072   2.697   1.864   2.041 -0.9047 -0.2159  0.5417
 6527TIP3    H241073   2.632   1.754   1.959 -1.2133  0.5144 -0.2007
 6528TIP3   OH241074   0.388   1.033   1.054 -0.1757  0.2214  0.0190
 6528TIP3    H141075   0.460   0.976   1.081 -0.2456  0.9737  1.8240
 6528TIP3    H241076   0.422   1.122   1.063 -0.9870  0.5587 -0.1325
 6529TIP3   OH241077   4.921   3.074   1.281  0.2455  0.4758  0.1485
 6529TIP3    H141078   4.911   2.993   1.331  1.4721  0.5037  0.4510
 6529TIP3    H241079   4.908   3.143   1.345  1.2907  0.5107  0.3348
 6530TIP3   OH241080   0.681   5.215  14.175  0.4887  0.1631 -0.6878
 6530TIP3    H141081   0.761   5.244  14.218  0.4855 -0.0807 -0.5205
 6530TIP3    H241082   0.691   5.245  14.084  0.3415  0.9781 -0.4391
 6531TIP3   OH241083   3.310   1.491   2.271  0.1185 -0.2693 -0.1487
 6531TIP3    H141084   3.243   1.448   2.324  2.6427 -2.4312  1.3431
 6531TIP3    H241085   3.378   1.517   2.334  0.5341  2.3258 -1.5729
 6532TIP3   OH241086   6.743   5.959  13.501  0.5670  0.4563 -0.1291
 6532TIP3    H141087   6.684   5.911  13.559  0.3832 -1.0694 -1.5058
 6532TIP3    H241088   6.690   6.030  13.466  1.1284  2.3642  2.7156
 6533TIP3   OH241089   2.922   0.923   6.567  0.1957 -0.7147  0.4190
 6533TIP3    H141090   2.996   0.905   6.626 -1.4025 -2.3928  1.9773
 6533TIP3    H241091   2.872   0.991   6.613  1.2383  1.1474 -1.1027
 6534TIP3   OH241092   3.245   0.797  11.840  0.3724 -0.4209  0.1541
 6534TIP3    H141093   3.278   0.721  11.791  1.2100 -0.6395  1.0471
 6534TIP3    H241094   3.255   0.870  11.778  2.4893 -0.4979  0.3466
 6535TIP3   OH241095   1.471   4.662   6.083  0.4490 -0.0567 -0.2443
 6535TIP3    H141096   1.475   4.634   6.174 -0.6874 -3.5883 -1.2123
 6535TIP3    H241097   1.493   4.584   6.032 -0.8263  1.3124 -3.0276
 6536TIP3   OH241098   4.444   1.956   5.472  0.1998  0.1783  0.3057
 6536TIP3    H141099   4.485   1.974   5.556  0.3899  0.4737  0.1519
 6536TIP3    H241100   4.509   1.983   5.407  0.2543 -0.5187  0.0654
 6537TIP3   OH241101   3.906   3.398  12.287  0.6502  0.0585 -0.2416
 6537TIP3    H141102   3.886   3.305  12.295  1.9570 -0.3838 -1.8389
 6537TIP3    H241103   3.850   3.440  12.352  2.2412 -2.1125  2.7096
 6538TIP3   OH241104   1.898   3.584  11.069 -0.0304  0.1370 -0.0757
 6538TIP3    H141105   1.909   3.529  10.992  0.1610  1.2841 -0.8851
 6538TIP3    H241106   1.804   3.593  11.079 -0.0982 -1.3076  0.7800
 6539TIP3   OH241107   1.777   5.072  13.204  0.1700  0.4869  0.3170
 6539TIP3    H141108   1.798   4.980  13.193  1.4543  1.0038 -1.7507
 6539TIP3    H241109   1.826   5.099  13.282 -1.1631 -0.8472  1.6347
 6540TIP3   OH241110   1.278   3.439   4.528  0.0491 -0.0416  0.2170
 6540TIP3    H141111   1.370   3.415   4.518  0.9910  2.4422  2.2824
 6540TIP3    H241112   1.252   3.470   4.441  1.0963 -0.9579 -0.4424
 6541TIP3   OH241113   3.822   4.103   2.312  0.2918 -0.1765 -0.2426
 6541TIP3    H141114   3.820   4.195   2.287 -2.2663 -0.5224 -1.4993
 6541TIP3    H241115   3.915   4.081   2.317  0.9081  1.9328 -1.8863
 6542TIP3   OH241116   5.188   2.073  16.683  0.2059  0.2420 -0.4020
 6542TIP3    H141117   5.133   2.119  16.620 -1.9144 -0.9323  0.5469
 6542TIP3    H241118   5.232   2.005  16.631 -1.7548 -0.9098 -0.6107
 6543TIP3   OH241119   5.665   1.484  13.066  0.2565  0.8185  0.7939
 6543TIP3    H141120   5.633   1.409  13.016  0.5315  0.9090  0.4744
 6543TIP3    H241121   5.676   1.452  13.155  0.0497  0.5708  0.7281
 6544TIP3   OH241122   2.286   2.686  14.164 -0.0651  0.2040 -0.1664
 6544TIP3    H141123   2.207   2.740  14.169 -1.1115 -1.2348 -0.7271
 6544TIP3    H241124   2.315   2.678  14.254 -2.1429 -1.5086  0.3935
 6545TIP3   OH241125   4.548   2.959   0.028  0.3556  0.2027 -0.2563
 6545TIP3    H141126   4.460   2.996   0.021 -0.5688 -1.6387  1.3820
 6545TIP3    H241127   4.560   2.941   0.121  1.9895 -0.7708 -0.6302
 6546TIP3   OH241128   5.177   0.160  14.740 -0.2444 -0.2426 -0.0937
 6546TIP3    H141129   5.094   0.137  14.781 -0.5482 -0.8283 -1.0225
 6546TIP3    H241130   5.184   0.255  14.753 -0.7606 -0.2828  0.5107
 6547TIP3   OH241131   2.883   6.377  12.415  0.0178 -0.4662 -0.2356
 6547TIP3    H141132   2.877   6.460  12.463  2.7186 -0.8641  0.8882
 6547TIP3    H241133   2.972   6.376  12.380  0.0630 -2.9359 -0.1367
 6548TIP3   OH241134   2.631   3.515  13.010 -0.3469 -0.0291  0.0029
 6548TIP3    H141135   2.587   3.589  12.969 -0.7733  0.2834  1.0280
 6548TIP3    H241136   2.565   3.446  13.012 -0.7810  0.4265  1.5025
 6549TIP3   OH241137   3.787   1.433   2.465  0.1669  0.2368 -0.4687
 6549TIP3    H141138   3.812   1.347   2.499  0.1196 -0.0594 -1.1746
 6549TIP3    H241139   3.706   1.417   2.417 -0.9889  1.0545  1.1524
 6550TIP3   OH241140   5.589   3.415   3.398  0.4119 -0.1743 -0.3033
 6550TIP3    H141141   5.556   3.344   3.455  3.0539 -1.0932  0.1627
 6550TIP3    H241142   5.650   3.463   3.454 -0.6985  1.9611 -0.9062
 6551TIP3   OH241143   0.348   3.491   6.730  0.2037 -0.2211  0.3830
 6551TIP3    H141144   0.331   3.560   6.666  0.5552 -0.1209  0.3979
 6551TIP3    H241145   0.335   3.409   6.681 -0.8500 -0.1511  0.5316
 6552TIP3   OH241146   1.865   1.918   1.282  0.3024 -0.2982 -0.2932
 6552TIP3    H141147   1.946   1.893   1.238 -0.2629 -0.0953 -1.4474
 6552TIP3    H241148   1.803   1.850   1.258 -0.4728  0.7074 -1.1873
 6553TIP3   OH241149   3.740   1.287  11.020  0.4004  0.5152 -0.2374
 6553TIP3    H141150   3.785   1.349  10.963  0.6958  1.0645  0.5682
 6553TIP3    H241151   3.767   1.313  11.108  1.2511 -1.3422  0.0569
 6554TIP3   OH241152   6.194   3.800  17.002  0.6180 -0.0705  0.2413
 6554TIP3    H141153   6.232   3.753  17.077  2.0123  1.2106  0.3839
 6554TIP3    H241154   6.220   3.749  16.926 -0.8749 -1.4261  0.6201
 6555TIP3   OH241155   2.112   4.763   1.180 -0.1949  0.5623 -0.3561
 6555TIP3    H141156   2.181   4.823   1.209  1.1858 -1.7396  1.3103
 6555TIP3    H241157   2.038   4.782   1.237  0.1082  0.9318 -0.0783
 6556TIP3   OH241158   0.576   1.991  15.965 -0.1397  0.2702 -0.1689
 6556TIP3    H141159   0.573   1.898  15.987 -0.7522  0.9355  2.7850
 6556TIP3    H241160   0.485   2.015  15.949  0.0640  0.2991 -1.3715
 6557TIP3   OH241161   6.657   0.361   2.191 -0.1494 -0.5356  0.1474
 6557TIP3    H141162   6.718   0.434   2.181 -0.9184  0.0545 -0.2192
 6557TIP3    H241163   6.700   0.288   2.146  0.2587 -0.1048 -0.1634
 6558TIP3   OH241164   0.716   0.132  17.281 -0.1556 -0.4249 -0.3396
 6558TIP3    H141165   0.808   0.135  17.309 -0.2355 -2.1389  0.1386
 6558TIP3    H241166   0.694   0.039  17.279 -2.2370  0.0026  0.7398
 6559TIP3   OH241167   2.097   6.463  13.310 -0.1953  0.7298 -0.2642
 6559TIP3    H141168   2.193   6.466  13.315 -0.2213  0.4553  0.4375
 6559TIP3    H241169   2.078   6.371  13.294 -0.3611  0.7188  0.0016
 6560TIP3   OH241170   5.736   4.336   4.348 -0.3560 -0.7486  0.5757
 6560TIP3    H141171   5.695   4.412   4.307 -1.7604 -1.8954 -0.1803
 6560TIP3    H241172   5.697   4.260   4.304  1.8500 -1.8939  0.5319
 6561TIP3   OH241173   6.785   4.062  16.479 -0.5296  0.2197 -0.5416
 6561TIP3    H141174   6.860   4.109  16.444  0.1249 -0.9087 -0.7069
 6561TIP3    H241175   6.791   4.075  16.574  0.2179 -0.3315 -0.5027
 6562TIP3   OH241176   2.909   4.100  11.746 -0.0076  0.0508  0.7110
 6562TIP3    H141177   2.940   4.075  11.658  1.5413  0.2392  1.1821
 6562TIP3    H241178   2.817   4.074  11.747 -0.8225  2.4993 -1.9355
 6563TIP3   OH241179   2.137   4.411   5.469 -0.4627  0.2661 -0.1251
 6563TIP3    H141180   2.140   4.423   5.564  1.7399  0.0619 -0.1516
 6563TIP3    H241181   2.122   4.317   5.457 -1.5692  0.4200  0.0171
 6564TIP3   OH241182   1.645   3.993   2.171 -0.1933 -0.5327  0.5839
 6564TIP3    H141183   1.620   3.937   2.244  0.6073  0.4681  1.6597
 6564TIP3    H241184   1.568   4.046   2.154 -0.7016 -1.4367  0.0638
 6565TIP3   OH241185   2.479   2.770   0.879 -0.5046 -0.1272  0.1390
 6565TIP3    H141186   2.387   2.758   0.903 -0.5637  1.8754  1.0338
 6565TIP3    H241187   2.477   2.790   0.786 -0.9836 -0.0472  0.1659
 6566TIP3   OH241188   5.979   6.599  12.106  0.2581 -0.0628 -0.3506
 6566TIP3    H141189   5.966   6.647  12.187 -0.9981  0.3194 -0.7718
 6566TIP3    H241190   6.016   6.664  12.045  1.0396 -0.3073 -0.1503
 6567TIP3   OH241191   0.287   5.832   5.129  0.5040 -0.2440  0.4723
 6567TIP3    H141192   0.323   5.873   5.207  1.4000  0.0038 -0.0666
 6567TIP3    H241193   0.360   5.829   5.067  0.5752 -2.9947  0.6213
 6568TIP3   OH241194   1.860   1.886  16.880  0.6463  0.3435 -0.0978
 6568TIP3    H141195   1.879   1.980  16.883 -2.8596  1.2642 -3.0899
 6568TIP3    H241196   1.938   1.848  16.839  2.0954  1.9184  1.1208
 6569TIP3   OH241197   0.545   4.034  13.713  0.0066  0.7907  0.1091
 6569TIP3    H141198   0.507   3.953  13.745  3.6560 -1.8904 -1.9500
 6569TIP3    H241199   0.538   4.028  13.618  0.1916  2.9766 -0.0674
 6570TIP3   OH241200   0.076   2.195   3.503 -0.1634  0.0407 -0.3918
 6570TIP3    H141201   0.098   2.259   3.570  1.2361 -0.9163  0.0682
 6570TIP3    H241202   0.117   2.114   3.532 -0.9008 -0.7782 -1.5834
 6571TIP3   OH241203   1.409   2.482  13.324  0.5008 -0.0709 -0.1945
 6571TIP3    H141204   1.321   2.498  13.290  0.0159 -1.7268  0.2602
 6571TIP3    H241205   1.465   2.544  13.276 -0.9669  1.3219 -0.1348
 6572TIP3   OH241206   5.938   0.048  12.289  0.2440 -0.2046  0.7592
 6572TIP3    H141207   6.003   0.025  12.223 -0.7203  0.8090 -0.5537
 6572TIP3    H241208   5.854   0.049  12.242 -0.0354  3.9939  1.1786
 6573TIP3   OH241209   1.853   5.989   6.340  0.0297 -0.6075 -0.3682
 6573TIP3    H141210   1.948   5.983   6.341 -0.0026 -1.8462 -2.9661
 6573TIP3    H241211   1.825   5.930   6.411  1.1904  0.1660  0.7512
 6574TIP3   OH241212   5.096   5.079   1.941  0.1859  0.0103 -0.1644
 6574TIP3    H141213   5.100   5.067   2.036  2.2934  0.8600 -0.1263
 6574TIP3    H241214   5.080   5.173   1.929  1.3263  0.1430 -0.6623
 6575TIP3   OH241215   3.230   5.383   4.067 -0.3503  0.0007  0.5373
 6575TIP3    H141216   3.255   5.367   4.158 -2.4728  0.9343  1.3205
 6575TIP3    H241217   3.180   5.306   4.042  1.2004 -0.7723 -0.2338
 6576TIP3   OH241218   4.011   4.882  11.033 -0.2056 -0.4199 -0.1200
 6576TIP3    H141219   4.081   4.947  11.026 -0.7648  0.0017 -2.0422
 6576TIP3    H241220   4.056   4.798  11.026  0.3875 -0.2314  1.2188
 6577TIP3   OH241221   2.054   3.369  13.147 -0.0172 -0.1195 -0.0424
 6577TIP3    H141222   2.121   3.406  13.205 -2.8095  3.5183  1.1045
 6577TIP3    H241223   1.997   3.319  13.205 -0.2163 -0.3531 -0.4382
 6578TIP3   OH241224   1.514   3.831  16.999  0.5327 -0.3019  0.7497
 6578TIP3    H141225   1.514   3.901  17.065  1.2596  0.9044 -0.4993
 6578TIP3    H241226   1.429   3.839  16.956  0.9450  0.3791  0.0434
 6579TIP3   OH241227   0.955   0.059   4.672 -0.1360  0.0336 -0.1946
 6579TIP3    H141228   0.955   0.070   4.577 -2.4259 -3.4401 -0.6703
 6579TIP3    H241229   0.865   0.076   4.698 -0.3906 -2.7152  0.8199
 6580TIP3   OH241230   4.316   4.581   0.622 -0.3946  0.0319  0.3917
 6580TIP3    H141231   4.296   4.538   0.539 -1.9205  0.3000  0.6124
 6580TIP3    H241232   4.356   4.513   0.676 -1.7766 -0.8370  0.3447
 6581TIP3   OH241233   5.658   3.412  17.084 -0.0969  0.1629  0.0191
 6581TIP3    H141234   5.636   3.504  17.070  0.9944  0.2352 -1.3977
 6581TIP3    H241235   5.750   3.405  17.058 -0.3278 -1.4416 -0.4416
 6582TIP3   OH241236   5.425   5.541  16.380 -0.1495  0.0167 -0.1148
 6582TIP3    H141237   5.487   5.614  16.372 -0.4490  0.2076 -0.7315
 6582TIP3    H241238   5.353   5.564  16.322 -1.2595  0.2438  1.3363
 6583TIP3   OH241239   1.249   0.870   3.775 -0.0974 -0.2233  0.3507
 6583TIP3    H141240   1.342   0.851   3.787 -0.0546 -0.1242  0.1780
 6583TIP3    H241241   1.241   0.963   3.795  0.1886  0.2204 -1.5829
 6584TIP3   OH241242   0.752   2.856  15.950 -0.1487 -0.0946  0.1908
 6584TIP3    H141243   0.690   2.827  15.883  0.8154 -1.6543 -0.0823
 6584TIP3    H241244   0.701   2.911  16.009 -1.6705 -0.9359 -0.3041
 6585TIP3   OH241245   1.334   1.222   6.164  0.4592 -0.2886  0.0074
 6585TIP3    H141246   1.320   1.285   6.234 -0.3161  0.1807 -0.5666
 6585TIP3    H241247   1.314   1.137   6.203  0.6477 -0.0896  0.5302
 6586TIP3   OH241248   3.807   1.276   3.103  0.4796  0.1949  0.1583
 6586TIP3    H141249   3.774   1.364   3.087  2.8459  1.1801  0.4990
 6586TIP3    H241250   3.868   1.259   3.031  0.1724 -1.1001  0.1868
 6587TIP3   OH241251   1.872   3.456   2.720 -0.1693  0.1621  0.4834
 6587TIP3    H141252   1.906   3.447   2.809  0.3983 -0.9188  0.1719
 6587TIP3    H241253   1.795   3.399   2.718 -0.4470  0.5375  0.4131
 6588TIP3   OH241254   0.823   1.378   0.926  0.2375  0.0538  0.2840
 6588TIP3    H141255   0.907   1.334   0.912  0.9892  2.3969 -3.3462
 6588TIP3    H241256   0.760   1.326   0.878  0.0016 -0.4733  1.1588
 6589TIP3   OH241257   3.107   0.204   5.762  0.2359 -0.3908  0.7183
 6589TIP3    H141258   3.043   0.142   5.727 -1.5606  1.1841  1.1233
 6589TIP3    H241259   3.063   0.242   5.839  1.6497  0.7549  0.9680
 6590TIP3   OH241260   0.213   3.308   0.191 -0.4290 -0.4516  0.4008
 6590TIP3    H141261   0.268   3.249   0.243  0.9948  1.6702  1.3558
 6590TIP3    H241262   0.132   3.314   0.241 -0.0885 -0.5647  0.9766
 6591TIP3   OH241263   4.022   5.903   4.495 -0.1934  0.2836  0.1177
 6591TIP3    H141264   4.092   5.939   4.441  1.7215 -1.3344  1.4473
 6591TIP3    H241265   3.990   5.976   4.547  2.0870  0.5702  1.1564
 6592TIP3   OH241266   2.608   0.834   2.317 -0.0248 -0.2264 -0.3509
 6592TIP3    H141267   2.567   0.822   2.403 -0.4404  0.0037 -0.5172
 6592TIP3    H241268   2.545   0.886   2.267 -0.5967 -1.8943 -1.4133
 6593TIP3   OH241269   5.856   1.253  14.406  0.6624 -0.2020 -0.1724
 6593TIP3    H141270   5.874   1.269  14.499  2.4216 -0.9902 -0.3522
 6593TIP3    H241271   5.852   1.340  14.367 -0.3223  0.1453  0.6671
 6594TIP3   OH241272   5.859   1.490  14.257 -0.4644 -0.0746 -0.3170
 6594TIP3    H141273   5.777   1.534  14.281  0.2927  0.4048  1.4491
 6594TIP3    H241274   5.917   1.561  14.231  0.2007 -0.1969  0.8504
 6595TIP3   OH241275   3.638   4.738   2.497  0.0681 -0.2971  0.4678
 6595TIP3    H141276   3.686   4.789   2.562  0.2549 -2.0104  1.7196
 6595TIP3    H241277   3.659   4.647   2.518 -1.9678 -0.9844 -0.3399
 6596TIP3   OH241278   5.500   2.901  14.432  0.4762 -0.1891 -0.0148
 6596TIP3    H141279   5.453   2.821  14.454  1.5741 -0.6207  0.8358
 6596TIP3    H241280   5.590   2.884  14.461  0.8375  1.1446 -0.3296
 6597TIP3   OH241281   5.369   2.141  16.041 -0.3470 -0.3277 -0.2704
 6597TIP3    H141282   5.397   2.170  16.127  1.9903 -1.3847 -0.6293
 6597TIP3    H241283   5.314   2.065  16.058  0.5729 -0.8766  0.2623
 6598TIP3   OH241284   2.999   5.131   0.815 -0.4309  0.3061  0.5405
 6598TIP3    H141285   3.061   5.199   0.840 -2.4605  1.9271  1.3018
 6598TIP3    H241286   2.913   5.164   0.843 -1.7055 -1.7085 -0.7910
 6599TIP3   OH241287   2.473   2.550  11.193 -0.6808 -0.1819 -0.0698
 6599TIP3    H141288   2.466   2.468  11.242  0.6230 -1.7232 -2.3894
 6599TIP3    H241289   2.410   2.541  11.122 -0.7528  0.9776 -0.1579
 6600TIP3   OH241290   2.339   2.756  12.295 -0.3496  0.2235 -0.4815
 6600TIP3    H141291   2.412   2.817  12.298 -0.3015  0.2099 -1.4859
 6600TIP3    H241292   2.279   2.792  12.230  0.5606 -1.7796 -2.4967
 6601TIP3   OH241293   4.371   4.606   3.151 -0.1785 -0.5058 -0.2812
 6601TIP3    H141294   4.311   4.571   3.086  2.5077 -1.2660 -2.4636
 6601TIP3    H241295   4.452   4.555   3.139  1.6670  2.0106  0.9426
 6602TIP3   OH241296   0.110   4.249   4.628  0.0245  0.1814 -0.5408
 6602TIP3    H141297   0.105   4.158   4.597  1.7721  0.2560 -1.1386
 6602TIP3    H241298   0.154   4.296   4.557  0.8929  1.0887  0.5745
 6603TIP3   OH241299   4.985   5.740  14.780 -0.0929  0.0476  0.5882
 6603TIP3    H141300   4.996   5.646  14.796  1.1163  0.4638  2.2912
 6603TIP3    H241301   5.060   5.781  14.823 -1.3505  1.9164  1.0530
 6604TIP3   OH241302   6.176   5.801  11.643 -0.1664  0.4981  0.0276
 6604TIP3    H141303   6.196   5.815  11.551 -0.6427  2.7231  0.2188
 6604TIP3    H241304   6.096   5.749  11.643 -0.7486  1.3874 -0.8268
 6605TIP3   OH241305   1.744   6.267  16.370  0.6113 -0.1223  0.0650
 6605TIP3    H141306   1.749   6.328  16.443 -0.9650 -1.0317  0.9621
 6605TIP3    H241307   1.652   6.267  16.345  0.9531 -0.6162 -1.2327
 6606TIP3   OH241308   4.926   4.003  12.028 -0.1005 -0.7637 -0.1088
 6606TIP3    H141309   4.851   4.003  12.088 -0.4378 -1.6851 -0.5180
 6606TIP3    H241310   4.889   4.025  11.943  0.4587  1.0524  0.0963
 6607TIP3   OH241311   5.058   2.839   6.369  0.2836  0.8668 -0.3030
 6607TIP3    H141312   5.093   2.773   6.309  0.1260  1.3115 -0.8945
 6607TIP3    H241313   5.099   2.921   6.340  1.0645  0.9176  0.8954
 6608TIP3   OH241314   0.988   3.545   2.551  0.1475  0.1849 -0.2338
 6608TIP3    H141315   1.054   3.543   2.621 -0.8698  3.4569  0.9518
 6608TIP3    H241316   1.025   3.604   2.485 -0.7228  0.5162 -0.4398
 6609TIP3   OH241317   5.394   6.287  13.715  0.3221 -0.7799 -0.3128
 6609TIP3    H141318   5.447   6.259  13.790 -0.4237 -1.3468  0.0055
 6609TIP3    H241319   5.369   6.206  13.672  0.1968 -0.4817 -0.7974
 6610TIP3   OH241320   6.758   6.005   6.173 -0.8439  0.0029  0.0380
 6610TIP3    H141321   6.826   6.014   6.240  0.9176 -1.1222 -1.5462
 6610TIP3    H241322   6.692   5.947   6.213  0.3618 -0.9529  0.6816
 6611TIP3   OH241323   3.034   4.377   6.232 -0.0994  0.2983 -0.1183
 6611TIP3    H141324   3.028   4.431   6.310 -0.1425 -0.0394  0.1149
 6611TIP3    H241325   3.126   4.377   6.208  0.0500 -0.3028  0.4370
 6612TIP3   OH241326   3.286   0.885   4.458 -0.3562 -0.1282  0.1029
 6612TIP3    H141327   3.229   0.948   4.414 -1.6038 -1.2169  0.1446
 6612TIP3    H241328   3.373   0.903   4.422 -0.9929  0.4641 -1.1724
 6613TIP3   OH241329   3.764   4.333   1.320  0.1182 -0.7473  0.3185
 6613TIP3    H141330   3.831   4.369   1.262  1.2545 -2.5814  0.4619
 6613TIP3    H241331   3.696   4.301   1.262  0.5415 -1.1834  0.0638
 6614TIP3   OH241332   4.605   4.696   1.395 -0.0660 -0.7563 -0.1362
 6614TIP3    H141333   4.627   4.771   1.341  0.8943 -1.3103 -0.5193
 6614TIP3    H241334   4.683   4.679   1.448 -0.8342 -0.5004  1.1101
 6615TIP3   OH241335   1.423   4.245   0.264 -0.3195  0.0211 -0.1031
 6615TIP3    H141336   1.347   4.272   0.211  0.3371 -0.3223 -1.2437
 6615TIP3    H241337   1.498   4.265   0.209  0.3474 -0.8920  0.4657
 6616TIP3   OH241338   5.546   4.701  13.456 -0.4826 -0.0512 -0.8606
 6616TIP3    H141339   5.559   4.607  13.466 -1.6236  0.0770  2.1019
 6616TIP3    H241340   5.619   4.741  13.503  0.3217  0.5812 -2.5931
 6617TIP3   OH241341   0.479   4.011  12.716  0.3332  0.2578 -0.0772
 6617TIP3    H141342   0.453   4.064  12.792  4.5653  0.1663  1.5717
 6617TIP3    H241343   0.474   3.920  12.748 -1.0300 -0.0004 -0.9810
 6618TIP3   OH241344   0.282   1.582   2.761 -0.3823  0.5059  0.2381
 6618TIP3    H141345   0.231   1.663   2.754 -0.1826  0.5662 -0.4679
 6618TIP3    H241346   0.224   1.523   2.809 -1.2884  0.4413 -0.9214
 6619TIP3   OH241347   6.185   5.565   6.127  0.5257  0.0545 -0.0692
 6619TIP3    H141348   6.245   5.523   6.065  2.6595  1.2072  1.1557
 6619TIP3    H241349   6.189   5.510   6.205 -1.2654 -0.7412 -0.5039
 6620TIP3   OH241350   4.703   0.968  13.553 -0.5615 -0.6024 -0.0752
 6620TIP3    H141351   4.746   0.942  13.634  0.9719  0.6475 -0.4580
 6620TIP3    H241352   4.626   1.017  13.581  1.2324  1.9171  0.6955
 6621TIP3   OH241353   4.035   0.888   4.557 -0.1408  0.0801 -0.3524
 6621TIP3    H141354   3.993   0.949   4.496 -0.0614  0.1378 -0.3500
 6621TIP3    H241355   4.098   0.840   4.502 -0.8198 -0.6129 -0.5473
 6622TIP3   OH241356   2.713   3.443  15.223 -0.1630  0.1941 -0.0985
 6622TIP3    H141357   2.666   3.360  15.214 -2.3424  1.3235  0.6942
 6622TIP3    H241358   2.650   3.503  15.262  1.9301  1.7704  0.9776
 6623TIP3   OH241359   2.358   2.015  13.065  0.1857  0.3960 -0.2179
 6623TIP3    H141360   2.404   1.935  13.040  0.0381 -0.0996  1.0353
 6623TIP3    H241361   2.390   2.082  13.004  2.9566  0.1824  0.9270
 6624TIP3   OH241362   0.349   4.914  12.513  0.0256  0.3363  0.5413
 6624TIP3    H141363   0.316   4.889  12.600 -0.9965  0.5482  0.2297
 6624TIP3    H241364   0.275   4.896  12.454  1.2314 -1.2359 -0.5179
 6625TIP3   OH241365   0.048   1.632  16.232  0.1404 -0.0767  0.5892
 6625TIP3    H141366   0.114   1.665  16.170  0.4005 -0.8288  0.4546
 6625TIP3    H241367   0.035   1.703  16.294  0.0427  0.6081 -0.2042
 6626TIP3   OH241368   5.753   0.429  10.781 -0.2515  0.2560  0.2891
 6626TIP3    H141369   5.660   0.412  10.766 -0.0174 -0.4187 -0.4400
 6626TIP3    H241370   5.757   0.521  10.804 -1.0105  0.5110 -0.5635
 6627TIP3   OH241371   5.677   2.889   2.993  0.1681 -0.0724 -0.6619
 6627TIP3    H141372   5.701   2.889   2.901 -0.9535  0.8299 -0.9637
 6627TIP3    H241373   5.758   2.913   3.039 -0.0429  2.6412 -1.6303
 6628TIP3   OH241374   5.773   0.247   2.405 -0.2920  0.1740 -1.0011
 6628TIP3    H141375   5.729   0.164   2.389  0.4042 -0.2219 -0.9089
 6628TIP3    H241376   5.776   0.289   2.319  1.2576 -0.8608 -1.4778
 6629TIP3   OH241377   0.202   6.737  15.295  0.2211 -0.4202 -0.2799
 6629TIP3    H141378   0.233   6.810  15.348 -0.2893 -0.5934  0.2487
 6629TIP3    H241379   0.151   6.683  15.354 -0.0786 -0.7888 -0.8665
 6630TIP3   OH241380   0.195   0.690  14.934  0.0408  0.1666  0.6715
 6630TIP3    H141381   0.238   0.684  15.020  1.8642  2.2841 -0.0459
 6630TIP3    H241382   0.194   0.783  14.914 -2.4182 -0.0962 -0.6271
 6631TIP3   OH241383   4.335   2.994   4.025 -0.4238 -0.4700  0.0440
 6631TIP3    H141384   4.242   3.007   4.006 -0.0056 -0.0296 -1.7306
 6631TIP3    H241385   4.381   3.022   3.946  1.2828  0.1194  1.2016
 6632TIP3   OH241386   1.960   3.475  13.508 -0.4071  0.0313 -0.4958
 6632TIP3    H141387   1.876   3.500  13.548 -0.5514  0.2765 -0.9534
 6632TIP3    H241388   1.938   3.403  13.449  0.2380 -2.3411  1.9977
 6633TIP3   OH241389   0.839   5.728   5.051 -0.4449  0.6537  0.4805
 6633TIP3    H141390   0.910   5.777   5.009 -0.4070  0.0058 -0.2214
 6633TIP3    H241391   0.869   5.712   5.140 -0.7251  2.4783  0.9316
 6634TIP3   OH241392   3.974   3.984   4.616 -0.0030  0.1975 -0.1200
 6634TIP3    H141393   3.941   4.041   4.546 -0.5942 -1.2164 -1.0044
 6634TIP3    H241394   4.069   4.000   4.616 -0.2638  1.8877  0.2926
 6635TIP3   OH241395   3.719   4.221  12.762  0.0614 -0.0229 -0.5743
 6635TIP3    H141396   3.803   4.180  12.779  0.0194 -0.0469 -0.4204
 6635TIP3    H241397   3.714   4.227  12.667  0.4489  0.4122 -0.5705
 6636TIP3   OH241398   0.884   3.535   0.897  0.0516 -0.3176  0.0657
 6636TIP3    H141399   0.947   3.501   0.832 -1.2331 -3.2459  0.2552
 6636TIP3    H241400   0.928   3.523   0.981  0.4770  0.5622 -0.0293
 6637TIP3   OH241401   0.094   6.413  14.680 -0.4541  0.7704  0.7232
 6637TIP3    H141402   0.105   6.495  14.633 -1.6040  0.6403  0.2132
 6637TIP3    H241403   0.120   6.433  14.770  1.5987  1.0575  0.0834
 6638TIP3   OH241404   6.280   2.037  13.291  0.4720  0.3430 -0.2209
 6638TIP3    H141405   6.241   1.950  13.298 -2.7133  1.8090  0.7469
 6638TIP3    H241406   6.290   2.051  13.197 -0.7287 -0.3330 -0.4583
 6639TIP3   OH241407   0.985   1.767  16.097  0.2731  0.2869 -0.6093
 6639TIP3    H141408   0.909   1.785  16.042  0.5113 -0.0583 -1.0512
 6639TIP3    H241409   1.050   1.731  16.037  0.3655 -0.5484 -0.0134
 6640TIP3   OH241410   1.591   4.848   0.589  0.4219 -0.2968  0.2844
 6640TIP3    H141411   1.599   4.850   0.494  0.3896  1.9752  0.3127
 6640TIP3    H241412   1.497   4.858   0.606  0.3689 -1.2057  0.5474
 6641TIP3   OH241413   2.382   2.186  12.850  0.6544 -0.0766  0.2393
 6641TIP3    H141414   2.401   2.264  12.797  0.8631 -0.5689 -0.4149
 6641TIP3    H241415   2.341   2.125  12.789  2.2865 -1.2487  0.2707
 6642TIP3   OH241416   6.551   5.318  16.611  0.4798  0.2354 -0.2096
 6642TIP3    H141417   6.593   5.382  16.668 -0.5773 -0.6461  1.6268
 6642TIP3    H241418   6.540   5.240  16.666 -2.9184  0.2245 -0.7875
 6643TIP3   OH241419   4.299   1.845   2.230 -0.2800 -0.2895  0.0095
 6643TIP3    H141420   4.252   1.874   2.152  0.7525 -1.8185 -1.2038
 6643TIP3    H241421   4.241   1.870   2.303 -0.7723  2.0931 -1.1418
 6644TIP3   OH241422   6.027   0.701  16.157 -0.2335  0.1268  0.7024
 6644TIP3    H141423   6.086   0.630  16.182 -0.7027  0.2574  2.2740
 6644TIP3    H241424   6.007   0.686  16.065  0.3853 -1.2543  0.7898
 6645TIP3   OH241425   3.148   6.568   5.966 -0.4335  0.3469 -0.1622
 6645TIP3    H141426   3.223   6.618   5.934 -0.5914 -0.7277 -2.2573
 6645TIP3    H241427   3.171   6.477   5.952 -2.3257  0.0166 -1.2931
 6646TIP3   OH241428   0.223   1.785  16.055  0.1591 -0.5655 -0.4071
 6646TIP3    H141429   0.233   1.705  16.004 -1.9657  0.0442 -1.8623
 6646TIP3    H241430   0.271   1.852  16.004 -1.5865 -0.0531 -1.4243
 6647TIP3   OH241431   5.114   4.851   3.254  0.4925  0.2325  0.0777
 6647TIP3    H141432   5.166   4.901   3.191  0.6306 -0.3627 -0.2903
 6647TIP3    H241433   5.149   4.762   3.248 -0.9506 -0.2966 -0.5937
 6648TIP3   OH241434   2.628   4.704   0.132  0.1956  0.0994  0.1716
 6648TIP3    H141435   2.584   4.619   0.136  0.4443  0.0041  0.7854
 6648TIP3    H241436   2.688   4.695   0.058 -0.5917  0.1315 -0.4917
 6649TIP3   OH241437   5.216   2.295   4.601  0.0306 -0.0131  0.1455
 6649TIP3    H141438   5.302   2.334   4.620  1.0156 -1.1339 -1.9035
 6649TIP3    H241439   5.186   2.341   4.523  1.4309 -3.5863 -2.6058
 6650TIP3   OH241440   6.470   1.786  17.141 -0.2455 -0.4305 -0.3338
 6650TIP3    H141441   6.440   1.877  17.138  0.2209 -0.2547  0.2547
 6650TIP3    H241442   6.538   1.781  17.073  0.4060 -0.0881  0.2846
 6651TIP3   OH241443   4.902   0.428   5.634 -0.1524 -0.2709  0.3325
 6651TIP3    H141444   4.874   0.404   5.722 -1.6346 -0.6182 -0.2327
 6651TIP3    H241445   4.852   0.372   5.576 -0.2095  0.9329 -0.7993
 6652TIP3   OH241446   1.059   1.767   5.462  0.0173 -0.3330 -0.0711
 6652TIP3    H141447   1.085   1.859   5.469 -2.0736  0.3789 -1.2054
 6652TIP3    H241448   1.063   1.748   5.369 -0.4720 -1.1196  0.0650
 6653TIP3   OH241449   3.091   6.800   3.891 -0.0278 -0.4067  0.0904
 6653TIP3    H141450   3.129   6.719   3.859 -0.6452  0.0227 -1.7983
 6653TIP3    H241451   3.166   6.857   3.908  0.4598 -1.6592  2.3038
 6654TIP3   OH241452   6.797   2.305  15.395 -0.3037 -0.3064 -0.2379
 6654TIP3    H141453   6.812   2.247  15.470  0.9513 -0.2106 -0.3928
 6654TIP3    H241454   6.726   2.363  15.424 -2.9203 -3.1026 -0.8005
 6655TIP3   OH241455   2.869   0.984   5.668 -0.3163 -0.1160  0.2081
 6655TIP3    H141456   2.847   0.923   5.739 -2.5347 -0.2501 -0.5323
 6655TIP3    H241457   2.886   1.067   5.713 -2.7454  0.0692  0.8677
 6656TIP3   OH241458   4.054   0.411   1.600 -0.1455  0.2447  0.0641
 6656TIP3    H141459   3.998   0.334   1.609 -0.0292  0.4059  2.6434
 6656TIP3    H241460   4.078   0.433   1.690  2.0746  1.6487 -0.8398
 6657TIP3   OH241461   0.788   6.429  16.299 -0.3330 -0.3442 -0.0139
 6657TIP3    H141462   0.826   6.510  16.336  0.2601 -0.5368 -0.1979
 6657TIP3    H241463   0.793   6.366  16.371  0.8825 -0.7387 -0.4239
 6658TIP3   OH241464   3.086   5.035  16.218  0.2452  0.1009 -0.5262
 6658TIP3    H141465   3.097   5.000  16.130 -0.1481 -1.0702 -0.1153
 6658TIP3    H241466   3.158   4.996  16.268 -0.0115  0.1235 -0.1383
 6659TIP3   OH241467   5.471   0.190   4.572 -0.1440  0.1181 -0.1417
 6659TIP3    H141468   5.496   0.172   4.663  0.3570  0.6815 -0.1634
 6659TIP3    H241469   5.423   0.112   4.545 -2.4056  0.9410  1.3692
 6660TIP3   OH241470   2.334   4.605   2.648  0.2797  0.6242 -0.0565
 6660TIP3    H141471   2.357   4.637   2.736  1.0290 -0.1912  0.0541
 6660TIP3    H241472   2.350   4.679   2.590  0.2797  1.0080  0.4323
 6661TIP3   OH241473   4.944   4.938  17.255 -0.1590 -0.0473 -0.2608
 6661TIP3    H141474   4.903   4.854  17.274  0.2304 -0.3671 -0.8336
 6661TIP3    H241475   5.025   4.916  17.210  0.3751  0.6045  0.3644
 6662TIP3   OH241476   4.573   4.446   4.153  0.0816 -0.0937  0.1460
 6662TIP3    H141477   4.575   4.542   4.150 -1.1599 -0.0610 -0.0622
 6662TIP3    H241478   4.653   4.419   4.108  0.3895  0.8425  0.1125
 6663TIP3   OH241479   0.278   5.175  12.932  0.1498  0.1053  0.2962
 6663TIP3    H141480   0.311   5.265  12.936 -0.5714  0.3028  3.3320
 6663TIP3    H241481   0.344   5.127  12.882  1.6466  1.8665  0.5317
 6664TIP3   OH241482   3.379   2.101  13.688  0.0571 -0.0239 -0.2092
 6664TIP3    H141483   3.285   2.108  13.673 -0.1773  1.3456  1.7032
 6664TIP3    H241484   3.414   2.184  13.656  0.6696 -0.6062 -1.0875
 6665TIP3   OH241485   1.483   1.152  16.372  0.1641  0.5466  0.0848
 6665TIP3    H141486   1.464   1.244  16.391 -0.5929  0.3657  0.2132
 6665TIP3    H241487   1.568   1.136  16.413 -0.3263  0.8273  1.2475
 6666TIP3   OH241488   1.717   6.742  13.455 -0.5474 -0.7684  0.3494
 6666TIP3    H141489   1.629   6.712  13.475 -1.7539 -0.1568 -3.6014
 6666TIP3    H241490   1.764   6.663  13.430 -1.2844 -0.5541 -1.8072
 6667TIP3   OH241491   2.724   1.060   4.043 -0.0079 -0.2703  0.0742
 6667TIP3    H141492   2.691   1.003   4.113 -0.8176  0.0144 -0.0665
 6667TIP3    H241493   2.799   1.105   4.082 -0.1706 -0.4575  0.6100
 6668TIP3   OH241494   1.089   3.576   3.390  0.5228 -0.6719  0.2215
 6668TIP3    H141495   1.150   3.503   3.406 -0.2969 -1.0559  1.6675
 6668TIP3    H241496   1.094   3.590   3.296  0.6394 -2.6691 -0.1048
 6669TIP3   OH241497   4.710   2.244   6.471  0.4428 -0.4367 -0.1825
 6669TIP3    H141498   4.734   2.152   6.483  1.1547 -0.3617 -0.9749
 6669TIP3    H241499   4.791   2.292   6.485  0.1561  0.0406 -0.1506
 6670TIP3   OH241500   4.501   5.465  12.722 -0.0167 -0.3318  0.2035
 6670TIP3    H141501   4.416   5.497  12.755 -0.2640  0.1675 -0.9051
 6670TIP3    H241502   4.518   5.518  12.645  1.2922 -0.4778  0.3839
 6671TIP3   OH241503   2.189   1.606   2.433  0.2028  0.1211 -0.0101
 6671TIP3    H141504   2.119   1.568   2.486  0.5448  1.0242  1.1259
 6671TIP3    H241505   2.240   1.658   2.495  1.8441 -0.4630 -0.8260
 6672TIP3   OH241506   3.104   5.784   3.728 -0.4402  0.0970 -0.3572
 6672TIP3    H141507   3.141   5.741   3.805 -0.7551  4.2713  2.2303
 6672TIP3    H241508   3.010   5.791   3.747 -0.8385 -0.5740 -2.0096
 6673TIP3   OH241509   6.034   2.995  11.780  0.0764  0.0660 -0.2987
 6673TIP3    H141510   6.076   3.065  11.830 -0.2676 -1.4773  2.2759
 6673TIP3    H241511   6.105   2.953  11.732  0.5088  1.2602 -0.6990
 6674TIP3   OH241512   1.885   4.946  16.338  0.4076  0.7648 -0.0115
 6674TIP3    H141513   1.952   4.948  16.406 -0.1914 -0.3855  0.6391
 6674TIP3    H241514   1.913   4.877  16.278 -0.9481 -0.7786  1.0892
 6675TIP3   OH241515   0.391   1.079  12.699  0.1536 -0.6153 -0.6208
 6675TIP3    H141516   0.331   1.083  12.774 -1.1927 -0.2656 -1.7031
 6675TIP3    H241517   0.433   1.165  12.698 -0.6381 -0.2278 -0.9216
 6676TIP3   OH241518   0.306   2.771  11.662  0.4914 -0.0150 -0.2359
 6676TIP3    H141519   0.270   2.841  11.716 -1.5379 -1.1893  0.0132
 6676TIP3    H241520   0.323   2.699  11.723  0.7598 -0.3936 -0.7464
 6677TIP3   OH241521   0.329   5.505   4.322  0.4016  0.2737  0.1493
 6677TIP3    H141522   0.351   5.525   4.231  2.4861 -0.2665  0.5218
 6677TIP3    H241523   0.283   5.583   4.353  2.0058  1.5243 -0.5805
 6678TIP3   OH241524   1.157   3.194   4.389 -0.1467  0.0032 -0.9077
 6678TIP3    H141525   1.099   3.128   4.426 -0.4627  1.1357  0.6875
 6678TIP3    H241526   1.245   3.164   4.411 -0.3589  1.2114  1.8270
 6679TIP3   OH241527   4.817   6.725  13.902 -0.2109 -0.5870  0.1856
 6679TIP3    H141528   4.832   6.784  13.828  0.0172 -1.0590 -0.1511
 6679TIP3    H241529   4.868   6.646  13.880 -2.3881 -1.8316 -0.5049
 6680TIP3   OH241530   5.600   3.674  14.844 -0.4126 -0.2024 -0.6864
 6680TIP3    H141531   5.684   3.647  14.881 -0.6866 -0.4047 -0.2050
 6680TIP3    H241532   5.622   3.715  14.760  0.2607  0.6716 -0.0906
 6681TIP3   OH241533   6.389   6.664   4.989  0.5527 -0.3022 -0.4357
 6681TIP3    H141534   6.356   6.754   4.999  0.2405 -0.6473  2.1920
 6681TIP3    H241535   6.426   6.643   5.075  0.6257 -2.6917 -1.0180
 6682TIP3   OH241536   1.879   6.318   2.938  0.3597  0.3451  0.1913
 6682TIP3    H141537   1.887   6.382   2.867  0.8341  0.8214  0.6689
 6682TIP3    H241538   1.898   6.234   2.897  1.3202  0.6954 -0.1101
 6683TIP3   OH241539   2.204   0.220  11.527  0.3997  0.4126 -0.0047
 6683TIP3    H141540   2.123   0.231  11.479  0.2826 -0.7561 -0.0912
 6683TIP3    H241541   2.270   0.264  11.473  0.0742  0.1252 -0.6437
 6684TIP3   OH241542   0.959   1.574  12.796 -0.4269 -0.1940  0.4106
 6684TIP3    H141543   0.958   1.536  12.708  0.4811  0.7595 -0.0204
 6684TIP3    H241544   1.028   1.640  12.793 -0.1345 -0.4118  1.9528
 6685TIP3   OH241545   3.638   0.294   6.003  0.0497  0.7558  0.0066
 6685TIP3    H141546   3.688   0.374   6.017 -0.2826  0.8257  0.7939
 6685TIP3    H241547   3.589   0.311   5.922  0.1171  1.2827  0.0731
 6686TIP3   OH241548   2.830   1.271  15.329  0.0379 -0.1948  0.1185
 6686TIP3    H141549   2.848   1.241  15.240 -0.4791 -1.2563  0.3671
 6686TIP3    H241550   2.909   1.248  15.378  0.6909  1.2092 -0.2549
 6687TIP3   OH241551   5.699   2.685   5.604 -0.1011 -0.3776 -0.0631
 6687TIP3    H141552   5.733   2.658   5.519  1.8509 -0.3667  0.6898
 6687TIP3    H241553   5.625   2.743   5.583  1.0416  0.5081 -1.7638
 6688TIP3   OH241554   1.882   1.969  13.360 -0.5412 -0.4756  0.6519
 6688TIP3    H141555   1.970   1.965  13.399  0.1756  1.2648 -0.7260
 6688TIP3    H241556   1.892   1.924  13.276 -0.6380  0.8337 -0.0730
 6689TIP3   OH241557   6.323   2.087  11.884 -0.0907  0.5917 -0.0207
 6689TIP3    H141558   6.284   2.005  11.854  1.2926  0.5356 -1.7231
 6689TIP3    H241559   6.313   2.084  11.979  0.2076 -1.6870 -0.0310
 6690TIP3   OH241560   5.010   0.302   5.040 -0.3432 -0.3574  0.1690
 6690TIP3    H141561   5.038   0.382   5.085  0.0628 -0.5039  0.1774
 6690TIP3    H241562   5.038   0.231   5.098 -0.7327 -0.5088  0.1765
 6691TIP3   OH241563   1.347   5.457   0.435 -0.0052 -0.2208 -0.3439
 6691TIP3    H141564   1.304   5.475   0.351  0.1567 -1.0519 -0.6194
 6691TIP3    H241565   1.350   5.361   0.439  0.6550 -0.1764  0.2680
 6692TIP3   OH241566   5.778   2.230  15.797 -0.3843 -0.7487 -0.0024
 6692TIP3    H141567   5.719   2.170  15.842 -1.4906  0.8979  0.8067
 6692TIP3    H241568   5.751   2.317  15.827 -0.9137  0.3848 -3.5405
 6693TIP3   OH241569   0.290   4.819  11.968 -0.0400  0.4139  0.5823
 6693TIP3    H141570   0.314   4.878  12.040 -1.3512 -0.0583  1.4318
 6693TIP3    H241571   0.275   4.877  11.893 -2.7767  1.3621  1.7956
 6694TIP3   OH241572   4.527   6.023  16.584 -0.3969 -0.5160  0.1595
 6694TIP3    H141573   4.593   5.962  16.619 -0.6734 -0.8651  0.0700
 6694TIP3    H241574   4.527   6.006  16.490 -0.8054 -0.7087  0.1915
 6695TIP3   OH241575   6.313   4.013   1.519 -0.1264  0.6257 -0.1704
 6695TIP3    H141576   6.231   4.020   1.569 -0.4775 -2.0447 -0.2565
 6695TIP3    H241577   6.292   3.951   1.448  2.4256 -1.5217  0.8672
 6696TIP3   OH241578   0.712   3.972   2.685 -0.1736  0.0412 -0.0144
 6696TIP3    H141579   0.793   3.937   2.721 -0.4067 -2.2879 -1.6296
 6696TIP3    H241580   0.733   4.063   2.662  1.6610 -0.2236  0.5323
 6697TIP3   OH241581   6.332   6.815   1.390  0.0935  0.2252  0.0762
 6697TIP3    H141582   6.288   6.824   1.474 -1.6263 -0.4203 -0.7184
 6697TIP3    H241583   6.387   6.737   1.399  2.2393  1.8576  1.5516
 6698TIP3   OH241584   0.690   6.736   5.922  0.4415  0.3809 -0.3148
 6698TIP3    H141585   0.776   6.717   5.882 -0.9226 -0.3531 -3.0464
 6698TIP3    H241586   0.640   6.655   5.910 -0.8944  1.0683  0.5672
 6699TIP3   OH241587   1.433   5.766   5.545  0.5232 -0.1487  0.1085
 6699TIP3    H141588   1.359   5.706   5.540 -0.1076  0.5699  0.5308
 6699TIP3    H241589   1.469   5.753   5.633 -0.2199  0.7818  0.5540
 6700TIP3   OH241590   2.339   1.330  12.193  0.5497  0.1614  0.2230
 6700TIP3    H141591   2.418   1.375  12.162  1.0464 -1.3194 -0.6893
 6700TIP3    H241592   2.334   1.250  12.140  0.4127 -1.5365  2.7099
 6701TIP3   OH241593   4.469   2.243   1.198  0.1133  0.3924 -0.9035
 6701TIP3    H141594   4.467   2.159   1.152  0.5510  0.7539 -1.5819
 6701TIP3    H241595   4.397   2.294   1.161  0.2284  0.5435 -0.9210
 6702TIP3   OH241596   1.707   6.424  15.275 -0.0396 -0.1302  0.2115
 6702TIP3    H141597   1.756   6.352  15.234 -1.6443 -1.6240  0.8508
 6702TIP3    H241598   1.763   6.501  15.264  0.9798 -1.1405 -1.9565
 6703TIP3   OH241599   6.466   0.373   3.643 -0.3153 -0.2360 -1.3676
 6703TIP3    H141600   6.398   0.431   3.608 -0.5991  0.6460  0.5886
 6703TIP3    H241601   6.424   0.329   3.717  0.5255 -1.4512 -1.6023
 6704TIP3   OH241602   4.163   4.983   2.146  0.0233  0.0404  0.4168
 6704TIP3    H141603   4.119   4.965   2.062  1.2094 -1.5870  0.1275
 6704TIP3    H241604   4.151   5.077   2.158  0.9853  0.5744 -2.2777
 6705TIP3   OH241605   4.074   1.642   3.195 -0.1510 -0.1765  0.3350
 6705TIP3    H141606   4.061   1.555   3.157  1.7438 -0.6235  0.6151
 6705TIP3    H241607   3.990   1.686   3.185 -0.1910 -0.8447 -2.8880
 6706TIP3   OH241608   2.485   3.764   0.375 -0.6322  0.0256  0.0044
 6706TIP3    H141609   2.518   3.844   0.417 -0.0791  0.1118 -0.5826
 6706TIP3    H241610   2.542   3.695   0.407 -1.2621 -0.1705  0.6982
 6707TIP3   OH241611   5.646   3.231  12.170 -0.6166 -0.0966 -0.1596
 6707TIP3    H141612   5.603   3.146  12.169 -0.9040  0.0514 -0.3270
 6707TIP3    H241613   5.724   3.218  12.223  0.4023 -0.9804 -1.8320
 6708TIP3   OH241614   2.650   6.579   2.119 -0.2640  0.1728  0.4714
 6708TIP3    H141615   2.651   6.498   2.170 -2.6785  0.2539  0.6927
 6708TIP3    H241616   2.567   6.620   2.141 -0.1114  1.5719 -1.4590
 6709TIP3   OH241617   6.127   4.155  13.412  0.5396 -0.1695 -0.8596
 6709TIP3    H141618   6.037   4.152  13.378 -0.2249 -0.9431  1.1608
 6709TIP3    H241619   6.121   4.116  13.499  2.8347 -0.1469 -0.6661
 6710TIP3   OH241620   1.828   5.523   5.074  0.7835 -0.3121 -0.1558
 6710TIP3    H141621   1.734   5.539   5.067  1.0709  1.9541  0.6614
 6710TIP3    H241622   1.840   5.436   5.037 -1.5058 -0.2407 -1.1969
 6711TIP3   OH241623   4.135   0.289  15.750  0.6046 -0.0430 -0.0377
 6711TIP3    H141624   4.110   0.302  15.841  2.0756 -0.6949  0.4812
 6711TIP3    H241625   4.081   0.215  15.721  3.0636 -2.5847  1.5914
 6712TIP3   OH241626   3.552   5.137   5.823  0.2202  0.0944  0.3865
 6712TIP3    H141627   3.604   5.069   5.779 -1.1760  0.5834 -2.1414
 6712TIP3    H241628   3.543   5.206   5.757 -0.3248  1.7336  2.1366
 6713TIP3   OH241629   5.006   5.675  15.695 -0.4262 -0.1666 -0.0581
 6713TIP3    H141630   4.963   5.608  15.643  0.9178 -1.1111  0.0230
 6713TIP3    H241631   5.064   5.627  15.754 -1.7188  0.8777  2.1614
 6714TIP3   OH241632   3.471   5.749  15.983 -0.3259 -0.3517  0.0730
 6714TIP3    H141633   3.480   5.843  16.000  2.2655 -0.3278 -1.1208
 6714TIP3    H241634   3.533   5.708  16.044 -0.1853 -1.1646 -0.6190
 6715TIP3   OH241635   5.431   1.455   1.603 -0.6882  0.0745  0.2908
 6715TIP3    H141636   5.456   1.493   1.519  0.5112  0.4602  0.7968
 6715TIP3    H241637   5.347   1.414   1.588 -0.6210  0.4110 -1.0211
 6716TIP3   OH241638   2.605   6.791   5.168 -0.1223  0.4659  1.0061
 6716TIP3    H141639   2.685   6.750   5.134  1.5722  2.5047  2.3891
 6716TIP3    H241640   2.550   6.803   5.091  1.0761 -0.6016 -0.0444
 6717TIP3   OH241641   5.099   0.696  12.804  0.0330 -0.2623 -0.0038
 6717TIP3    H141642   5.169   0.645  12.845  0.3644  1.0574  1.1188
 6717TIP3    H241643   5.055   0.739  12.877 -0.9565  0.1543 -0.8380
 6718TIP3   OH241644   4.141   0.280  11.552  0.2585 -1.0125  0.2192
 6718TIP3    H141645   4.211   0.224  11.520  0.1298 -0.0784 -1.7745
 6718TIP3    H241646   4.176   0.319  11.632  0.9974 -2.5918  0.6810
 6719TIP3   OH241647   1.988   3.545  15.479 -0.1556 -0.1058 -0.0895
 6719TIP3    H141648   1.923   3.498  15.426  0.3114 -0.7589 -0.0881
 6719TIP3    H241649   1.971   3.637  15.460 -0.9317 -0.2772 -0.2709
 6720TIP3   OH241650   2.113   4.637   6.709 -0.3455 -0.2638  0.1796
 6720TIP3    H141651   2.105   4.575   6.637 -0.2441 -1.5879  1.2774
 6720TIP3    H241652   2.061   4.599   6.780 -0.8452  1.2548  0.6619
 6721TIP3   OH241653   1.625   3.974   4.184 -0.1076  0.2838 -0.6765
 6721TIP3    H141654   1.637   3.960   4.278  1.9417  1.0717 -0.7993
 6721TIP3    H241655   1.534   4.004   4.176 -0.5480 -0.5601  0.9471
 6722TIP3   OH241656   6.506   2.577  14.612 -0.0621 -0.0007 -0.6288
 6722TIP3    H141657   6.591   2.544  14.583  0.4681  2.3229 -1.8154
 6722TIP3    H241658   6.443   2.539  14.551  0.5599  1.2576 -2.0703
 6723TIP3   OH241659   1.960   1.172  16.518 -0.3550  0.1576 -0.1415
 6723TIP3    H141660   1.989   1.086  16.488 -0.5790 -0.2431  0.7954
 6723TIP3    H241661   1.866   1.174  16.499  0.1336  1.3128 -2.8260
 6724TIP3   OH241662   3.456   0.961  12.554 -0.1369 -0.1795 -0.8128
 6724TIP3    H141663   3.440   0.961  12.648 -1.0979  0.5125 -0.9619
 6724TIP3    H241664   3.550   0.978  12.545  0.1400 -1.2646  0.0378
 6725TIP3   OH241665   2.576   2.197  15.927  0.3815  0.3700  0.2875
 6725TIP3    H141666   2.610   2.283  15.954  0.2036  0.2207  1.0068
 6725TIP3    H241667   2.554   2.208  15.834 -1.0752  1.5665  0.7400
 6726TIP3   OH241668   2.350   0.011  11.674 -0.1153 -0.0005  0.4895
 6726TIP3    H141669   2.442   0.008  11.646  0.1287  1.3617  1.1024
 6726TIP3    H241670   2.304   0.052  11.601 -0.1938 -0.4333  0.2951
 6727TIP3   OH241671   2.033   5.902   2.903 -0.2511 -0.2334  0.4892
 6727TIP3    H141672   2.119   5.927   2.937 -1.1030  0.9532  1.8175
 6727TIP3    H241673   2.019   5.813   2.935  0.8288 -0.7580 -0.4485
 6728TIP3   OH241674   4.654   0.152   0.706  0.6415 -0.2732 -0.0150
 6728TIP3    H141675   4.582   0.089   0.699 -1.1828  1.8571 -1.2989
 6728TIP3    H241676   4.733   0.099   0.695 -0.8982 -2.0553 -3.1852
 6729TIP3   OH241677   1.538   3.761   3.276 -0.2388  0.4579 -0.1159
 6729TIP3    H141678   1.501   3.680   3.241  1.5420 -0.5466  0.2578
 6729TIP3    H241679   1.599   3.791   3.209  1.9936 -0.6128  1.3870
 6730TIP3   OH241680   4.872   0.592   5.405 -0.1959  0.5515  0.2392
 6730TIP3    H141681   4.968   0.587   5.401 -0.2442  0.7430 -1.6772
 6730TIP3    H241682   4.852   0.582   5.498  1.7062  0.8811  0.7239
 6731TIP3   OH241683   5.089   2.722  11.905  0.4204 -0.1390  0.1862
 6731TIP3    H141684   5.176   2.696  11.872 -0.2945 -0.8081 -1.2148
 6731TIP3    H241685   5.089   2.817  11.900  0.7855 -0.1718 -0.5966
 6732TIP3   OH241686   1.111   1.598  16.285 -0.1921 -0.4875 -0.0244
 6732TIP3    H141687   1.063   1.662  16.232 -0.1688  0.9990  1.7050
 6732TIP3    H241688   1.043   1.553  16.335 -0.0454 -0.5252  0.1395
 6733TIP3   OH241689   1.058   6.669  14.158  0.6282  0.1378  0.2238
 6733TIP3    H141690   1.032   6.758  14.135  1.0972  0.0706 -0.6027
 6733TIP3    H241691   0.986   6.636  14.212  0.2241  0.8507  0.1217
 6734TIP3   OH241692   0.905   2.808  16.808 -0.5864  0.3249 -0.3373
 6734TIP3    H141693   0.934   2.885  16.761  0.5947  0.3016  0.3395
 6734TIP3    H241694   0.809   2.816  16.811 -0.5421  1.1761 -1.2482
 6735TIP3   OH241695   3.415   0.373  16.881 -0.0136 -1.1606  0.0871
 6735TIP3    H141696   3.457   0.317  16.816  1.2149  0.6262 -0.6963
 6735TIP3    H241697   3.467   0.362  16.960  1.1872  0.0778 -0.5210
 6736TIP3   OH241698   1.142   0.340   6.305 -0.1185 -0.2564  0.2260
 6736TIP3    H141699   1.121   0.351   6.398 -0.1215 -1.4110  0.3589
 6736TIP3    H241700   1.059   0.355   6.260  0.2888  2.3416  0.2437
 6737TIP3   OH241701   2.333   3.764   0.778  0.1648  0.1448 -0.5311
 6737TIP3    H141702   2.288   3.824   0.718  0.3648  0.0583 -0.7651
 6737TIP3    H241703   2.345   3.684   0.727 -3.1780 -1.3186  0.8241
 6738TIP3   OH241704   6.796   2.162  17.064 -0.2294 -0.3327 -0.0716
 6738TIP3    H141705   6.750   2.231  17.016  1.0193  1.1309  0.7845
 6738TIP3    H241706   6.885   2.162  17.027  0.1087 -0.7020  0.7187
 6739TIP3   OH241707   1.416   5.214  12.947  0.1768 -0.5016 -0.0370
 6739TIP3    H141708   1.455   5.172  12.870  0.3656 -1.5299  0.6008
 6739TIP3    H241709   1.353   5.276  12.912  1.8802  0.6857 -1.0792
 6740TIP3   OH241710   3.845   4.180  11.827  0.0218 -0.2839  0.0383
 6740TIP3    H141711   3.777   4.221  11.880  0.8413  1.5447 -0.2755
 6740TIP3    H241712   3.830   4.212  11.738  1.6625  0.7084  0.0805
 6741TIP3   OH241713   2.677   3.483   0.707 -0.4872 -0.0105 -0.0183
 6741TIP3    H141714   2.644   3.570   0.729  0.0426  0.5578 -1.3949
 6741TIP3    H241715   2.670   3.478   0.612 -0.2397 -1.3648  0.0219
 6742TIP3   OH241716   0.526   2.828   1.828  0.2256  0.4091 -0.1602
 6742TIP3    H141717   0.487   2.869   1.751 -0.3499 -1.1473 -0.7181
 6742TIP3    H241718   0.588   2.765   1.793  0.2078 -0.0767  0.6643
 6743TIP3   OH241719   5.345   6.718   5.111 -0.2310  0.0200  0.3702
 6743TIP3    H141720   5.336   6.692   5.019 -0.1987 -0.5066  0.5103
 6743TIP3    H241721   5.342   6.635   5.159  0.4363  0.2377  0.7949
 6744TIP3   OH241722   0.105   1.892   4.309  0.2095  0.9003 -0.0696
 6744TIP3    H141723   0.026   1.944   4.294 -0.9102  0.1147  2.8755
 6744TIP3    H241724   0.086   1.807   4.269  0.3160  1.3207 -1.0200
 6745TIP3   OH241725   3.793   6.741   1.998  0.6947  0.5915  0.3080
 6745TIP3    H141726   3.830   6.775   1.917 -1.3939  1.1387 -0.4414
 6745TIP3    H241727   3.868   6.730   2.056  2.2955 -0.5010 -1.9309
 6746TIP3   OH241728   1.137   3.956  14.815  0.2333  0.3509 -0.0451
 6746TIP3    H141729   1.054   3.918  14.845 -0.9024  1.7458 -1.3811
 6746TIP3    H241730   1.145   4.038  14.863  0.0529  0.9889 -1.1022
 6747TIP3   OH241731   5.360   3.851  16.801  0.7037  0.0390 -0.5066
 6747TIP3    H141732   5.386   3.922  16.860  1.8420 -0.8720  0.0888
 6747TIP3    H241733   5.442   3.819  16.764  0.1969 -0.9588 -0.7820
 6748TIP3   OH241734   3.141   5.305  14.359  0.1040 -0.2755 -0.2208
 6748TIP3    H141735   3.206   5.347  14.302  0.0206  0.8400  0.4942
 6748TIP3    H241736   3.187   5.230  14.397  0.6307 -0.1238 -0.5540
 6749TIP3   OH241737   2.034   1.606  10.924 -0.1784  0.4070 -0.3966
 6749TIP3    H141738   1.946   1.640  10.909  0.2008  0.6569 -2.0995
 6749TIP3    H241739   2.067   1.657  10.998 -1.2930  0.6019 -0.0214
 6750TIP3   OH241740   0.890   1.286  15.760 -0.2651  0.4549  0.0629
 6750TIP3    H141741   0.851   1.199  15.770 -0.5420  0.3017 -2.1168
 6750TIP3    H241742   0.908   1.315  15.850 -2.8903 -0.5931  0.9714
 6751TIP3   OH241743   6.548   6.188   4.452  0.4150  0.2482 -0.4246
 6751TIP3    H141744   6.626   6.223   4.495  1.1093 -0.5611 -1.0220
 6751TIP3    H241745   6.572   6.099   4.427  0.3273  0.9838 -3.3037
 6752TIP3   OH241746   2.442   6.435  16.160  0.9546 -0.4356  0.1267
 6752TIP3    H141747   2.414   6.384  16.236  2.9657 -0.3302  0.9901
 6752TIP3    H241748   2.475   6.370  16.098  2.1658 -0.3104  0.6268
 6753TIP3   OH241749   0.817   2.670  11.758  0.0726 -0.0849 -0.2908
 6753TIP3    H141750   0.734   2.623  11.769  0.0275  0.5038  2.2597
 6753TIP3    H241751   0.795   2.762  11.774  1.4593 -0.0993  1.8865
 6754TIP3   OH241752   2.855   0.354  14.716  0.2163 -0.1891 -0.2070
 6754TIP3    H141753   2.897   0.304  14.787 -0.7947 -0.1828  0.4100
 6754TIP3    H241754   2.803   0.289  14.669 -1.8899  0.4251  1.1972
 6755TIP3   OH241755   6.423   3.095  12.101 -0.1081 -0.0340  0.3381
 6755TIP3    H141756   6.443   3.140  12.183 -1.6071  0.3805  0.4927
 6755TIP3    H241757   6.327   3.086  12.101  0.0074 -1.5726 -0.5506
 6756TIP3   OH241758   5.725   5.616  16.047  0.0885  0.1911  0.4074
 6756TIP3    H141759   5.814   5.652  16.042  0.3370 -0.1359  2.2131
 6756TIP3    H241760   5.668   5.692  16.041  0.4480  0.3458 -1.4718
 6757TIP3   OH241761   2.069   2.289   2.926  0.0362 -0.2742  0.3439
 6757TIP3    H141762   2.019   2.319   3.003  0.7397  1.8726 -0.0193
 6757TIP3    H241763   2.079   2.195   2.940 -2.4700 -0.4355  1.3730
 6758TIP3   OH241764   4.165   5.277  12.415  0.5713 -0.4831  0.1064
 6758TIP3    H141765   4.189   5.369  12.423 -0.8983  0.1556 -2.3160
 6758TIP3    H241766   4.091   5.265  12.474 -1.3484  0.7462 -1.9725
 6759TIP3   OH241767   1.127   3.384  14.978 -0.0703 -0.2210  0.0579
 6759TIP3    H141768   1.113   3.290  14.990  0.7052 -0.6364 -2.0121
 6759TIP3    H241769   1.063   3.409  14.911  1.8095  0.0796 -1.6394
 6760TIP3   OH241770   1.829   1.123   5.668  0.6350 -0.1346  0.5063
 6760TIP3    H141771   1.812   1.202   5.720 -0.3968  0.7368 -1.0858
 6760TIP3    H241772   1.923   1.125   5.651  0.8000  0.1446  1.4345
 6761TIP3   OH241773   0.916   6.630   5.052 -0.1760 -0.1451  0.6763
 6761TIP3    H141774   0.965   6.557   5.016 -0.1797  0.9144 -1.5296
 6761TIP3    H241775   0.837   6.591   5.089  0.3615 -1.3731  0.5516
 6762TIP3   OH241776   0.019   0.954   2.069  0.4467  0.3327 -0.3630
 6762TIP3    H141777  -0.005   1.046   2.065 -1.5751 -0.1566 -0.0778
 6762TIP3    H241778  -0.009   0.918   1.985 -0.0721 -0.3107  0.0780
 6763TIP3   OH241779   0.790   6.502  17.273 -0.1893  0.2639  0.2807
 6763TIP3    H141780   0.714   6.554  17.245 -1.0806 -0.6903  0.8981
 6763TIP3    H241781   0.863   6.535  17.220 -0.8773  1.7117  0.2198
 6764TIP3   OH241782   5.516   1.945   6.355  0.5255 -0.3717  0.3694
 6764TIP3    H141783   5.558   1.995   6.425  1.5129 -0.4806 -0.1375
 6764TIP3    H241784   5.580   1.878   6.331  0.0606 -0.5434 -0.4083
 6765TIP3   OH241785   0.789   4.805  15.261  0.5303 -0.3213  0.9711
 6765TIP3    H141786   0.741   4.879  15.298  1.0648  1.4107 -1.6997
 6765TIP3    H241787   0.876   4.839  15.244  0.2647 -1.0225 -1.9549
 6766TIP3   OH241788   1.534   3.245   5.043 -0.0373  0.4185  0.5312
 6766TIP3    H141789   1.555   3.152   5.043  0.9783  0.6273 -0.5992
 6766TIP3    H241790   1.616   3.287   5.069  0.4311  1.1604 -2.0404
 6767TIP3   OH241791   1.293   5.542  11.650  0.3340 -0.0151 -0.3578
 6767TIP3    H141792   1.328   5.463  11.691  0.0538 -0.5602 -1.1587
 6767TIP3    H241793   1.269   5.598  11.724 -0.1192 -0.9587  0.2235
 6768TIP3   OH241794   6.584   0.894  11.773  0.0059 -0.5035 -0.2541
 6768TIP3    H141795   6.520   0.903  11.703 -0.2882 -2.0238 -0.1842
 6768TIP3    H241796   6.669   0.909  11.730 -0.0424 -3.0243 -1.2801
 6769TIP3   OH241797   4.910   0.941  14.068 -0.4291 -0.4568  0.2773
 6769TIP3    H141798   4.876   0.922  14.156 -1.1139  0.4446  0.2082
 6769TIP3    H241799   4.842   0.993  14.026  0.3188 -0.0465 -0.4460
 6770TIP3   OH241800   1.997   0.777   3.894  0.6999 -0.4435  0.0807
 6770TIP3    H141801   2.001   0.727   3.976  0.1604  1.4001  1.2551
 6770TIP3    H241802   2.056   0.731   3.835 -1.2490 -3.6118  0.4802
 6771TIP3   OH241803   3.731   6.364   3.817 -0.5128  0.1990  0.1088
 6771TIP3    H141804   3.723   6.269   3.815 -1.2705  0.1104  4.0381
 6771TIP3    H241805   3.822   6.381   3.842 -0.3226  0.5312 -0.7845
 6772TIP3   OH241806   6.025   2.973  12.835  0.2235  0.3204  0.1328
 6772TIP3    H141807   5.963   2.955  12.764  0.0850  0.5886  0.1847
 6772TIP3    H241808   6.108   2.992  12.790  0.8684 -2.3158  0.1314
 6773TIP3   OH241809   5.340   1.767  14.850  0.5337  1.1703 -0.5150
 6773TIP3    H141810   5.349   1.861  14.832  1.1317  1.3836  0.7977
 6773TIP3    H241811   5.377   1.756  14.938  0.9732 -0.3941 -0.8735
 6774TIP3   OH241812   0.784   6.249   1.891  0.6359 -0.3141  0.4830
 6774TIP3    H141813   0.699   6.287   1.869  1.0200  0.3427  0.1050
 6774TIP3    H241814   0.766   6.158   1.910  0.0172 -0.4769 -0.8393
 6775TIP3   OH241815   0.725   1.856   0.157  0.0282 -0.0773  0.8836
 6775TIP3    H141816   0.689   1.839   0.070  0.5902  1.4266  0.3401
 6775TIP3    H241817   0.654   1.833   0.217 -0.9653  0.4826 -0.0590
 6776TIP3   OH241818   0.217   5.739  15.626 -0.4713 -0.4348  0.0210
 6776TIP3    H141819   0.161   5.816  15.614  0.0250 -0.3935 -2.2372
 6776TIP3    H241820   0.300   5.774  15.658 -1.4877 -0.4517  2.9056
 6777TIP3   OH241821   0.583   6.542   6.237  0.2051  0.7240 -0.0085
 6777TIP3    H141822   0.584   6.464   6.292 -0.6234 -0.4071 -1.5385
 6777TIP3    H241823   0.662   6.533   6.183  0.4828  1.3135  0.2972
 6778TIP3   OH241824   2.950   4.299  17.131  0.6755 -0.2685  0.3668
 6778TIP3    H141825   2.872   4.288  17.185  0.7074 -0.9219  0.2820
 6778TIP3    H241826   2.975   4.210  17.106  1.0708 -0.0199 -0.1433
 6779TIP3   OH241827   0.918   4.120  12.148  0.1340  0.0382 -0.2443
 6779TIP3    H141828   0.996   4.066  12.135  0.3439  0.2439  0.1539
 6779TIP3    H241829   0.867   4.108  12.068  1.5102  1.4519 -1.3646
 6780TIP3   OH241830   6.277   1.490   2.941 -0.3193 -0.6720  0.1105
 6780TIP3    H141831   6.204   1.431   2.960 -1.6724  0.5496 -1.1580
 6780TIP3    H241832   6.345   1.433   2.905 -0.5847 -1.8446  1.4504
 6781TIP3   OH241833   6.597   0.498  16.489 -0.2001 -0.3476  0.1405
 6781TIP3    H141834   6.614   0.588  16.464 -0.5310 -0.3288 -0.0191
 6781TIP3    H241835   6.535   0.465  16.423  0.8986 -1.0778 -0.5418
 6782TIP3   OH241836   4.656   2.946   3.523  0.0867 -0.0195 -0.1485
 6782TIP3    H141837   4.673   2.938   3.617 -1.5159  0.9617  0.2503
 6782TIP3    H241838   4.705   2.874   3.484  1.2171 -0.1177  1.3788
 6783TIP3   OH241839   4.471   0.902   5.811 -0.1124 -0.0542 -0.0330
 6783TIP3    H141840   4.390   0.873   5.853  0.5674  0.2036  1.4810
 6783TIP3    H241841   4.541   0.870   5.868  0.7756  1.4474 -0.2544
 6784TIP3   OH241842   4.795   3.697   0.017 -0.2454  0.4417 -0.1110
 6784TIP3    H141843   4.890   3.711   0.021 -0.0240 -0.9359 -0.3496
 6784TIP3    H241844   4.774   3.654   0.100 -0.9538  2.3254  0.7140
 6785TIP3   OH241845   3.931   0.171   0.540 -0.0565 -0.0631  0.3323
 6785TIP3    H141846   3.949   0.255   0.582  1.1335  1.1499 -2.4927
 6785TIP3    H241847   3.991   0.110   0.584  1.0952  1.1388  0.4601
 6786TIP3   OH241848   1.080   2.380  14.433  0.0727  0.1511  0.7622
 6786TIP3    H141849   1.026   2.336  14.499  1.1959 -2.8278 -0.1917
 6786TIP3    H241850   1.024   2.388  14.357 -0.0136 -0.0837  0.7985
 6787TIP3   OH241851   0.870   4.282  16.562  0.0917  0.3620 -0.1438
 6787TIP3    H141852   0.798   4.338  16.533 -0.6935 -0.7871 -0.4185
 6787TIP3    H241853   0.884   4.306  16.654 -1.2199 -0.0375  0.1597
 6788TIP3   OH241854   2.737   4.686   4.415 -0.4970  0.0045 -0.5682
 6788TIP3    H141855   2.665   4.692   4.478 -0.4619 -0.0245 -0.5261
 6788TIP3    H241856   2.779   4.603   4.434 -1.7438 -0.9870 -1.9593
 6789TIP3   OH241857   0.464   2.625   4.219 -0.1055  0.4307  0.4216
 6789TIP3    H141858   0.412   2.544   4.227  1.5895 -0.4885  2.7911
 6789TIP3    H241859   0.417   2.689   4.273  0.2030  0.1329  1.0498
 6790TIP3   OH241860   5.400   6.588  12.977 -0.3938  0.2901  0.2082
 6790TIP3    H141861   5.387   6.502  13.019 -1.6500  0.3571 -0.0394
 6790TIP3    H241862   5.401   6.650  13.050  2.9063 -0.1457  0.6267
 6791TIP3   OH241863   3.732   5.833  11.075  0.2380  0.0255 -0.2550
 6791TIP3    H141864   3.665   5.826  11.008  0.7415 -1.7889 -0.6097
 6791TIP3    H241865   3.695   5.892  11.141 -1.6610 -0.8971 -0.4658
 6792TIP3   OH241866   2.801   6.375  11.289  0.2353 -0.6485  0.1332
 6792TIP3    H141867   2.837   6.400  11.374 -0.0826  1.3613 -0.2970
 6792TIP3    H241868   2.877   6.370  11.232  0.3926 -1.4857  0.4144
 6793TIP3   OH241869   4.569   1.016  16.296 -0.1699  0.6314  0.1246
 6793TIP3    H141870   4.581   1.108  16.318 -1.7757  0.6041  1.1220
 6793TIP3    H241871   4.596   1.010  16.204 -0.6461  2.2102 -0.1312
 6794TIP3   OH241872   4.261   2.000  13.662  0.5334  0.3402  0.1776
 6794TIP3    H141873   4.345   2.006  13.618  0.6094  1.5862  0.4797
 6794TIP3    H241874   4.265   2.065  13.732  0.1609 -1.1374  1.6088
 6795TIP3   OH241875   2.188   5.406  14.016  0.0728  0.0111  0.3207
 6795TIP3    H141876   2.144   5.463  13.954  0.1555  0.1022  0.3463
 6795TIP3    H241877   2.138   5.324  14.012 -0.9278  0.5510  1.3375
 6796TIP3   OH241878   2.464   1.092   2.484 -0.5524  0.4971 -0.0350
 6796TIP3    H141879   2.486   1.067   2.574 -1.6605 -2.1477 -0.4741
 6796TIP3    H241880   2.548   1.093   2.439 -0.1442  0.5901  0.7112
 6797TIP3   OH241881   1.762   1.326  14.807  0.3676  0.5193 -0.2079
 6797TIP3    H141882   1.681   1.312  14.856  0.9935  0.0011  0.6935
 6797TIP3    H241883   1.738   1.307  14.717 -0.9595  2.0825 -0.2144
 6798TIP3   OH241884   0.039   6.588  16.884 -0.2414  0.1839 -0.3433
 6798TIP3    H141885   0.072   6.643  16.955 -3.0439 -0.0698  1.2082
 6798TIP3    H241886  -0.055   6.581  16.900 -0.4497 -2.3908 -2.3615
 6799TIP3   OH241887   0.781   4.450   1.492  0.6279  0.3121  0.3126
 6799TIP3    H141888   0.766   4.392   1.418 -1.8942 -1.9900  2.5348
 6799TIP3    H241889   0.723   4.524   1.476 -0.9740 -0.8468  0.6635
 6800TIP3   OH241890   1.992   1.283  15.255  0.1131 -0.2415 -0.5495
 6800TIP3    H141891   1.931   1.338  15.305 -0.9705 -0.9159 -1.1149
 6800TIP3    H241892   1.983   1.196  15.293 -0.1233 -0.5868 -1.3696
 6801TIP3   OH241893   2.811   5.659   5.933  0.3315 -0.1200  0.0779
 6801TIP3    H141894   2.842   5.652   5.843 -1.4327  2.2186 -0.7837
 6801TIP3    H241895   2.886   5.691   5.982  0.7260  0.6261 -0.9878
 6802TIP3   OH241896   1.216   3.686  13.911  0.1274 -0.0470  0.3491
 6802TIP3    H141897   1.164   3.669  13.833 -0.2158  0.6955  0.4137
 6802TIP3    H241898   1.169   3.642  13.982 -0.9111  1.3615  0.5640
 6803TIP3   OH241899   0.963   5.107  12.153  0.0650  0.1300  0.3016
 6803TIP3    H141900   1.051   5.084  12.180 -0.3061 -0.7062  0.8438
 6803TIP3    H241901   0.974   5.179  12.091  1.2265 -1.0102 -0.8415
 6804TIP3   OH241902   5.567   1.022   4.614  0.5466 -0.4740 -0.5641
 6804TIP3    H141903   5.576   0.974   4.696 -0.6631 -1.2923 -0.8985
 6804TIP3    H241904   5.613   1.104   4.629 -2.7765  0.9678  2.1822
 6805TIP3   OH241905   2.313   3.908   4.205 -0.3358 -1.1117 -0.0998
 6805TIP3    H141906   2.399   3.885   4.169 -1.0303 -1.7878 -1.3833
 6805TIP3    H241907   2.274   3.824   4.228 -0.0579 -0.7098  1.9409
 6806TIP3   OH241908   4.102   6.638   5.241 -0.5515 -0.3589 -0.3848
 6806TIP3    H141909   4.140   6.555   5.212 -0.1702 -0.1428 -0.5080
 6806TIP3    H241910   4.177   6.690   5.270 -0.7084  0.2110 -0.9821
 6807TIP3   OH241911   5.155   1.319  12.813  0.0977  0.5843 -0.1270
 6807TIP3    H141912   5.123   1.409  12.810 -1.7193  0.1025  2.7675
 6807TIP3    H241913   5.077   1.265  12.806  0.8074 -0.7168  1.5807
 6808TIP3   OH241914   6.467   0.453  14.895  0.0259  0.2071  0.5128
 6808TIP3    H141915   6.545   0.406  14.924 -0.7078 -2.7022 -1.9073
 6808TIP3    H241916   6.396   0.418  14.950 -0.5080 -1.5764 -1.2397
 6809TIP3   OH241917   4.994   3.226  16.818 -0.1659  0.3903 -0.0046
 6809TIP3    H141918   5.069   3.280  16.793  0.0931 -0.1388 -0.3818
 6809TIP3    H241919   5.026   3.136  16.813 -0.2626  0.2412  1.7370
 6810TIP3   OH241920   5.672   6.554   5.174 -0.2240  1.0348 -0.1308
 6810TIP3    H141921   5.597   6.569   5.117  0.8706  1.5324 -1.4664
 6810TIP3    H241922   5.714   6.476   5.139  0.8853  1.7803 -0.4805
 6811TIP3   OH241923   5.866   3.060   1.653 -0.6277 -0.4835  0.4456
 6811TIP3    H141924   5.879   3.070   1.558  0.2792  0.1020  0.6230
 6811TIP3    H241925   5.833   2.971   1.663  0.1794 -0.8793 -0.3374
 6812TIP3   OH241926   3.516   4.083  16.925  0.1823 -0.8455 -0.1274
 6812TIP3    H141927   3.572   4.145  16.879  0.6359 -1.3772 -0.3128
 6812TIP3    H241928   3.433   4.128  16.936  1.1867  0.6434  1.7135
 6813TIP3   OH241929   6.359   3.802   0.411  0.3933 -0.0443 -0.1835
 6813TIP3    H141930   6.281   3.857   0.403  0.9004  0.4692 -1.8776
 6813TIP3    H241931   6.426   3.859   0.447  0.3236 -0.1597  0.1327
 6814TIP3   OH241932   5.898   0.261  12.079 -0.4758  0.0591 -0.2312
 6814TIP3    H141933   5.857   0.319  12.143 -0.6666 -1.5338  1.1194
 6814TIP3    H241934   5.991   0.285  12.080 -0.5089  0.1726  0.5132
 6815TIP3   OH241935   1.706   5.410   0.257 -0.1061  0.6588  0.0133
 6815TIP3    H141936   1.785   5.422   0.310 -0.0299  1.5309 -0.2832
 6815TIP3    H241937   1.650   5.355   0.310 -1.1339  3.6886  2.2040
 6816TIP3   OH241938   0.570   6.422   5.595 -0.2966 -0.0960  0.1146
 6816TIP3    H141939   0.606   6.369   5.524 -1.2696 -2.4248  1.2994
 6816TIP3    H241940   0.646   6.441   5.651 -0.2240 -1.9566  0.7062
 6817TIP3   OH241941   3.915   0.829   2.788  0.0157  0.3690 -0.0003
 6817TIP3    H141942   3.956   0.898   2.841 -0.0863  0.2315  0.2620
 6817TIP3    H241943   3.988   0.775   2.758 -0.0990 -1.1100  2.2092
 6818TIP3   OH241944   4.104   1.666  14.152 -1.0505 -0.4165 -0.1002
 6818TIP3    H141945   4.156   1.745  14.170 -0.0391 -1.3069  0.9330
 6818TIP3    H241946   4.020   1.700  14.123 -0.9727  1.0736  1.2996
 6819TIP3   OH241947   5.792   2.736  16.337 -0.4864 -0.3204 -0.0913
 6819TIP3    H141948   5.813   2.652  16.376 -2.5270 -0.9228 -0.2230
 6819TIP3    H241949   5.777   2.794  16.412  1.1009 -0.0108  0.0010
 6820TIP3   OH241950   2.614   4.695  16.278  0.3506  0.1212  0.6212
 6820TIP3    H141951   2.690   4.738  16.316 -0.6356  1.3855  1.1896
 6820TIP3    H241952   2.644   4.664  16.192  1.1027  1.8482  0.2497
 6821TIP3   OH241953   1.970   5.151  11.366  0.0804 -0.1681  0.0203
 6821TIP3    H141954   2.031   5.155  11.291  1.5555 -0.0154  1.2064
 6821TIP3    H241955   1.914   5.076  11.346  0.5667 -0.2355 -1.1691
 6822TIP3   OH241956   3.562   1.392   0.882  0.2638  0.0124  0.3322
 6822TIP3    H141957   3.620   1.362   0.952 -0.3575  0.4334  1.0339
 6822TIP3    H241958   3.507   1.316   0.863  0.7678 -0.2601 -0.0532
 6823TIP3   OH241959   5.799   5.872  12.524  0.0982  0.2571  0.8274
 6823TIP3    H141960   5.720   5.873  12.578 -0.7083  1.5647 -0.3337
 6823TIP3    H241961   5.810   5.780  12.500 -3.0192  0.4658 -1.7266
 6824TIP3   OH241962   1.280   4.852   4.614  0.3013  0.0479 -0.0788
 6824TIP3    H141963   1.269   4.791   4.687 -2.1333  1.7451  1.0425
 6824TIP3    H241964   1.373   4.873   4.615  0.7695 -1.8882  0.9385
 6825TIP3   OH241965   2.633   5.579   4.984 -0.0541  0.2169 -0.2583
 6825TIP3    H141966   2.699   5.514   5.006  0.8962  0.6236 -1.7932
 6825TIP3    H241967   2.609   5.560   4.894  0.9952  2.5739 -1.0906
 6826TIP3   OH241968   1.092   0.542   1.164  0.9594  0.0693  0.3581
 6826TIP3    H141969   1.099   0.516   1.255 -2.2356 -0.2512  0.5697
 6826TIP3    H241970   1.076   0.460   1.117  0.0499  0.5354 -0.1519
 6827TIP3   OH241971   4.480   2.141   2.875 -0.6463  0.0106  0.0312
 6827TIP3    H141972   4.497   2.055   2.836 -3.2472 -0.3123 -0.4678
 6827TIP3    H241973   4.498   2.128   2.968 -1.2663 -1.1457 -0.0046
 6828TIP3   OH241974   3.795   0.805   1.137 -0.5397 -0.3713 -0.2041
 6828TIP3    H141975   3.882   0.835   1.112 -0.3543 -1.0925 -0.4478
 6828TIP3    H241976   3.742   0.815   1.058 -0.5749 -0.3310 -0.1757
 6829TIP3   OH241977   1.536   2.205  11.986 -0.2193  0.5575 -0.0916
 6829TIP3    H141978   1.582   2.233  12.066  1.0040  0.5361 -0.7653
 6829TIP3    H241979   1.591   2.135  11.951 -0.4144  0.9904 -1.2796
 6830TIP3   OH241980   5.238   3.034   1.467  0.1155  0.0822  0.1219
 6830TIP3    H141981   5.327   3.064   1.448 -0.4588  1.0823 -1.1097
 6830TIP3    H241982   5.182   3.108   1.443 -0.9494  0.0670  2.4271
 6831TIP3   OH241983   6.502   4.140   5.031  0.0805  0.4626  0.3183
 6831TIP3    H141984   6.472   4.170   5.117  1.0834  3.7339 -0.4021
 6831TIP3    H241985   6.423   4.137   4.977 -0.5677 -1.6997  1.3251
 6832TIP3   OH241986   2.183   2.422  12.318  0.5112 -0.4593  0.0580
 6832TIP3    H141987   2.162   2.502  12.270 -0.4831 -1.1534 -0.7018
 6832TIP3    H241988   2.270   2.397  12.286  1.0769  0.6059  0.7169
 6833TIP3   OH241989   6.771   4.093  10.619  0.0135  0.2610  0.3756
 6833TIP3    H141990   6.737   4.007  10.595 -0.5537  0.5574  0.0997
 6833TIP3    H241991   6.704   4.130  10.677 -0.6889  1.2998 -1.0557
 6834TIP3   OH241992   0.542   1.029  11.552  0.4479 -0.3389 -0.1309
 6834TIP3    H141993   0.575   0.968  11.618  0.8274 -0.2226 -0.2119
 6834TIP3    H241994   0.452   1.048  11.580  0.3794 -0.8114 -0.0206
 6835TIP3   OH241995   0.587   2.929   5.724 -0.6207 -0.2694 -0.4814
 6835TIP3    H141996   0.618   2.915   5.814  0.7990 -0.7012 -1.0200
 6835TIP3    H241997   0.504   2.881   5.720 -0.1336 -1.2156  0.2748
 6836TIP3   OH241998   3.069   3.729   4.831 -0.1454 -0.4962  0.3585
 6836TIP3    H141999   3.129   3.751   4.902  0.7424 -1.9114  0.0520
 6836TIP3    H242000   3.038   3.641   4.852 -1.8930  0.1040  0.3617
 6837TIP3   OH242001   5.417   2.496  12.689  0.8879 -0.1430 -0.0147
 6837TIP3    H142002   5.435   2.457  12.603 -0.5294 -0.6185 -0.1067
 6837TIP3    H242003   5.463   2.439  12.750 -0.8004 -1.7315 -0.1909
 6838TIP3   OH242004   5.031   2.638  12.653  0.1428  0.4293 -0.3431
 6838TIP3    H142005   5.086   2.614  12.727  0.0613 -1.3079 -0.8316
 6838TIP3    H242006   5.085   2.698  12.601  0.8461  0.2524  0.1879
 6839TIP3   OH242007   3.728   6.741   4.175  0.5199 -0.2032 -0.2367
 6839TIP3    H142008   3.668   6.688   4.122 -0.2497 -0.4959  0.9170
 6839TIP3    H242009   3.773   6.677   4.231  0.0685  0.2995  0.6957
 6840TIP3   OH242010   2.602   6.380   3.771 -0.2888  0.6443  0.2128
 6840TIP3    H142011   2.597   6.460   3.823 -0.2429  1.5205 -1.1028
 6840TIP3    H242012   2.522   6.332   3.792 -0.7439  1.4538  0.3432
 6841TIP3   OH242013   6.442   6.429   2.042  0.3171  0.5009 -0.2227
 6841TIP3    H142014   6.418   6.499   1.981  1.2089 -0.1601 -1.3458
 6841TIP3    H242015   6.374   6.433   2.110  1.1312  3.3726  0.5090
 6842TIP3   OH242016   6.571   2.110   5.418 -0.0716  0.4655  0.1813
 6842TIP3    H142017   6.516   2.046   5.463  1.0568  0.8139  2.1079
 6842TIP3    H242018   6.510   2.160   5.364 -1.4024 -0.2156  1.0260
 6843TIP3   OH242019   3.698   2.950  15.660 -0.9858 -0.5552 -0.3369
 6843TIP3    H142020   3.687   2.880  15.724 -1.3867 -0.9002 -0.7842
 6843TIP3    H242021   3.715   2.905  15.577 -0.2184 -0.1046 -0.4280
 6844TIP3   OH242022   1.401   0.597   3.616 -0.2699 -0.6745 -0.5027
 6844TIP3    H142023   1.472   0.540   3.644 -0.5667 -0.5092  0.5914
 6844TIP3    H242024   1.423   0.619   3.525  0.6496 -1.2694 -0.4315
 6845TIP3   OH242025   1.056   6.788  12.566  0.0692 -0.2441  0.2915
 6845TIP3    H142026   1.065   6.713  12.507 -3.1544  0.0666 -0.6907
 6845TIP3    H242027   1.012   6.854  12.513 -1.1012  0.7556  2.4551
 6846TIP3   OH242028   0.307   6.318  17.051 -0.1234  0.1465  0.1058
 6846TIP3    H142029   0.384   6.281  17.092 -0.8641 -1.1562  0.3434
 6846TIP3    H242030   0.243   6.325  17.122  0.3669  3.0339  0.3565
 6847TIP3   OH242031   4.250   5.590  12.712  0.0734 -0.1539 -0.0121
 6847TIP3    H142032   4.259   5.606  12.806  2.2120 -3.5108  0.4742
 6847TIP3    H242033   4.159   5.609  12.692 -0.7439 -0.6445  3.0527
 6848TIP3   OH242034   6.758   3.979   2.153  0.4931  0.9224 -0.1713
 6848TIP3    H142035   6.673   4.024   2.156  0.2622  0.4541  0.5419
 6848TIP3    H242036   6.791   3.986   2.242 -0.5737 -2.2708  0.5103
 6849TIP3   OH242037   3.826   5.873  14.148 -0.9795 -0.8262  0.1779
 6849TIP3    H142038   3.763   5.883  14.219  0.2040  0.3690  1.0806
 6849TIP3    H242039   3.838   5.961  14.112 -1.0541 -1.3085 -1.0634
 6850TIP3   OH242040   1.592   2.053  15.023  0.1738 -0.4233  0.0631
 6850TIP3    H142041   1.602   2.139  14.983 -1.6239 -0.2303 -0.0245
 6850TIP3    H242042   1.559   1.997  14.953  0.6720 -1.0244  0.2990
 6851TIP3   OH242043   3.400   3.379  15.736 -0.2184 -0.3919 -0.0109
 6851TIP3    H142044   3.416   3.399  15.644 -0.3572 -3.1388 -0.6501
 6851TIP3    H242045   3.483   3.399  15.779  0.6661 -1.5390 -1.1433
 6852TIP3   OH242046   5.826   3.299   1.786 -0.1029 -0.3351 -0.3598
 6852TIP3    H142047   5.849   3.238   1.716  1.4361  0.3691 -0.4837
 6852TIP3    H242048   5.840   3.250   1.867 -1.9638 -1.1793 -0.5148
 6853TIP3   OH242049   2.367   1.652  12.202 -0.3358  0.2992  0.2756
 6853TIP3    H142050   2.440   1.699  12.161 -0.4779 -0.1056 -0.4478
 6853TIP3    H242051   2.406   1.569  12.232 -0.4806  0.1230 -0.0273
 6854TIP3   OH242052   2.987   3.120  14.033 -0.1664 -0.5736 -0.2401
 6854TIP3    H142053   2.974   3.215  14.039 -2.1794 -0.9086  1.0041
 6854TIP3    H242054   2.954   3.086  14.116  1.3099 -2.3023 -0.3475
 6855TIP3   OH242055   4.862   0.273  14.465 -0.0680 -0.3734  0.0553
 6855TIP3    H142056   4.957   0.269  14.460 -0.1226 -1.1451 -0.4565
 6855TIP3    H242057   4.835   0.317  14.385 -0.1756 -0.7233 -0.1034
 6856TIP3   OH242058   4.690   4.304   2.337 -0.6154 -0.3209  0.5905
 6856TIP3    H142059   4.630   4.357   2.284 -1.2321  0.6465  2.2277
 6856TIP3    H242060   4.755   4.272   2.274 -0.4824  2.0125 -0.5201
 6857TIP3   OH242061   6.229   3.234  15.178  0.0104 -0.1843  0.2808
 6857TIP3    H142062   6.285   3.293  15.228 -2.4415  1.4937  1.1065
 6857TIP3    H242063   6.165   3.291  15.135 -1.2371 -2.0562 -0.4276
 6858TIP3   OH242064   4.140   6.008   5.513 -0.2645 -0.1889  0.5160
 6858TIP3    H142065   4.094   5.939   5.465 -0.7249 -0.6581  1.5929
 6858TIP3    H242066   4.223   6.018   5.468 -0.9077 -0.2172 -0.7080
 6859TIP3   OH242067   5.519   4.318  15.495 -0.6598  0.0256 -0.2437
 6859TIP3    H142068   5.614   4.309  15.488 -0.3526  2.5711  0.2599
 6859TIP3    H242069   5.487   4.300  15.407  0.4868  1.1625 -0.9209
 6860TIP3   OH242070   2.017   2.850  10.721  0.1540 -0.1332  0.0075
 6860TIP3    H142071   1.943   2.860  10.660 -0.2579  0.0837  0.5412
 6860TIP3    H242072   2.023   2.755  10.735  0.2873 -0.1894 -0.4132
 6861TIP3   OH242073   6.343   6.254  11.462 -0.0051  0.0823 -0.3350
 6861TIP3    H142074   6.278   6.245  11.392  0.9054 -1.3670 -1.0009
 6861TIP3    H242075   6.324   6.182  11.522  0.5694  0.0575 -0.1866
 6862TIP3   OH242076   1.655   1.115   3.525 -0.7895 -0.5131  0.2333
 6862TIP3    H142077   1.654   1.128   3.620  0.7545 -1.1066  0.3534
 6862TIP3    H242078   1.691   1.026   3.514  0.0304 -0.0470 -0.9292
 6863TIP3   OH242079   3.112   3.495   1.265  0.2520 -0.0529  0.3257
 6863TIP3    H142080   3.098   3.480   1.359 -0.1649  1.4654  0.5215
 6863TIP3    H242081   3.204   3.474   1.251  0.1869 -0.7705  0.9857
 6864TIP3   OH242082   3.348   5.630  16.351  0.0196  0.6855  0.5809
 6864TIP3    H142083   3.415   5.689  16.316  0.4273 -0.1365 -0.0485
 6864TIP3    H242084   3.330   5.663  16.438  0.6660  1.3978  0.4474
 6865TIP3   OH242085   6.195   2.841  15.794  0.1466 -0.3021  0.4382
 6865TIP3    H142086   6.230   2.753  15.787  0.1622 -0.2314 -0.3847
 6865TIP3    H242087   6.244   2.881  15.866  1.7690 -0.1948 -0.7165
 6866TIP3   OH242088   3.029   0.168   3.672 -0.4829 -0.1373 -0.0829
 6866TIP3    H142089   3.004   0.155   3.764 -1.3596  1.6679 -0.0373
 6866TIP3    H242090   3.022   0.081   3.633 -0.0864 -0.9350  1.5599
 6867TIP3   OH242091   2.446   3.085  14.311 -0.2123  0.2986  0.5209
 6867TIP3    H142092   2.394   3.075  14.232  0.2640  1.9243 -0.0280
 6867TIP3    H242093   2.422   3.171  14.345 -0.9426 -0.6667  2.5464
 6868TIP3   OH242094   3.730   2.493   2.342  0.0832 -0.1589  0.4504
 6868TIP3    H142095   3.799   2.553   2.369  1.3719 -1.2186 -0.4234
 6868TIP3    H242096   3.692   2.534   2.265  0.8472 -0.3669 -0.0465
 6869TIP3   OH242097   3.967   5.608  13.251 -0.0016 -0.0376 -0.1433
 6869TIP3    H142098   3.952   5.554  13.174 -0.0331  1.7034 -1.3918
 6869TIP3    H242099   3.880   5.637  13.278 -0.0066 -0.7808  0.6586
 6870TIP3   OH242100   3.830   5.575  11.148  0.2332 -0.2373 -0.0714
 6870TIP3    H142101   3.891   5.558  11.076  1.4142 -0.5099  0.9632
 6870TIP3    H242102   3.798   5.664  11.131  0.8173 -0.1392 -0.7142
 6871TIP3   OH242103   0.609   4.974   5.777  0.1789 -0.0354 -0.2622
 6871TIP3    H142104   0.618   4.916   5.853  0.0029  0.5502  0.2064
 6871TIP3    H242105   0.699   4.997   5.753  0.2771 -0.9139 -0.7747
 6872TIP3   OH242106   6.144   3.280   2.562  0.4616 -0.3122  0.3543
 6872TIP3    H142107   6.219   3.311   2.511  0.6682 -0.8623  0.3194
 6872TIP3    H242108   6.098   3.360   2.588  0.9266  0.0184  0.1733
 6873TIP3   OH242109   5.396   4.077   0.657  0.4790 -0.2165 -0.0761
 6873TIP3    H142110   5.388   4.064   0.562  0.6278 -0.8196 -0.0042
 6873TIP3    H242111   5.309   4.056   0.691 -0.4211  2.7939 -0.3892
 6874TIP3   OH242112   3.422   1.176   0.942 -0.2453  0.3561 -0.5822
 6874TIP3    H142113   3.342   1.221   0.968 -0.3561 -0.9691  1.4702
 6874TIP3    H242114   3.392   1.094   0.902  0.0519 -0.0434 -0.0048
 6875TIP3   OH242115   4.148   2.615   1.398 -0.2621 -0.4482 -0.2337
 6875TIP3    H142116   4.059   2.606   1.431 -1.0605  2.4859 -1.3722
 6875TIP3    H242117   4.171   2.528   1.365 -2.4788 -1.3647  0.5498
 6876TIP3   OH242118   6.133   4.440  16.872  0.1181 -0.1618 -0.4330
 6876TIP3    H142119   6.168   4.529  16.872  1.1786 -0.5612 -0.8394
 6876TIP3    H242120   6.199   4.389  16.824  0.1060 -1.3868  0.8237
 6877TIP3   OH242121   1.409   5.170   5.115  0.2560 -0.0535  0.5354
 6877TIP3    H142122   1.314   5.162   5.118  0.4166 -1.8662  1.7603
 6877TIP3    H242123   1.436   5.107   5.047  0.4409  2.1298 -1.4734
 6878TIP3   OH242124   5.415   3.819  13.216 -0.0135 -0.0363 -0.3387
 6878TIP3    H142125   5.438   3.878  13.144 -1.4290  1.7458  0.6094
 6878TIP3    H242126   5.446   3.864  13.295 -1.8713 -0.1198  0.4801
 6879TIP3   OH242127   2.252   4.206  12.050  0.4742 -0.3092 -0.0584
 6879TIP3    H142128   2.175   4.245  12.009  0.3189 -1.9615 -1.4009
 6879TIP3    H242129   2.325   4.233  11.993  0.3808 -1.8247 -0.9297
 6880TIP3   OH242130   1.179   0.530  11.446 -0.5617  0.1501 -0.0609
 6880TIP3    H142131   1.226   0.612  11.457  0.5657 -0.5082  0.0822
 6880TIP3    H242132   1.247   0.464  11.434 -1.3638 -1.0463  1.5951
 6881TIP3   OH242133   3.872   3.507   5.665 -0.0249  0.0032  0.7339
 6881TIP3    H142134   3.924   3.587   5.672 -0.6444  0.2331  3.1452
 6881TIP3    H242135   3.856   3.497   5.571  0.2090  2.6178  0.3702
 6882TIP3   OH242136   2.107   5.362   5.111 -0.1226  0.2212 -0.3664
 6882TIP3    H142137   2.149   5.282   5.143 -0.2338  0.0013 -0.7697
 6882TIP3    H242138   2.123   5.427   5.180  0.5769  0.0449 -0.3557
 6883TIP3   OH242139   3.546   0.059  15.935  0.5614  0.6425  0.3791
 6883TIP3    H142140   3.614   0.112  15.893  0.2276  1.7076  1.1342
 6883TIP3    H242141   3.489   0.032  15.864  0.1411  2.2116  0.0878
 6884TIP3   OH242142   4.202   6.787  15.233  0.1405 -0.3012 -0.1603
 6884TIP3    H142143   4.284   6.759  15.194 -0.1828  1.9246 -2.5825
 6884TIP3    H242144   4.134   6.753  15.175 -0.4912  0.5210  0.0766
 6885TIP3   OH242145   3.187   6.619   0.907  1.4255  0.5623 -0.0377
 6885TIP3    H142146   3.220   6.698   0.952  0.8457  1.0373 -0.4354
 6885TIP3    H242147   3.232   6.620   0.823  2.0771 -0.0142  0.2979
 6886TIP3   OH242148   1.424   2.648  17.262 -0.2245 -0.2352  0.0990
 6886TIP3    H142149   1.455   2.562  17.289 -2.4921 -0.8886  0.7128
 6886TIP3    H242150   1.378   2.634  17.179  0.9077  0.6823 -0.7095
 6887TIP3   OH242151   4.684   2.779   2.214  0.0326  0.0416  0.0887
 6887TIP3    H142152   4.748   2.725   2.167  1.5837  1.5804  0.3924
 6887TIP3    H242153   4.624   2.811   2.146  1.1435  0.7224 -0.5746
 6888TIP3   OH242154   5.263   1.968   1.748 -0.0447  0.2327 -0.3373
 6888TIP3    H142155   5.266   2.056   1.711  1.3394  0.3509  0.0181
 6888TIP3    H242156   5.338   1.965   1.808 -2.0997 -0.0305  2.2628
 6889TIP3   OH242157   1.091   4.922  15.573  0.7959  0.3533 -0.3337
 6889TIP3    H142158   1.086   5.015  15.555 -0.0237  0.3648 -0.0521
 6889TIP3    H242159   1.000   4.894  15.585  1.1398 -0.1037  1.4468
 6890TIP3   OH242160   5.343   5.238  12.295  0.3596 -0.3216  0.3608
 6890TIP3    H142161   5.383   5.153  12.276  0.2462 -0.2858 -0.0526
 6890TIP3    H242162   5.285   5.221  12.369  0.5139 -0.5542  0.4317
 6891TIP3   OH242163   3.584   1.098   1.806  0.6349  0.5013 -0.4185
 6891TIP3    H142164   3.598   1.016   1.854 -1.5805  1.0242  1.2147
 6891TIP3    H242165   3.562   1.070   1.717 -0.5097 -0.7457  0.2252
 6892TIP3   OH242166   3.026   4.040  17.093 -0.0179  0.2682 -0.4981
 6892TIP3    H142167   3.100   4.009  17.040 -0.3057 -0.3013 -0.5707
 6892TIP3    H242168   2.963   3.968  17.091  0.0705  0.1314  0.8149
 6893TIP3   OH242169   5.877   6.341   0.879  0.2274 -0.4395  0.5394
 6893TIP3    H142170   5.925   6.260   0.897  1.2852  0.2257  0.7908
 6893TIP3    H242171   5.945   6.402   0.850 -0.5054  0.4679  0.7335
 6894TIP3   OH242172   4.352   3.491   4.920  0.4492 -0.0867 -0.6986
 6894TIP3    H142173   4.331   3.570   4.970  0.1836 -0.3713 -0.3586
 6894TIP3    H242174   4.438   3.465   4.951 -0.7272 -1.6419  1.3782
 6895TIP3   OH242175   0.433   1.443  14.927 -0.1016 -0.7990  0.1114
 6895TIP3    H142176   0.341   1.467  14.913  0.2371  0.2631 -0.3446
 6895TIP3    H242177   0.473   1.453  14.841  0.1636 -2.6087 -0.0009
 6896TIP3   OH242178   5.755   0.122  13.436 -0.5865 -0.2477 -0.6421
 6896TIP3    H142179   5.845   0.110  13.406 -0.4856 -0.5376 -0.2242
 6896TIP3    H242180   5.701   0.093  13.362 -0.3363 -0.4939 -0.7294
 6897TIP3   OH242181   4.945   6.026  11.177 -0.0770 -0.5747 -0.5236
 6897TIP3    H142182   4.888   6.084  11.125 -1.0376 -0.0435  1.0944
 6897TIP3    H242183   4.897   5.944  11.183 -0.2221 -0.4495  0.0090
 6898TIP3   OH242184   6.129   5.483  12.296  0.0331  0.0460 -0.3406
 6898TIP3    H142185   6.204   5.429  12.269 -0.4141  0.3987 -2.3631
 6898TIP3    H242186   6.163   5.572  12.296 -0.1251  0.1055 -0.2905
 6899TIP3   OH242187   1.342   1.921  11.926  0.1904  0.7051  0.2144
 6899TIP3    H142188   1.427   1.878  11.939 -0.2477  0.0320  0.9213
 6899TIP3    H242189   1.343   1.995  11.987 -0.2078 -0.0160  1.1064
 6900TIP3   OH242190   2.944   2.872   4.102 -0.6538  0.5771 -0.2554
 6900TIP3    H142191   2.848   2.865   4.101 -0.7095  0.9810 -3.1108
 6900TIP3    H242192   2.967   2.897   4.012  1.9759  2.7649  0.9606
 6901TIP3   OH242193   4.208   1.914   4.432  0.4696 -0.3246 -0.1557
 6901TIP3    H142194   4.180   1.988   4.486  2.5843  0.8538 -0.6317
 6901TIP3    H242195   4.193   1.943   4.342  1.3570 -0.4428 -0.3421
 6902TIP3   OH242196   2.142   0.485   5.601 -0.3961 -0.0414  0.1011
 6902TIP3    H142197   2.172   0.571   5.571 -1.1601 -0.1113 -0.9041
 6902TIP3    H242198   2.221   0.431   5.600  0.2485  0.8380  1.5204
 6903TIP3   OH242199   4.098   6.732   0.690  0.5921 -0.0486 -0.5514
 6903TIP3    H142200   4.150   6.652   0.703  0.6406  0.0578 -0.0763
 6903TIP3    H242201   4.059   6.721   0.603  0.7231 -0.5218 -0.5541
 6904TIP3   OH242202   3.912   0.818  16.265  0.0240  0.0958 -0.5499
 6904TIP3    H142203   3.941   0.801  16.176 -0.4552  0.7853 -0.8452
 6904TIP3    H242204   3.896   0.913  16.268 -0.2416  0.0382  0.1773
 6905TIP3   OH242205   6.792   3.454  15.221  0.3671  0.2111 -0.3350
 6905TIP3    H142206   6.850   3.402  15.165 -1.0889 -0.6612 -1.0761
 6905TIP3    H242207   6.800   3.414  15.307 -0.4742 -1.0645 -0.8241
 6906TIP3   OH242208   3.279   0.160   1.558  0.1868  0.8502 -0.0809
 6906TIP3    H142209   3.312   0.085   1.508 -2.7797 -0.5948  0.0665
 6906TIP3    H242210   3.184   0.153   1.552 -0.1748  2.6045  2.9279
 6907TIP3   OH242211   0.473   4.003   6.517 -0.6490 -0.0540 -0.4435
 6907TIP3    H142212   0.441   4.048   6.439  0.8325  0.0023 -1.0407
 6907TIP3    H242213   0.565   4.028   6.523 -0.4011 -1.1385  0.5564
 6908TIP3   OH242214   3.470   1.945  15.163 -0.1287  0.2993 -0.4199
 6908TIP3    H142215   3.419   1.965  15.241 -0.2119 -0.5896 -0.2399
 6908TIP3    H242216   3.560   1.936  15.195  0.1033  1.5770 -0.6911
 6909TIP3   OH242217   6.407   3.608   1.821 -0.0072 -0.0008  0.0262
 6909TIP3    H142218   6.439   3.678   1.764 -0.2758  0.1239  0.0293
 6909TIP3    H242219   6.451   3.529   1.789  3.5825  0.7762  2.6260
 6910TIP3   OH242220   1.461   2.394   1.066  0.5339 -0.6023  0.1840
 6910TIP3    H142221   1.479   2.340   0.989  0.3466 -0.3203 -0.0630
 6910TIP3    H242222   1.532   2.376   1.127  1.7289  0.5972 -0.8168
 6911TIP3   OH242223   0.106   5.933  15.252 -0.1949  0.4116  0.3639
 6911TIP3    H142224   0.198   5.943  15.278  0.4752  1.9887 -2.3889
 6911TIP3    H242225   0.068   6.020  15.265 -1.5448 -0.4396  2.2857
 6912TIP3   OH242226   3.296   2.848   2.196  0.0710 -0.1670  0.2741
 6912TIP3    H142227   3.234   2.916   2.169 -0.2783 -0.3858  0.5217
 6912TIP3    H242228   3.329   2.877   2.281 -0.8782 -0.8327  0.8766
 6913TIP3   OH242229   4.588   6.241  11.501  0.7027 -0.4657  0.6990
 6913TIP3    H142230   4.629   6.155  11.492 -0.6315 -1.1550  0.9376
 6913TIP3    H242231   4.608   6.286  11.419  0.7806 -1.2902  0.2588
 6914TIP3   OH242232   2.970   0.718  11.634  0.7591 -0.2643 -0.9129
 6914TIP3    H142233   2.977   0.772  11.555 -0.1068 -1.4030 -1.7952
 6914TIP3    H242234   2.983   0.779  11.706  0.3158  1.0280 -1.8959
 6915TIP3   OH242235   4.951   3.436  14.485  0.2752 -0.6624  0.2068
 6915TIP3    H142236   5.013   3.399  14.548 -0.6953  0.0457  1.6273
 6915TIP3    H242237   4.978   3.401  14.400  4.3596  1.7616  0.3357
 6916TIP3   OH242238   0.378   3.148   1.459 -0.4528 -0.2538 -0.2119
 6916TIP3    H142239   0.410   3.113   1.376 -0.6229 -0.5345 -0.1566
 6916TIP3    H242240   0.335   3.230   1.435 -1.7002 -1.0177 -0.5672
 6917TIP3   OH242241   5.579   6.391   5.394  0.2481 -0.1296 -0.3969
 6917TIP3    H142242   5.518   6.334   5.348  1.1453 -1.6398  0.2227
 6917TIP3    H242243   5.605   6.457   5.330  0.1065 -1.1319 -1.4876
 6918TIP3   OH242244   3.358   3.785  15.450  0.5595 -0.3092  0.4515
 6918TIP3    H142245   3.375   3.726  15.524  0.8519  0.5657  1.0804
 6918TIP3    H242246   3.443   3.792  15.405  0.8222  0.5977  1.0814
 6919TIP3   OH242247   0.998   6.324   0.914 -0.4891 -0.5556 -0.9299
 6919TIP3    H142248   1.059   6.266   0.867  1.0039 -0.2999  0.6330
 6919TIP3    H242249   1.010   6.409   0.873 -3.6150 -1.5481 -4.0895
 6920TIP3   OH242250   5.763   6.195   4.565  0.2603  0.2706  0.1776
 6920TIP3    H142251   5.697   6.260   4.541  0.1717  0.3737  0.6859
 6920TIP3    H242252   5.791   6.221   4.653  0.9598  0.2151 -0.0247
 6921TIP3   OH242253   5.695   3.035  13.189 -0.2827  0.2227  0.1383
 6921TIP3    H142254   5.776   3.057  13.142 -0.0153 -0.0507  0.4655
 6921TIP3    H242255   5.719   2.960  13.243 -1.8116 -2.4242 -2.7577
 6922TIP3   OH242256   4.900   0.717  11.388  0.1832  0.0011  0.5513
 6922TIP3    H142257   4.876   0.807  11.412  0.0289 -0.3354  1.7109
 6922TIP3    H242258   4.925   0.722  11.296  2.4491  1.6862  1.2072
 6923TIP3   OH242259   6.217   2.772   5.611  0.3530  0.1638  0.2684
 6923TIP3    H142260   6.173   2.794   5.693  0.1928 -2.4137  0.9065
 6923TIP3    H242261   6.146   2.764   5.547  0.5074  2.5249 -0.2371
 6924TIP3   OH242262   6.278   4.244   4.917 -0.5032 -0.5640 -0.0230
 6924TIP3    H142263   6.182   4.246   4.910 -0.3009  2.2567 -3.2075
 6924TIP3    H242264   6.300   4.326   4.962  0.4342 -1.2502  0.7916
 6925TIP3   OH242265   2.312   6.167  16.592 -0.5134 -0.4678 -0.2141
 6925TIP3    H142266   2.383   6.142  16.652  0.3160 -0.3910 -1.1478
 6925TIP3    H242267   2.233   6.131  16.632 -0.1395  0.6261  1.5558
 6926TIP3   OH242268   4.434   3.568  14.775  0.3836  0.2300 -0.1695
 6926TIP3    H142269   4.414   3.524  14.858  1.0157 -0.1302 -0.2048
 6926TIP3    H242270   4.529   3.581  14.777  0.2571  1.1770 -0.3697
 6927TIP3   OH242271   4.074   1.436  17.013 -0.4032 -0.0016 -0.3643
 6927TIP3    H142272   4.137   1.504  16.991 -0.1911  0.4723  1.5633
 6927TIP3    H242273   4.009   1.480  17.068 -2.0680 -0.6319 -1.7962
 6928TIP3   OH242274   1.541   4.095   3.187 -0.1626  0.2582 -0.5911
 6928TIP3    H142275   1.613   4.153   3.163  0.9068 -0.9973 -0.4894
 6928TIP3    H242276   1.497   4.139   3.259  0.3489  1.1498 -0.8150
 6929TIP3   OH242277   6.073   0.197   4.872 -0.1402  0.2184  0.3550
 6929TIP3    H142278   5.979   0.210   4.878  0.0952  2.6768 -0.6921
 6929TIP3    H242279   6.111   0.282   4.894  1.7404 -0.1062 -1.3813
 6930TIP3   OH242280   5.109   5.300   2.168 -0.4060 -0.2779 -0.1626
 6930TIP3    H142281   5.037   5.324   2.109  0.1180  0.4052 -0.5348
 6930TIP3    H242282   5.104   5.364   2.239 -0.5152 -0.5771  0.0962
 6931TIP3   OH242283   6.665   6.527   4.917  0.0218 -0.0067 -0.6613
 6931TIP3    H142284   6.720   6.503   4.991 -0.1819 -0.1978 -0.5724
 6931TIP3    H242285   6.579   6.544   4.955  0.6904  3.1160 -0.3896
 6932TIP3   OH242286   1.666   0.139  12.363 -0.1068  0.0577 -0.5156
 6932TIP3    H142287   1.605   0.118  12.292 -1.4070  0.6407  0.4120
 6932TIP3    H242288   1.734   0.192  12.321  0.8330 -2.1796 -1.9555
 6933TIP3   OH242289   2.754   3.026  11.485 -0.2715  0.0848 -0.0081
 6933TIP3    H142290   2.822   3.089  11.461 -1.0499  1.4731  1.3476
 6933TIP3    H242291   2.766   2.954  11.424  1.6432  0.8480 -0.5711
 6934TIP3   OH242292   1.954   3.623   5.751  0.3718  0.0395  0.2399
 6934TIP3    H142293   1.916   3.652   5.669  0.5955 -0.3181  0.0105
 6934TIP3    H242294   1.882   3.583   5.799  0.6821 -1.6540 -0.6577
 6935TIP3   OH242295   4.372   4.404  13.523  0.5364 -0.6385  0.2833
 6935TIP3    H142296   4.309   4.332  13.528  0.6244 -0.7139  0.3222
 6935TIP3    H242297   4.319   4.481  13.503  0.4567 -0.7382  0.1009
 6936TIP3   OH242298   2.746   1.323  12.660 -0.5665 -0.0150  0.0830
 6936TIP3    H142299   2.683   1.296  12.593  0.0492 -0.7929 -0.1947
 6936TIP3    H242300   2.692   1.346  12.735 -1.2729  1.0001 -0.7195
 6937TIP3   OH242301   6.072   5.639  15.647 -0.1849  0.3085 -0.3594
 6937TIP3    H142302   6.149   5.595  15.683 -0.1824  1.1359  0.6892
 6937TIP3    H242303   6.026   5.674  15.724 -0.5983  1.4349 -1.1010
 6938TIP3   OH242304   0.746   0.344  10.541  0.1872 -0.1912 -0.1243
 6938TIP3    H142305   0.757   0.426  10.492 -0.0395 -0.6409 -0.9483
 6938TIP3    H242306   0.824   0.293  10.519  0.4674 -0.0889  0.6127
 6939TIP3   OH242307   3.698   0.495   0.907 -0.0203  0.3878  0.2289
 6939TIP3    H142308   3.762   0.441   0.954 -0.3695 -0.3197 -0.1118
 6939TIP3    H242309   3.660   0.437   0.842  0.2386  1.2890 -0.7394
 6940TIP3   OH242310   5.636   1.165   2.934 -0.4023  0.3184  0.5733
 6940TIP3    H142311   5.653   1.164   3.028  2.4235 -0.6361  0.0992
 6940TIP3    H242312   5.701   1.225   2.898 -0.6780 -0.2433 -0.9205
 6941TIP3   OH242313   4.758   4.267  16.943  0.3273  0.1655  0.4107
 6941TIP3    H142314   4.757   4.177  16.911  0.0296  0.5795 -0.7646
 6941TIP3    H242315   4.839   4.304  16.909 -1.2810  1.4166 -2.1885
 6942TIP3   OH242316   2.652   5.832   0.667  0.2504  0.4536  0.0652
 6942TIP3    H142317   2.618   5.877   0.589  0.8488  0.8483  0.0305
 6942TIP3    H242318   2.747   5.836   0.657  0.3087 -1.3032 -0.2143
 6943TIP3   OH242319   4.769   3.456  16.249  0.0532 -0.3304  0.3908
 6943TIP3    H142320   4.731   3.451  16.162  0.4630  0.7789  0.1410
 6943TIP3    H242321   4.737   3.378  16.294 -2.0047  0.2571 -0.0123
 6944TIP3   OH242322   2.807   5.501   0.123  0.5302 -0.2502 -0.1745
 6944TIP3    H142323   2.770   5.511   0.036  2.4606 -0.9146 -1.1059
 6944TIP3    H242324   2.793   5.586   0.165 -0.7202 -0.0342 -0.9953
 6945TIP3   OH242325   0.305   0.762  15.154 -0.1023  0.7264  0.0930
 6945TIP3    H142326   0.286   0.849  15.190  0.3543  0.3539  1.2773
 6945TIP3    H242327   0.371   0.726  15.213  1.1128  0.3166 -1.4718
 6946TIP3   OH242328   2.954   4.291   4.281 -0.6699  0.4114  0.4441
 6946TIP3    H142329   3.027   4.230   4.286 -1.7765 -0.8098  2.0914
 6946TIP3    H242330   2.993   4.372   4.246  1.4859 -0.1809  1.3946
 6947TIP3   OH242331   2.575   2.728   3.020  0.1694  0.6357  0.3746
 6947TIP3    H142332   2.627   2.677   2.958 -0.3016  0.1001  0.4103
 6947TIP3    H242333   2.612   2.816   3.016  1.1679  0.2255  0.5136
 6948TIP3   OH242334   1.580   3.693  13.373 -0.2040  0.4518  0.4534
 6948TIP3    H142335   1.565   3.602  13.401  1.9974 -0.1714 -0.2119
 6948TIP3    H242336   1.575   3.689  13.277 -0.2526  1.0651  0.4333
 6949TIP3   OH242337   4.823   3.935   6.406 -0.0868  0.3360 -0.6979
 6949TIP3    H142338   4.736   3.912   6.375 -0.1638 -0.6787  0.2640
 6949TIP3    H242339   4.857   3.855   6.444  1.4088  0.6289 -1.3676
 6950TIP3   OH242340   1.753   0.577  13.282  0.4399  0.2058 -0.3817
 6950TIP3    H142341   1.729   0.665  13.311  1.6090  0.1416  0.7919
 6950TIP3    H242342   1.832   0.589  13.230  0.6012 -0.1576 -0.2226
 6951TIP3   OH242343   5.385   1.666   3.742 -0.4076  0.1476  0.2025
 6951TIP3    H142344   5.331   1.742   3.765 -3.5107 -1.0440 -2.6262
 6951TIP3    H242345   5.465   1.703   3.705 -1.7990  2.0976 -0.9652
 6952TIP3   OH242346   5.792   4.818  10.556  0.1736  0.0187  0.0055
 6952TIP3    H142347   5.707   4.846  10.590  0.3534  0.3177  0.2011
 6952TIP3    H242348   5.856   4.855  10.617  0.4984  0.6004 -0.6823
 6953TIP3   OH242349   5.883   5.553   4.772  0.1456  0.1702 -0.3143
 6953TIP3    H142350   5.808   5.604   4.804 -0.2791 -1.4519  1.3938
 6953TIP3    H242351   5.959   5.594   4.813 -0.0800  0.1992  0.0804
 6954TIP3   OH242352   2.802   0.352  11.389 -0.5872  0.0846 -0.1891
 6954TIP3    H142353   2.846   0.328  11.307  0.2956 -1.1236  0.6145
 6954TIP3    H242354   2.791   0.447  11.384  1.6615  0.3445 -0.6680
 6955TIP3   OH242355   2.692   2.596  11.377  0.5302 -0.3664 -0.5104
 6955TIP3    H142356   2.714   2.509  11.409  1.1036  0.0087  0.1196
 6955TIP3    H242357   2.609   2.584  11.329 -1.9589 -0.4378  3.5827
 6956TIP3   OH242358   0.078   0.643  12.064  0.1721 -0.3445 -0.3677
 6956TIP3    H142359   0.079   0.621  12.158 -0.8927 -2.3233 -0.7987
 6956TIP3    H242360   0.170   0.654  12.042  0.4884 -0.6651  0.7340
 6957TIP3   OH242361   0.011   5.524   4.487  0.1225 -0.3375  0.5551
 6957TIP3    H142362  -0.042   5.447   4.507 -0.2333  0.2419  1.8913
 6957TIP3    H242363   0.097   5.503   4.523  0.6439 -1.0106 -1.0412
 6958TIP3   OH242364   0.435   0.431  13.506 -0.4429  0.0487  0.2145
 6958TIP3    H142365   0.396   0.444  13.419  1.5060  0.2210 -0.6572
 6958TIP3    H242366   0.449   0.337  13.512 -1.3041 -0.0575  0.6836
 6959TIP3   OH242367   1.233   6.688  12.833 -0.2572  0.1194 -0.0228
 6959TIP3    H142368   1.194   6.765  12.790 -0.7266  0.2915  0.7092
 6959TIP3    H242369   1.274   6.723  12.912  0.4065 -0.2346 -0.2069
 6960TIP3   OH242370   2.034   5.237  12.368  0.1674 -0.0835  1.0416
 6960TIP3    H142371   2.023   5.167  12.433  1.0009 -1.1348  0.0688
 6960TIP3    H242372   1.947   5.247  12.330  0.5103 -2.1865 -0.3859
 6961TIP3   OH242373   4.688   4.861   3.256 -0.0677  0.0609 -0.2832
 6961TIP3    H142374   4.763   4.893   3.306  1.5614  0.9667 -3.1875
 6961TIP3    H242375   4.719   4.779   3.216 -0.7353  0.2221 -1.1566
 6962TIP3   OH242376   2.026   2.353  15.156 -0.0686 -0.9895  0.0625
 6962TIP3    H142377   2.095   2.419  15.150 -0.6083 -0.4620 -0.4540
 6962TIP3    H242378   1.951   2.401  15.192 -0.1569 -1.5646  0.6502
 6963TIP3   OH242379   4.823   2.221  10.490  0.2855 -0.4404 -0.6318
 6963TIP3    H142380   4.760   2.267  10.545  1.4337 -0.1298  0.4663
 6963TIP3    H242381   4.783   2.136  10.472 -1.0074  0.2561 -1.0515
 6964TIP3   OH242382   5.250   2.262  10.498 -0.0066 -0.0765 -0.5203
 6964TIP3    H142383   5.309   2.322  10.452  0.1179 -0.3111 -0.6742
 6964TIP3    H242384   5.300   2.180  10.503  0.5095  0.3445  1.2593
 6965TIP3   OH242385   2.570   4.290  10.859  0.0932  0.0374  0.3752
 6965TIP3    H142386   2.623   4.353  10.907  0.3871  0.1179 -0.0499
 6965TIP3    H242387   2.613   4.206  10.875  0.5492  0.1498 -0.2448
 6966TIP3   OH242388   5.253   0.089   2.949  0.5836 -0.7048 -0.4517
 6966TIP3    H142389   5.283  -0.001   2.961 -0.2814 -1.0620 -0.8814
 6966TIP3    H242390   5.225   0.093   2.858 -0.9273 -0.4803 -0.0017
 6967TIP3   OH242391   6.257   2.097  16.792  0.0454 -0.5164  0.0472
 6967TIP3    H142392   6.299   2.082  16.877  1.0960  0.0883 -0.3473
 6967TIP3    H242393   6.271   2.016  16.744 -1.0038 -1.0472  0.6354
 6968TIP3   OH242394   3.285   5.217   4.813 -0.0035 -0.7567  0.0032
 6968TIP3    H142395   3.350   5.196   4.880  1.1240  0.1630 -0.7816
 6968TIP3    H242396   3.210   5.250   4.863  0.4544 -1.0135  0.8753
 6969TIP3   OH242397   3.197   0.953  16.761  0.5319 -0.3098  0.1143
 6969TIP3    H142398   3.229   0.958  16.671 -2.7037 -0.9383 -1.1240
 6969TIP3    H242399   3.162   0.864  16.769  0.3178 -0.0876  1.8283
 6970TIP3   OH242400   5.969   4.933  14.741  0.1922 -0.0079 -0.1311
 6970TIP3    H142401   5.930   5.010  14.701  1.5689  1.1751  0.7343
 6970TIP3    H242402   6.046   4.914  14.686 -0.0410 -0.6443 -0.2370
 6971TIP3   OH242403   4.742   3.199   3.141  0.3459  0.3096  0.7432
 6971TIP3    H142404   4.775   3.110   3.154  0.1602  0.0475 -0.4421
 6971TIP3    H242405   4.648   3.187   3.125 -0.0880  0.9193  2.7062
 6972TIP3   OH242406   1.174   2.702  16.702  0.1024  0.2967  0.1127
 6972TIP3    H142407   1.117   2.667  16.632  0.5951 -1.6223  0.6352
 6972TIP3    H242408   1.140   2.662  16.782  2.7271 -1.6504  0.3235
 6973TIP3   OH242409   2.454   5.834   3.089  0.3366  0.4256 -0.1740
 6973TIP3    H142410   2.493   5.820   3.175  2.2203  0.7155 -0.9415
 6973TIP3    H242411   2.467   5.752   3.042  2.0520  1.2308 -1.1759
 6974TIP3   OH242412   3.160   3.270   5.017 -0.1600 -0.0545  0.0361
 6974TIP3    H142413   3.232   3.210   4.993  0.5413  0.8827 -0.2289
 6974TIP3    H242414   3.091   3.250   4.954  0.4620  0.1291 -0.7122
 6975TIP3   OH242415   3.836   0.323   5.515  0.5381 -0.0889 -0.1126
 6975TIP3    H142416   3.896   0.389   5.482  1.0450  0.0732  1.0999
 6975TIP3    H242417   3.846   0.249   5.455 -0.0478  0.9273 -1.4835
 6976TIP3   OH242418   6.724   3.445  16.065  0.3813  0.5930 -0.5067
 6976TIP3    H142419   6.684   3.379  16.122  1.9777 -0.0725 -0.1352
 6976TIP3    H242420   6.739   3.399  15.982 -0.1156  1.0020 -0.8319
 6977TIP3   OH242421   3.011   2.177  14.007 -0.2333  0.7410 -0.6439
 6977TIP3    H142422   3.032   2.087  13.982  0.7642  0.4476  1.1601
 6977TIP3    H242423   2.918   2.186  13.989 -0.0903 -0.2588 -1.9746
 6978TIP3   OH242424   2.203   5.696  17.271 -0.0873 -0.5890 -0.1186
 6978TIP3    H142425   2.121   5.650  17.289 -2.0497  1.9843 -2.1644
 6978TIP3    H242426   2.204   5.769  17.333  1.3864 -1.3704  0.8310
 6979TIP3   OH242427   2.854   3.068   4.492  0.7488  0.4464  0.4943
 6979TIP3    H142428   2.926   3.047   4.433 -0.4727 -1.4404 -0.3654
 6979TIP3    H242429   2.811   3.144   4.451  1.3701  0.6844  0.2701
 6980TIP3   OH242430   1.726   2.627   0.531 -0.3866  0.8023 -0.1323
 6980TIP3    H142431   1.803   2.605   0.584 -0.1181  0.7541 -0.5425
 6980TIP3    H242432   1.658   2.649   0.596  0.5389  2.7356  0.2096
 6981TIP3   OH242433   4.113   3.790  15.568  0.2661  0.1460 -0.4318
 6981TIP3    H142434   4.049   3.780  15.640 -1.2047  1.6876 -1.4799
 6981TIP3    H242435   4.167   3.864  15.595  0.8090 -0.3614 -0.1269
 6982TIP3   OH242436   1.953   4.935   4.038  0.1688 -0.0882  0.1004
 6982TIP3    H142437   2.007   4.936   4.117 -0.7546  0.4465  0.7234
 6982TIP3    H242438   1.916   4.847   4.036 -3.0108  1.1000  2.4638
 6983TIP3   OH242439   0.267   2.369  15.383 -0.3212 -0.5963  0.4786
 6983TIP3    H142440   0.186   2.354  15.432 -0.1633  0.2005  0.9781
 6983TIP3    H242441   0.243   2.431  15.315  0.8319  3.0817  3.2842
 6984TIP3   OH242442   5.999   6.375   1.195  0.4795  0.0320 -0.1840
 6984TIP3    H142443   6.061   6.409   1.260  0.8076 -1.5985  0.3752
 6984TIP3    H242444   5.923   6.346   1.247  0.0657  0.2038 -0.6839
 6985TIP3   OH242445   4.049   2.967  16.037  0.2865 -0.2017 -0.2187
 6985TIP3    H142446   4.019   2.887  15.992 -1.0386 -0.2496  0.7071
 6985TIP3    H242447   4.106   3.010  15.973  0.4517 -1.5274 -0.9990
 6986TIP3   OH242448   3.335   3.393   1.667 -0.4459  0.0348 -0.9643
 6986TIP3    H142449   3.275   3.446   1.718  1.4907  1.1595  0.2143
 6986TIP3    H242450   3.352   3.316   1.722  0.7922  0.7203 -0.3722
 6987TIP3   OH242451   5.323   3.065  16.693 -0.0726  0.4148 -0.1022
 6987TIP3    H142452   5.233   3.034  16.677  0.2261  0.2361 -1.5311
 6987TIP3    H242453   5.325   3.086  16.786 -1.3517 -0.3948  0.1201
 6988TIP3   OH242454   3.930   2.969   0.289  0.0876 -0.5999  0.1544
 6988TIP3    H142455   3.837   2.989   0.304  0.6026  0.9247  1.4739
 6988TIP3    H242456   3.969   2.971   0.377  1.5493 -0.2999 -0.4898
 6989TIP3   OH242457   1.373   2.470   4.513 -0.4068 -0.4686  0.2426
 6989TIP3    H142458   1.396   2.546   4.567 -1.6234  0.8699 -1.0504
 6989TIP3    H242459   1.457   2.439   4.479  0.3283 -1.0577  2.5000
 6990TIP3   OH242460   0.282   5.771  11.381  0.1816 -0.4932  0.5396
 6990TIP3    H142461   0.241   5.843  11.430 -1.4899 -0.8424 -0.3002
 6990TIP3    H242462   0.218   5.749  11.314  1.7726 -1.0822 -0.8100
 6991TIP3   OH242463   2.140   3.602  12.667 -0.5436 -0.2251 -0.3182
 6991TIP3    H142464   2.133   3.508  12.679  0.4438 -0.3341 -0.5413
 6991TIP3    H242465   2.129   3.638  12.755  1.4609 -0.7045  0.1508
 6992TIP3   OH242466   2.441   5.108  11.526 -0.4594  0.1433 -0.0016
 6992TIP3    H142467   2.468   5.086  11.437  2.0612 -0.3278  0.8537
 6992TIP3    H242468   2.355   5.149  11.514  1.1158  2.9011 -2.9870
 6993TIP3   OH242469   4.018   2.803  11.271 -0.4337 -0.7410  0.6221
 6993TIP3    H142470   4.018   2.898  11.284  0.9687 -0.5949 -0.3062
 6993TIP3    H242471   3.931   2.774  11.297 -1.0931  0.8950  0.2288
 6994TIP3   OH242472   4.256   5.509   5.824  0.6019 -0.0792 -0.0101
 6994TIP3    H142473   4.336   5.487   5.777  0.6349 -1.4510  0.6493
 6994TIP3    H242474   4.200   5.432   5.812 -0.4674  0.7205 -0.1630
 6995TIP3   OH242475   4.662   3.880  14.060  0.2787 -0.0624  0.0163
 6995TIP3    H142476   4.613   3.871  13.979  1.6929 -0.1790 -0.8425
 6995TIP3    H242477   4.596   3.902  14.126 -0.5223  2.9174 -1.6966
 6996TIP3   OH242478   0.608   6.710   0.071 -0.0319  0.4779  0.0482
 6996TIP3    H142479   0.619   6.678   0.160 -1.2878 -1.2360 -0.3917
 6996TIP3    H242480   0.556   6.643   0.027  2.7283  0.0268 -2.7187
 6997TIP3   OH242481   0.718   2.319   1.312  0.2544 -0.0279 -0.2477
 6997TIP3    H142482   0.793   2.320   1.253  1.2157 -0.6894  0.9397
 6997TIP3    H242483   0.729   2.398   1.365  0.3581 -0.3686  0.2343
 6998TIP3   OH242484   3.398   4.963  13.408 -0.1239 -0.4452  0.1199
 6998TIP3    H142485   3.419   4.870  13.413  2.6714  0.0419 -1.4568
 6998TIP3    H242486   3.325   4.968  13.346 -0.9554 -1.6653  0.9833
 6999TIP3   OH242487   5.751   3.009  16.854 -0.3632 -0.0640  0.6417
 6999TIP3    H142488   5.754   3.105  16.858 -1.3034 -0.0501  1.0729
 6999TIP3    H242489   5.669   2.986  16.898 -1.1149 -0.9713 -1.1952
 7000TIP3   OH242490   0.208   3.210  14.821  0.7745  0.3921 -0.3309
 7000TIP3    H142491   0.221   3.207  14.727  0.5916 -0.0288 -0.3456
 7000TIP3    H242492   0.280   3.158  14.857  1.0222  0.8122 -0.2198
 7001TIP3   OH242493   0.870   1.256  15.091 -0.1174  0.6424 -0.2511
 7001TIP3    H142494   0.798   1.259  15.029 -0.5209 -1.8144  0.0592
 7001TIP3    H242495   0.945   1.291  15.043 -1.3526  2.6287 -0.7698
 7002TIP3   OH242496   2.816   4.496   1.925  0.1707 -0.1423  0.0360
 7002TIP3    H142497   2.906   4.527   1.933  0.0190  0.1045  0.8188
 7002TIP3    H242498   2.768   4.570   1.888  0.4230 -0.5116 -1.0453
 7003TIP3   OH242499   1.810   5.463   2.536  0.2514 -0.3676 -0.1520
 7003TIP3    H142500   1.747   5.486   2.605 -0.2152 -1.2815 -0.2615
 7003TIP3    H242501   1.866   5.540   2.528 -0.1284  0.0153  0.7642
 7004TIP3   OH242502   1.380   1.291   5.111  0.0869 -0.8895 -0.4503
 7004TIP3    H142503   1.358   1.312   5.020 -0.0916  1.1228  0.0328
 7004TIP3    H242504   1.326   1.350   5.163  1.8401 -0.4467  0.9166
 7005TIP3   OH242505   0.562   4.161   5.503  0.2986  0.5909 -0.0422
 7005TIP3    H142506   0.626   4.225   5.536 -0.4765  1.3785 -0.0423
 7005TIP3    H242507   0.499   4.214   5.454  1.1515 -0.5005 -2.4009
 7006TIP3   OH242508   4.177   1.281   3.267  0.9879  0.1247  0.1212
 7006TIP3    H142509   4.092   1.253   3.302  1.2840  0.2359  0.9351
 7006TIP3    H242510   4.214   1.201   3.229  1.3998 -0.3903  1.5738
 7007TIP3   OH242511   0.550   1.234   2.416 -0.3664 -0.2804  0.4657
 7007TIP3    H142512   0.539   1.142   2.439  1.0025 -0.5237  0.2293
 7007TIP3    H242513   0.463   1.263   2.390 -0.6840 -1.6913 -0.1174
 7008TIP3   OH242514   5.555   6.268  13.161  0.1623  0.3861  0.9653
 7008TIP3    H142515   5.643   6.307  13.160 -0.3587  1.6031  1.6011
 7008TIP3    H242516   5.562   6.194  13.222  0.4819  1.1126  1.8197
 7009TIP3   OH242517   2.434   6.090  13.449 -0.0081  0.1275  0.2769
 7009TIP3    H142518   2.492   6.038  13.504 -0.7324  0.3443  1.2558
 7009TIP3    H242519   2.366   6.121  13.509 -0.4409  0.8996 -0.6099
 7010TIP3   OH242520   1.525   1.104  16.085 -1.2370  0.1496 -0.6358
 7010TIP3    H142521   1.601   1.049  16.066 -0.5031  0.7818  0.4128
 7010TIP3    H242522   1.506   1.088  16.178 -1.7793  0.7322 -0.6405
 7011TIP3   OH242523   5.567   2.269   4.073  0.1906 -0.1656 -0.1234
 7011TIP3    H142524   5.493   2.210   4.058  1.1214 -0.5294 -3.7374
 7011TIP3    H242525   5.642   2.211   4.085  0.7769  0.2272 -1.7536
 7012TIP3   OH242526   0.941   4.431  13.358  0.2521 -0.1498 -0.3768
 7012TIP3    H142527   0.876   4.365  13.384 -1.1607  1.1511 -0.5351
 7012TIP3    H242528   0.947   4.422  13.262  0.3554 -0.3026 -0.3559
 7013TIP3   OH242529   2.748   2.257  14.055  0.1597  0.5638  0.0615
 7013TIP3    H142530   2.700   2.267  13.973  0.0400  0.3160  0.1007
 7013TIP3    H242531   2.682   2.271  14.123 -0.1770 -1.2419  0.1189
 7014TIP3   OH242532   5.303   4.953   1.084 -0.3404  0.4828  0.0882
 7014TIP3    H142533   5.303   4.975   0.991  1.6143  0.5308  0.0792
 7014TIP3    H242534   5.336   5.031   1.128 -0.8951  0.3321  0.7878
 7015TIP3   OH242535   3.223   2.094  16.599  0.0735  0.0623 -0.0827
 7015TIP3    H142536   3.235   2.048  16.682 -0.4623  0.5926  0.2919
 7015TIP3    H242537   3.163   2.039  16.548 -1.2744  0.7854  0.7114
 7016TIP3   OH242538   3.400   4.671  15.052  0.1212  0.2570 -0.4391
 7016TIP3    H142539   3.338   4.615  15.006 -0.5472  1.5022 -1.0837
 7016TIP3    H242540   3.445   4.612  15.113 -1.7515 -0.6539  0.1021
 7017TIP3   OH242541   3.131   2.010   4.352  0.1562 -0.4459  0.0372
 7017TIP3    H142542   3.076   2.053   4.286 -0.2759 -1.8682 -0.5517
 7017TIP3    H242543   3.204   2.071   4.366 -0.3942  0.4314 -0.8377
 7018TIP3   OH242544   2.912   2.473  12.358  0.3436  0.7753  0.0293
 7018TIP3    H142545   2.910   2.569  12.359  1.2869  0.7998  0.3670
 7018TIP3    H242546   2.955   2.450  12.440 -0.3656  0.0437  0.1986
 7019TIP3   OH242547   5.402   2.714  15.528  0.1957  0.2890 -0.5413
 7019TIP3    H142548   5.320   2.759  15.505 -0.6974 -1.2531 -0.4563
 7019TIP3    H242549   5.423   2.663  15.450 -0.1514 -1.0751  0.2426
 7020TIP3   OH242550   4.247   0.732  13.274  0.5753 -0.4866 -0.2636
 7020TIP3    H142551   4.219   0.707  13.362  0.8018  0.3698  0.0615
 7020TIP3    H242552   4.282   0.821  13.285  0.3869 -0.2842 -1.2593
 7021TIP3   OH242553   3.233   1.268   4.207  0.4449  0.3188  0.2056
 7021TIP3    H142554   3.140   1.272   4.185  0.3526  0.9841  0.6993
 7021TIP3    H242555   3.257   1.358   4.227  0.9966  0.0147  0.9278
 7022TIP3   OH242556   0.764   5.206   2.369  0.2878  0.5092  0.4888
 7022TIP3    H142557   0.747   5.290   2.411  3.5236  0.8692  1.1978
 7022TIP3    H242558   0.844   5.174   2.410 -0.9323 -3.0175  0.3145
 7023TIP3   OH242559   6.649   2.845   2.906  0.2812 -0.0695 -0.2464
 7023TIP3    H142560   6.702   2.835   2.827  0.1014 -1.5002 -0.2106
 7023TIP3    H242561   6.678   2.774   2.963 -2.1334 -1.3340 -0.5038
 7024TIP3   OH242562   6.766   5.142  12.345 -0.7244 -0.5626 -0.4819
 7024TIP3    H142563   6.781   5.059  12.301 -2.1400 -0.8357 -0.4889
 7024TIP3    H242564   6.692   5.125  12.403 -0.4754  0.4682  0.1484
 7025TIP3   OH242565   6.476   4.172   3.928 -0.1918 -0.5251  0.3087
 7025TIP3    H142566   6.449   4.238   3.865 -0.5199  0.0668  1.0596
 7025TIP3    H242567   6.499   4.221   4.007  1.0578 -1.1822  0.3833
 7026TIP3   OH242568   5.768   3.866  11.270 -0.7296  0.5629  0.0133
 7026TIP3    H142569   5.772   3.880  11.364  0.6853  0.6439 -0.0422
 7026TIP3    H242570   5.825   3.933  11.233 -2.2107  1.2922 -1.0001
 7027TIP3   OH242571   1.839   0.488  11.017 -0.1003  0.0857 -0.2339
 7027TIP3    H142572   1.793   0.407  10.999 -0.9540 -0.4788  3.9962
 7027TIP3    H242573   1.893   0.504  10.939 -1.4522 -3.4165 -1.9478
 7028TIP3   OH242574   3.453   3.206   5.095  0.3198  0.0094  0.4745
 7028TIP3    H142575   3.544   3.214   5.124  1.1271 -0.4733 -1.7914
 7028TIP3    H242576   3.406   3.172   5.172  2.6595 -2.7511  0.7997
 7029TIP3   OH242577   6.191   4.615  10.655  0.2517 -0.5884 -0.3029
 7029TIP3    H142578   6.099   4.589  10.662  0.3224 -0.4982  1.2588
 7029TIP3    H242579   6.206   4.627  10.562 -0.8271 -2.4133 -0.7278
 7030TIP3   OH242580   2.682   1.343   0.365  0.1458  0.3207  0.0620
 7030TIP3    H142581   2.704   1.255   0.335  2.5170  1.2048 -0.8969
 7030TIP3    H242582   2.666   1.393   0.285 -3.8292  0.1599  0.6739
 7031TIP3   OH242583   5.429   3.539   4.234 -0.4040  0.3776 -0.6886
 7031TIP3    H142584   5.356   3.488   4.199 -0.3886  0.9177 -1.5228
 7031TIP3    H242585   5.405   3.630   4.216  1.1381  0.4968 -2.2711
 7032TIP3   OH242586   5.571   0.743  16.473  0.3728 -1.0734 -0.2678
 7032TIP3    H142587   5.524   0.662  16.494 -1.5007 -0.2709 -1.2692
 7032TIP3    H242588   5.503   0.811  16.471  1.7248  0.3059 -0.7242
 7033TIP3   OH242589   4.822   1.310   5.537  0.4889 -0.3033 -0.1017
 7033TIP3    H142590   4.881   1.292   5.610  1.3594  2.2663 -0.0962
 7033TIP3    H242591   4.752   1.364   5.575 -0.4049 -1.0430 -0.6641
 7034TIP3   OH242592   3.407   5.883  16.621 -0.6337 -0.0466 -0.2422
 7034TIP3    H142593   3.494   5.924  16.617 -1.5017  1.8574 -0.3236
 7034TIP3    H242594   3.363   5.913  16.541 -1.0514 -1.7895 -0.6917
 7035TIP3   OH242595   4.592   6.433  11.307  0.1368  0.0071 -0.3769
 7035TIP3    H142596   4.597   6.513  11.359  0.5466 -0.8706  0.9527
 7035TIP3    H242597   4.676   6.430  11.260  0.1619  0.2923 -0.3550
 7036TIP3   OH242598   0.952   1.540   1.089 -0.5387  0.3675  0.2929
 7036TIP3    H142599   0.971   1.629   1.058  1.2176 -0.8219 -2.2288
 7036TIP3    H242600   0.917   1.495   1.012 -0.6207 -1.3678  1.3300
 7037TIP3   OH242601   1.068   6.332   3.575  0.4156 -0.3649 -0.7817
 7037TIP3    H142602   1.146   6.300   3.619  0.7976  0.7186 -0.6424
 7037TIP3    H242603   1.097   6.410   3.528 -0.5710  0.0451 -0.7431
 7038TIP3   OH242604   1.528   1.511   2.858 -0.1544  0.6847  0.0517
 7038TIP3    H142605   1.524   1.438   2.920  0.0619  0.2344 -0.4653
 7038TIP3    H242606   1.575   1.476   2.783 -1.6557  0.8007 -0.9499
 7039TIP3   OH242607   4.521   2.007   0.697 -0.1132  0.7395  0.2744
 7039TIP3    H142608   4.444   1.984   0.750  0.0261 -0.6885 -0.1120
 7039TIP3    H242609   4.485   2.055   0.622 -0.6310  0.1555  0.1377
 7040TIP3   OH242610   0.103   5.175   5.059 -1.1094  0.3658 -0.5167
 7040TIP3    H142611   0.162   5.250   5.054 -0.0691 -0.4101 -0.0610
 7040TIP3    H242612   0.028   5.207   5.109 -1.1665  1.4126 -1.2532
 7041TIP3   OH242613   2.589   3.470  11.899 -0.5251  0.6211  0.1937
 7041TIP3    H142614   2.637   3.388  11.914  0.9097  1.5878  0.9959
 7041TIP3    H242615   2.516   3.445  11.842  1.1022 -0.8143 -1.3107
 7042TIP3   OH242616   6.094   0.538   2.992  0.2464  0.4819 -0.1335
 7042TIP3    H142617   6.050   0.456   2.973  0.3812  0.5382 -0.7150
 7042TIP3    H242618   6.182   0.528   2.954 -1.2420  2.6407 -4.5315
 7043TIP3   OH242619   0.253   1.651  15.151  0.2034  0.3618 -0.1616
 7043TIP3    H142620   0.252   1.583  15.084  0.6041  1.9051 -1.7730
 7043TIP3    H242621   0.281   1.606  15.231 -0.4738 -1.5438 -0.9708
 7044TIP3   OH242622   6.270   4.735   3.642 -0.2910  0.2458 -0.6106
 7044TIP3    H142623   6.208   4.806   3.654  0.0766  0.8257 -2.0225
 7044TIP3    H242624   6.221   4.656   3.664 -1.3494  0.7570 -1.1030
 7045TIP3   OH242625   4.553   5.873  11.315 -0.3369 -0.1613  0.5125
 7045TIP3    H142626   4.487   5.941  11.324 -0.6608 -0.3406 -0.5051
 7045TIP3    H242627   4.635   5.915  11.343 -0.4214  0.8381 -0.7424
 7046TIP3   OH242628   6.291   1.260  14.396 -0.1976 -0.1308  0.0223
 7046TIP3    H142629   6.220   1.278  14.334 -2.1655 -3.2666  1.2565
 7046TIP3    H242630   6.368   1.302  14.357 -1.9498  0.2450 -3.1834
 7047TIP3   OH242631   6.306   6.145  11.730  0.0188 -0.2186 -0.3596
 7047TIP3    H142632   6.234   6.085  11.750  0.4449 -1.2040 -1.6332
 7047TIP3    H242633   6.338   6.173  11.815 -0.4748 -1.4901  0.2691
 7048TIP3   OH242634   4.921   3.797  15.430 -0.2509  0.2158  0.4722
 7048TIP3    H142635   4.944   3.745  15.506  0.7836  1.2102  0.8521
 7048TIP3    H242636   5.000   3.848  15.410 -0.9539  0.9971 -0.4027
 7049TIP3   OH242637   0.211   5.605   5.705  0.0881  0.1000 -0.0994
 7049TIP3    H142638   0.257   5.682   5.670  0.1856  0.6804  1.2713
 7049TIP3    H242639   0.225   5.610   5.800  0.7851 -2.0580 -0.0619
 7050TIP3   OH242640   2.285   3.944   0.560  0.2557  0.2139 -0.0586
 7050TIP3    H142641   2.343   4.005   0.606  0.3093 -0.3617  0.6604
 7050TIP3    H242642   2.330   3.925   0.478  0.4006  0.8720 -0.1335
 7051TIP3   OH242643   3.351   3.424  10.839 -0.0053 -0.5796 -0.8586
 7051TIP3    H142644   3.290   3.493  10.810  0.4213  0.2235  0.1274
 7051TIP3    H242645   3.294   3.358  10.879 -0.2207  0.3789  0.4748
 7052TIP3   OH242646   6.095   4.604   3.995 -0.1663  0.2150 -0.0362
 7052TIP3    H142647   6.040   4.627   4.071  1.4964  0.2178  1.1945
 7052TIP3    H242648   6.127   4.688   3.963  0.7076  0.0857  0.4803
 7053TIP3   OH242649   6.534   2.205   6.199  0.1213  0.3992 -0.4643
 7053TIP3    H142650   6.551   2.285   6.249 -0.3676  0.0655  0.2500
 7053TIP3    H242651   6.619   2.164   6.190  0.2898  0.7164 -0.3448
 7054TIP3   OH242652   3.686   1.043   0.614 -0.5606 -0.7946 -0.2464
 7054TIP3    H142653   3.650   1.065   0.700 -0.3568  0.0316 -0.3688
 7054TIP3    H242654   3.767   0.995   0.634  1.1386  2.0725  0.0544
 7055TIP3   OH242655   6.668   4.950   4.737 -0.2648  0.2021  0.6196
 7055TIP3    H142656   6.591   4.900   4.763 -0.5396 -0.2028 -0.9093
 7055TIP3    H242657   6.634   5.034   4.705  0.0956  0.8560  1.9430
 7056TIP3   OH242658   5.652   4.039   4.794  0.0303 -0.0389  0.1312
 7056TIP3    H142659   5.676   4.074   4.709  0.5926  1.0907  0.7463
 7056TIP3    H242660   5.731   4.048   4.847 -0.1258 -1.3003  0.6076
 7057TIP3   OH242661   5.523   3.660  11.480 -0.3062  0.4405  0.2551
 7057TIP3    H142662   5.476   3.577  11.492  1.5609 -0.4386  1.6592
 7057TIP3    H242663   5.532   3.695  11.568 -2.0674  2.7374 -0.4244
 7058TIP3   OH242664   3.879   3.654  16.118  0.1139  0.4454  0.0916
 7058TIP3    H142665   3.794   3.611  16.115  0.8723 -0.9890 -2.1622
 7058TIP3    H242666   3.873   3.722  16.051  1.5339 -1.2407 -1.7880
 7059TIP3   OH242667   5.181   4.100   5.708 -0.3720 -0.0946 -0.7654
 7059TIP3    H142668   5.124   4.156   5.656  1.2642  1.4015 -0.9811
 7059TIP3    H242669   5.126   4.072   5.781 -1.1627  1.9735 -0.5263
 7060TIP3   OH242670   3.022   6.819   0.516  0.4004  0.4700  0.3240
 7060TIP3    H142671   3.076   6.752   0.475  1.2648  0.9276  0.7092
 7060TIP3    H242672   2.988   6.870   0.442 -2.0799 -1.7252 -0.1244
 7061TIP3   OH242673   5.621   4.177   2.879  0.1179  0.3603  0.3693
 7061TIP3    H142674   5.637   4.222   2.796  2.1656  0.5284  0.8284
 7061TIP3    H242675   5.528   4.191   2.897 -0.1176  1.1370 -1.4158
 7062TIP3   OH242676   3.048   4.979   4.338 -0.2744  0.0224 -0.0621
 7062TIP3    H142677   3.069   5.072   4.344  1.0234 -0.2104 -0.7240
 7062TIP3    H242678   2.953   4.977   4.323 -0.4345  1.1982  0.6860
 7063TIP3   OH242679   1.613   6.597  13.846  0.0156 -0.1480 -0.2643
 7063TIP3    H142680   1.631   6.510  13.881 -0.1692 -0.6065 -1.3226
 7063TIP3    H242681   1.621   6.655  13.923  0.9089 -0.9837  0.2933
 7064TIP3   OH242682   4.189   3.576  16.815  0.1024  0.3605  0.5616
 7064TIP3    H142683   4.223   3.592  16.903  0.8559 -1.8682  0.7175
 7064TIP3    H242684   4.258   3.609  16.757 -0.1938  1.4268  0.8192
 7065TIP3   OH242685   0.410   5.052   2.983  0.8548 -0.4189 -0.0676
 7065TIP3    H142686   0.357   4.996   2.926  1.2108 -0.5491 -0.2733
 7065TIP3    H242687   0.404   5.139   2.943  0.4851 -0.3584  0.1240
 7066TIP3   OH242688   3.835   2.780   1.323  0.0801  0.2770 -0.6805
 7066TIP3    H142689   3.834   2.690   1.357 -0.6767  0.4504 -0.2307
 7066TIP3    H242690   3.921   2.789   1.282  0.1717 -0.6488 -0.7150
 7067TIP3   OH242691   4.742   2.645  13.860 -0.2190  0.1074 -0.2194
 7067TIP3    H142692   4.803   2.576  13.887  0.3911  0.7743  0.1115
 7067TIP3    H242693   4.797   2.721  13.845 -0.9462  0.6569 -0.1259
 7068TIP3   OH242694   2.337   3.920   5.643  0.3182 -0.1994  0.1727
 7068TIP3    H142695   2.290   3.843   5.676 -0.9814  0.2540 -0.6166
 7068TIP3    H242696   2.400   3.940   5.713 -2.4451  0.7869  2.4867
 7069TIP3   OH242697   4.738   3.721   0.536 -0.5455 -0.4125  0.2480
 7069TIP3    H142698   4.806   3.655   0.546  0.5385  0.6558  0.0946
 7069TIP3    H242699   4.659   3.681   0.571  0.0327 -1.8885 -0.1309
 7070TIP3   OH242700   3.247   3.875  12.422  0.1696 -0.2525  0.1704
 7070TIP3    H142701   3.270   3.892  12.331 -1.7296 -0.7898 -0.4353
 7070TIP3    H242702   3.311   3.811  12.452  0.3384 -0.6485 -1.0157
 7071TIP3   OH242703   1.855   5.998  16.915 -0.1005  0.6483 -0.4966
 7071TIP3    H142704   1.878   5.919  16.964  1.4479  1.3634 -0.0428
 7071TIP3    H242705   1.761   5.990  16.901 -0.5554  0.2656  2.3482
 7072TIP3   OH242706   6.769   4.905  11.073 -0.1107  0.0449  0.1669
 7072TIP3    H142707   6.799   4.827  11.026 -2.2219  0.2543 -1.6183
 7072TIP3    H242708   6.708   4.872  11.138  0.5947  0.0262  0.8260
 7073TIP3   OH242709   4.638   5.652   3.731  0.0447  0.4716 -0.0242
 7073TIP3    H142710   4.696   5.663   3.656  0.9540 -2.3548  0.2102
 7073TIP3    H242711   4.562   5.604   3.697  1.5348 -2.9334  1.2710
 7074TIP3   OH242712   1.691   1.535   0.271  0.1688  0.3894  0.0680
 7074TIP3    H142713   1.681   1.626   0.300  2.9245  0.6814  0.1680
 7074TIP3    H242714   1.735   1.542   0.186  1.0071 -0.8699  0.3863
 7075TIP3   OH242715   2.123   4.477  16.414  0.3418 -0.3639 -0.0403
 7075TIP3    H142716   2.109   4.456  16.506  1.0181 -1.6744 -0.2190
 7075TIP3    H242717   2.214   4.507  16.410  0.1020  0.3569 -0.1734
 7076TIP3   OH242718   5.194   0.678   3.571 -0.3442 -0.1166  0.3202
 7076TIP3    H142719   5.227   0.744   3.632  0.7041 -0.1066 -0.2311
 7076TIP3    H242720   5.164   0.606   3.627 -0.4289  0.3619  0.8846
 7077TIP3   OH242721   1.064   0.983  13.740 -0.3279 -0.3326 -0.1457
 7077TIP3    H142722   1.038   1.072  13.714  0.0302 -0.3290 -0.4989
 7077TIP3    H242723   1.014   0.925  13.682  0.1591 -0.3354 -0.5656
 7078TIP3   OH242724   4.247   6.135  16.451 -0.4609  0.2985  0.3936
 7078TIP3    H142725   4.156   6.143  16.480 -0.2395  1.3435  0.8175
 7078TIP3    H242726   4.297   6.190  16.512  0.5871 -1.0464  0.7680
 7079TIP3   OH242727   0.357   2.516   1.078 -0.0880 -0.1303 -0.0192
 7079TIP3    H142728   0.406   2.438   1.054  0.8934  1.1396 -2.2847
 7079TIP3    H242729   0.286   2.521   1.013 -0.0465  0.9378  0.0086
 7080TIP3   OH242730   6.112   5.047  14.083  0.2129  0.2807 -0.2608
 7080TIP3    H142731   6.174   5.102  14.132  1.1260 -0.3890 -0.6693
 7080TIP3    H242732   6.074   5.107  14.018  0.4770  0.6738 -0.0592
 7081TIP3   OH242733   5.066   5.571  16.216 -0.0566  0.3240 -0.3520
 7081TIP3    H142734   5.056   5.555  16.310  0.1085 -0.2021 -0.4221
 7081TIP3    H242735   5.108   5.491  16.183  1.0962  1.0585 -0.6589
 7082TIP3   OH242736   4.645   2.067   1.856  0.3681  0.9204  0.0889
 7082TIP3    H142737   4.554   2.038   1.849  0.4835  0.5604  0.0173
 7082TIP3    H242738   4.687   1.999   1.910  0.7789  0.6440 -0.5700
 7083TIP3   OH242739   0.242   5.522   4.615  0.3881 -0.6001  0.5120
 7083TIP3    H142740   0.278   5.595   4.664 -0.4117 -0.5475  1.0250
 7083TIP3    H242741   0.306   5.452   4.625  0.5393 -0.3768  1.0798
 7084TIP3   OH242742   0.377   3.040   1.201  0.3559  0.7243 -0.1489
 7084TIP3    H142743   0.447   3.063   1.141  2.5131 -1.3316  1.4915
 7084TIP3    H242744   0.380   2.945   1.207 -3.4317  0.4878 -1.0048
 7085TIP3   OH242745   4.208   4.534   4.682 -1.0048  0.2220 -0.1942
 7085TIP3    H142746   4.113   4.548   4.685 -1.0630 -0.3181  0.3477
 7085TIP3    H242747   4.239   4.605   4.625 -1.4865  1.7193  1.3500
 7086TIP3   OH242748   1.641   0.821   2.652 -0.3962 -0.0827 -0.1725
 7086TIP3    H142749   1.585   0.847   2.579  0.3695  1.7285 -0.1325
 7086TIP3    H242750   1.584   0.768   2.708 -1.1023 -1.1297 -1.8333
 7087TIP3   OH242751   1.002   3.727  16.670  0.3068  0.1419 -0.1858
 7087TIP3    H142752   0.910   3.701  16.670  0.1644  0.6331 -1.0689
 7087TIP3    H242753   1.040   3.680  16.744 -0.9764  1.1232  1.1221
 7088TIP3   OH242754   1.853   0.195  14.861  0.2368 -0.3862  0.3273
 7088TIP3    H142755   1.770   0.168  14.822 -0.3061 -0.0059  1.1990
 7088TIP3    H242756   1.918   0.139  14.820 -0.3342 -0.0646 -1.0389
 7089TIP3   OH242757   4.751   3.238  16.411 -0.0678  0.0775 -0.0029
 7089TIP3    H142758   4.751   3.217  16.504  0.8382 -0.6226 -0.1537
 7089TIP3    H242759   4.696   3.171  16.371  0.1185 -0.0441 -0.0594
 7090TIP3   OH242760   2.214   2.883   4.271  0.2545  0.1375 -0.2056
 7090TIP3    H142761   2.211   2.900   4.177  0.0694 -1.4370 -0.5068
 7090TIP3    H242762   2.144   2.937   4.308 -0.6439 -0.3382 -1.1712
 7091TIP3   OH242763   2.536   1.821  16.875 -0.1542 -0.1946  0.0948
 7091TIP3    H142764   2.518   1.835  16.783  0.7912  2.1388  0.2400
 7091TIP3    H242765   2.580   1.736  16.878 -0.6402 -0.5150 -1.5300
 7092TIP3   OH242766   4.593   2.356  17.272  0.5674  0.9224  0.3023
 7092TIP3    H142767   4.687   2.339  17.275  0.4493 -0.1454 -1.2655
 7092TIP3    H242768   4.568   2.336  17.182 -0.9151  2.6001  0.3103
 7093TIP3   OH242769   6.550   5.968  16.514 -0.1341 -0.5808  0.2261
 7093TIP3    H142770   6.551   5.976  16.419  0.5578  2.0323  0.4156
 7093TIP3    H242771   6.493   5.893  16.531 -0.4912 -0.9085 -2.2302
 7094TIP3   OH242772   6.182   3.682   2.248  0.0764 -1.0149  0.0245
 7094TIP3    H142773   6.262   3.639   2.220  1.9400  0.8906  2.2992
 7094TIP3    H242774   6.167   3.750   2.183 -0.7551 -2.5050 -1.4019
 7095TIP3   OH242775   2.683   3.577   0.436 -0.0406 -0.2192  0.0816
 7095TIP3    H142776   2.727   3.652   0.398  0.6660 -0.0455  1.2212
 7095TIP3    H242777   2.724   3.501   0.394 -0.8540  0.0229 -1.1728
 7096TIP3   OH242778   1.989   4.635   1.527 -0.3340  0.0842  0.0579
 7096TIP3    H142779   1.970   4.717   1.481 -0.3601 -0.1286 -0.3175
 7096TIP3    H242780   1.902   4.600   1.550 -0.2971  0.5338  0.8824
 7097TIP3   OH242781   2.974   0.109   0.238  0.1025 -0.1128 -0.1137
 7097TIP3    H142782   2.968   0.197   0.202 -1.4970  0.1409  0.7276
 7097TIP3    H242783   2.883   0.083   0.255  0.5333 -2.0104 -0.5474
 7098TIP3   OH242784   4.702   1.720   1.229 -0.4728 -0.8422  0.1278
 7098TIP3    H142785   4.683   1.799   1.281 -2.2101 -0.9499 -0.3005
 7098TIP3    H242786   4.677   1.744   1.140  0.3502 -1.4181 -0.2661
 7099TIP3   OH242787   6.679   6.243   3.702 -0.5115  0.2556  0.0825
 7099TIP3    H142788   6.604   6.184   3.692 -0.4752  0.4003 -1.0691
 7099TIP3    H242789   6.640   6.326   3.730 -0.6163 -0.1436  1.1427
 7100TIP3   OH242790   4.192   0.551   5.845 -0.0291  0.3273 -0.0752
 7100TIP3    H142791   4.246   0.546   5.924 -0.1661 -1.0007 -0.0629
 7100TIP3    H242792   4.151   0.465   5.838 -1.0252  0.8569 -0.8856
 7101TIP3   OH242793   2.749   2.137   6.246  0.0978  0.2359  0.7435
 7101TIP3    H142794   2.664   2.092   6.249  0.2365 -0.0684  0.0843
 7101TIP3    H242795   2.796   2.095   6.175  0.6060  0.7626  0.7676
 7102TIP3   OH242796   5.273   1.890  14.199 -0.5265  0.0192 -0.2998
 7102TIP3    H142797   5.344   1.868  14.260 -1.2862  0.1655  0.6639
 7102TIP3    H242798   5.239   1.805  14.171  0.0481 -0.0515 -0.7940
 7103TIP3   OH242799   3.337   4.218  14.362 -0.3919 -0.1631  0.0515
 7103TIP3    H142800   3.432   4.228  14.358 -0.4648  0.5637  0.0326
 7103TIP3    H242801   3.324   4.134  14.405  0.2611 -0.3277 -0.0569
 7104TIP3   OH242802   6.025   6.105  12.914  0.4244 -0.0409  0.5955
 7104TIP3    H142803   5.942   6.153  12.904  0.6509 -0.0832 -1.7607
 7104TIP3    H242804   6.022   6.038  12.846  2.4554  0.0197  0.4329
 7105TIP3   OH242805   0.787   4.702   1.662  0.2106 -0.0054  0.0312
 7105TIP3    H142806   0.721   4.743   1.717 -0.0045 -0.0488 -0.1910
 7105TIP3    H242807   0.759   4.722   1.572  0.1992 -0.4893 -0.0748
 7106TIP3   OH242808   0.897   0.285  13.154  0.5008 -0.2055  0.4137
 7106TIP3    H142809   0.956   0.257  13.084 -0.5897 -1.8237  0.1122
 7106TIP3    H242810   0.955   0.309  13.227  1.5623 -0.6026 -0.2931
 7107TIP3   OH242811   1.867   5.692  11.264 -0.1699  0.0603  0.2174
 7107TIP3    H142812   1.872   5.782  11.234 -1.1219 -0.3187 -1.1508
 7107TIP3    H242813   1.952   5.674  11.304 -0.1991  1.7457  1.0668
 7108TIP3   OH242814   1.991   0.374   0.681  0.3330  0.5649 -0.6209
 7108TIP3    H142815   1.909   0.400   0.721  0.0246  0.8500 -1.4311
 7108TIP3    H242816   2.035   0.457   0.659  0.9774  0.4192  0.0951
 7109TIP3   OH242817   4.338   1.895   5.960 -0.0585  0.5200  0.1156
 7109TIP3    H142818   4.281   1.874   5.886  1.2233 -1.6560 -0.3046
 7109TIP3    H242819   4.307   1.840   6.032  0.8779  0.0446  0.1702
 7110TIP3   OH242820   1.259   5.591   3.368 -0.2587  0.7888 -0.2822
 7110TIP3    H142821   1.196   5.530   3.329  0.7009  0.0506 -0.7053
 7110TIP3    H242822   1.261   5.567   3.461 -0.7303  0.9317 -0.2354
 7111TIP3   OH242823   5.086   5.119  14.993 -0.1358 -0.2275 -0.2494
 7111TIP3    H142824   5.036   5.088  15.068  1.3172  0.2638  0.9618
 7111TIP3    H242825   5.067   5.213  14.989 -1.0864 -0.4492 -1.2033
 7112TIP3   OH242826   0.249   5.447   2.725  0.7663 -0.2968 -0.1729
 7112TIP3    H142827   0.176   5.388   2.704  0.8214  0.2517 -1.9472
 7112TIP3    H242828   0.240   5.519   2.663  2.5613 -0.0127 -0.1180
 7113TIP3   OH242829   1.301   3.865  15.706  0.8587 -0.0312 -0.5114
 7113TIP3    H142830   1.223   3.848  15.653  0.7058  0.2352 -0.3717
 7113TIP3    H242831   1.302   3.960  15.718  0.5429 -0.1541  0.4966
 7114TIP3   OH242832   1.086   6.687   1.717  0.1252  0.5523  0.5006
 7114TIP3    H142833   1.056   6.597   1.733  1.0544  0.1822  0.2122
 7114TIP3    H242834   1.006   6.735   1.696 -0.4189 -0.1492  0.9083
 7115TIP3   OH242835   5.595   6.335  13.944 -0.0227  0.1696 -0.1836
 7115TIP3    H142836   5.685   6.315  13.968 -0.1587 -2.3029 -1.5179
 7115TIP3    H242837   5.563   6.393  14.013  2.6602  1.3077  0.1541
 7116TIP3   OH242838   5.923   3.916  13.668  0.0639 -0.0179  0.3651
 7116TIP3    H142839   5.836   3.894  13.701 -0.6047  2.8899  0.7072
 7116TIP3    H242840   5.910   3.931  13.574  0.4806 -0.9874  0.1516
 7117TIP3   OH242841   3.809   1.060  13.425 -0.0278  0.1256 -0.2249
 7117TIP3    H142842   3.802   1.143  13.377  1.4646  0.5530  0.2832
 7117TIP3    H242843   3.783   1.082  13.515 -0.5875 -0.1739 -0.3120
 7118TIP3   OH242844   2.735   4.529  11.745 -0.1080 -0.2956  0.0711
 7118TIP3    H142845   2.828   4.542  11.725 -0.0254  2.0139  1.7145
 7118TIP3    H242846   2.732   4.443  11.788  1.3751 -0.1562  0.5013
 7119TIP3   OH242847   4.920   6.657   5.198 -0.1904 -0.2116 -0.6542
 7119TIP3    H142848   4.955   6.676   5.284 -0.1222  0.0165 -0.7330
 7119TIP3    H242849   4.850   6.721   5.185  0.1853  0.1247 -1.0109
 7120TIP3   OH242850   4.042   2.694   6.182  0.1213  0.6730  0.3790
 7120TIP3    H142851   4.116   2.727   6.233  0.6401  0.6358 -0.3324
 7120TIP3    H242852   4.054   2.599   6.182  1.1830  0.7726 -1.3538
 7121TIP3   OH242853   0.228   2.921  16.745  0.2180 -0.3633 -0.2245
 7121TIP3    H142854   0.205   2.924  16.838  0.2720  0.2044 -0.2283
 7121TIP3    H242855   0.166   2.981  16.703  0.8883  0.2053 -0.4089
 7122TIP3   OH242856   0.895   3.412   0.452  0.1182  0.2416  0.2342
 7122TIP3    H142857   0.873   3.322   0.429  0.4866  0.0678  0.5462
 7122TIP3    H242858   0.821   3.444   0.503  0.0856  0.0447  0.3072
 7123TIP3   OH242859   3.514   3.402  13.158  0.1651 -0.1579  0.2537
 7123TIP3    H142860   3.566   3.369  13.085 -2.9711 -0.0699 -2.0860
 7123TIP3    H242861   3.555   3.485  13.182  1.7335 -0.6084 -0.8053
 7124TIP3   OH242862   2.781   5.091   1.669 -0.2662  0.0917  0.1720
 7124TIP3    H142863   2.730   5.050   1.738 -0.5019 -2.0192 -1.1957
 7124TIP3    H242864   2.766   5.185   1.679 -2.3342 -0.3571  1.3833
 7125TIP3   OH242865   1.125   5.149  15.832  0.4016  0.1585  0.3894
 7125TIP3    H142866   1.120   5.162  15.738  0.1366  0.5349  0.4530
 7125TIP3    H242867   1.165   5.063  15.843 -2.8070 -1.4622 -0.1197
 7126TIP3   OH242868   1.322   0.909   4.127  0.3795 -0.4346  0.0245
 7126TIP3    H142869   1.241   0.940   4.086  0.3707  2.7676  2.2849
 7126TIP3    H242870   1.392   0.957   4.082  0.6966 -0.1236  0.8439
 7127TIP3   OH242871   2.313   1.309   2.587  0.3102 -0.1363 -0.1090
 7127TIP3    H142872   2.243   1.325   2.524 -0.3256  0.4063  0.7280
 7127TIP3    H242873   2.351   1.225   2.559 -0.4347 -0.2611 -0.7808
 7128TIP3   OH242874   6.085   0.279  14.153  0.1468 -0.9218  0.3852
 7128TIP3    H142875   6.110   0.193  14.120 -1.6562 -1.6334  0.7911
 7128TIP3    H242876   6.118   0.280  14.243  1.9863 -0.3512 -0.2676
 7129TIP3   OH242877   2.346   3.264  13.549 -0.1663  0.1214 -0.0704
 7129TIP3    H142878   2.304   3.266  13.635  2.8840 -0.7445  1.5204
 7129TIP3    H242879   2.345   3.171  13.524 -3.2198  0.6507 -2.1619
 7130TIP3   OH242880   4.567   2.028  13.724  0.1157  0.7974 -0.1707
 7130TIP3    H142881   4.570   1.961  13.656  0.0295 -0.1177  0.7155
 7130TIP3    H242882   4.583   2.110  13.678  1.3275  0.0437 -1.1130
 7131TIP3   OH242883   3.306   6.511   1.261  1.1471 -0.2894 -0.4655
 7131TIP3    H142884   3.377   6.522   1.197 -0.6017 -1.3086 -2.6627
 7131TIP3    H242885   3.268   6.426   1.241  1.1361 -1.0605  2.5939
 7132TIP3   OH242886   5.384   1.995  11.885  0.3835  0.3500 -0.0114
 7132TIP3    H142887   5.475   1.965  11.880  0.8227  1.8785 -1.5297
 7132TIP3    H242888   5.349   1.977  11.798 -0.5656  0.4297  0.3564
 7133TIP3   OH242889   1.841   5.361   3.866 -0.1271 -0.0796 -0.0488
 7133TIP3    H142890   1.914   5.309   3.901  2.1594  4.0072  1.5599
 7133TIP3    H242891   1.777   5.364   3.937 -0.2711 -0.6705 -0.1504
 7134TIP3   OH242892   1.889   0.126  17.160  0.0445  0.1179  0.2659
 7134TIP3    H142893   1.915   0.147  17.250 -0.5734  0.4641  0.3600
 7134TIP3    H242894   1.843   0.204  17.129  0.9097  0.2946 -0.6080
 7135TIP3   OH242895   0.194   6.131   6.064 -0.2513 -0.0898  0.3211
 7135TIP3    H142896   0.146   6.127   6.147  2.2684  1.4711  1.9396
 7135TIP3    H242897   0.286   6.122   6.089  0.6605  1.6822 -2.1513
 7136TIP3   OH242898   2.980   3.331  12.792  0.5109  0.5689 -0.6163
 7136TIP3    H142899   2.937   3.416  12.798  2.0182  1.2970 -0.0347
 7136TIP3    H242900   2.981   3.298  12.882 -1.9748 -1.0455 -1.1241
 7137TIP3   OH242901   0.127   1.250   5.044  0.2314 -0.4385  0.5124
 7137TIP3    H142902   0.202   1.221   5.097  0.0747 -1.1308  0.3552
 7137TIP3    H242903   0.102   1.333   5.084 -0.2925 -1.2693  1.9508
 7138TIP3   OH242904   4.644   0.913  11.743  0.5059 -0.0371 -0.4993
 7138TIP3    H142905   4.586   0.980  11.780  1.3002  0.0509  0.5983
 7138TIP3    H242906   4.719   0.910  11.802  0.8795 -1.3020 -1.0127
 7139TIP3   OH242907   3.377   2.776   3.055 -0.7744  0.2304 -0.0864
 7139TIP3    H142908   3.340   2.741   2.974  1.9464 -0.8820 -0.9005
 7139TIP3    H242909   3.424   2.702   3.094 -0.2867  1.3085  1.4336
 7140TIP3   OH242910   1.663   6.778   5.114  0.2540  0.5595 -0.8452
 7140TIP3    H142911   1.727   6.749   5.049 -0.9159  1.0190 -2.2251
 7140TIP3    H242912   1.586   6.804   5.063 -2.4286 -3.3918  0.9003
 7141TIP3   OH242913   5.143   1.343  11.845 -0.3409 -0.6480 -0.2318
 7141TIP3    H142914   5.124   1.427  11.802 -1.4842 -0.9998 -0.4193
 7141TIP3    H242915   5.199   1.297  11.782  1.6130  0.5790  0.5322
 7142TIP3   OH242916   1.657   0.949  11.018 -0.8229  0.0055 -0.0648
 7142TIP3    H142917   1.656   0.869  10.964  2.7612 -0.9017  1.0997
 7142TIP3    H242918   1.672   1.020  10.955  0.8885 -0.7856 -0.5906
 7143TIP3   OH242919   1.306   0.906   5.838 -1.0725 -0.1683  0.7007
 7143TIP3    H142920   1.334   0.995   5.859 -1.3306 -0.5043  2.5502
 7143TIP3    H242921   1.378   0.870   5.786 -0.6297  0.8740  0.5825
 7144TIP3   OH242922   1.729   6.429  17.123 -0.2388 -0.0265  0.3740
 7144TIP3    H142923   1.755   6.481  17.047  2.3223 -1.2081  0.3896
 7144TIP3    H242924   1.781   6.464  17.195 -0.5879 -0.7513  0.9834
 7145TIP3   OH242925   0.677   0.846  14.275 -0.0048  0.2750  0.0538
 7145TIP3    H142926   0.616   0.808  14.211 -2.3283  2.4337  0.8874
 7145TIP3    H242927   0.693   0.935  14.243  2.4999 -0.1491  0.0466
 7146TIP3   OH242928   5.817   3.237  15.071 -0.3388 -0.6704  0.2926
 7146TIP3    H142929   5.791   3.190  15.151 -1.0367 -1.0511 -0.1449
 7146TIP3    H242930   5.830   3.167  15.007 -0.7887 -0.3044 -0.1999
 7147TIP3   OH242931   5.017   3.613   1.934  0.0892 -0.1155  0.5376
 7147TIP3    H142932   5.093   3.584   1.985  2.6504  3.1169 -1.2203
 7147TIP3    H242933   4.960   3.657   1.998  2.5941  2.6753  0.9470
 7148TIP3   OH242934   0.436   5.030  15.690  0.2852  0.6191 -0.4309
 7148TIP3    H142935   0.527   5.026  15.719  1.0779  0.4198 -2.8307
 7148TIP3    H242936   0.435   5.103  15.627 -1.5908  1.6955  0.7944
 7149TIP3   OH242937   3.979   1.848  16.757 -0.4546  0.2533  0.1377
 7149TIP3    H142938   4.031   1.773  16.727  0.3809  0.7712  0.2799
 7149TIP3    H242939   4.035   1.924  16.742 -0.8681  0.7440  1.0142
 7150TIP3   OH242940   0.415   0.705   0.840  0.4687 -0.3091 -0.2727
 7150TIP3    H142941   0.422   0.614   0.866  0.9236 -0.0564  0.4921
 7150TIP3    H242942   0.456   0.754   0.911 -1.5478  0.6345  0.2924
 7151TIP3   OH242943   1.008   3.045   0.091 -0.0224  0.4325  0.1364
 7151TIP3    H142944   1.058   3.055   0.009  0.0841 -1.4983 -0.0409
 7151TIP3    H242945   0.936   3.108   0.083  1.4186  2.0591 -0.3346
 7152TIP3   OH242946   5.986   1.166  16.083 -0.6570 -0.2484  0.5309
 7152TIP3    H142947   5.988   1.249  16.036  0.6171 -1.1066 -0.9931
 7152TIP3    H242948   5.910   1.120  16.048 -0.4608 -0.3508  0.2327
 7153TIP3   OH242949   5.543   0.221  15.894  0.0619  0.6364  0.4486
 7153TIP3    H142950   5.512   0.156  15.830 -0.3648  1.0322  0.2587
 7153TIP3    H242951   5.522   0.305  15.855  0.3047  0.8904  0.8635
 7154TIP3   OH242952   2.378   5.786  10.746 -0.4397 -0.3246  0.2655
 7154TIP3    H142953   2.306   5.749  10.696 -0.7865  1.5032 -0.5973
 7154TIP3    H242954   2.382   5.731  10.825 -1.6318 -1.5154 -0.4746
 7155TIP3   OH242955   5.007   4.746  16.002 -0.1148  0.1087  0.0279
 7155TIP3    H142956   5.061   4.784  15.933  1.4747 -0.6566  0.8350
 7155TIP3    H242957   4.940   4.812  16.020  1.3644  1.6212 -0.0343
 7156TIP3   OH242958   5.134   4.323   4.006  0.5055  0.1398  0.6804
 7156TIP3    H142959   5.183   4.264   3.949 -2.7072  0.4942 -2.7045
 7156TIP3    H242960   5.182   4.406   4.002  2.1530 -0.7680  1.2254
 7157TIP3   OH242961   2.022   5.832   2.361 -0.2743 -0.3439 -0.4045
 7157TIP3    H142962   2.076   5.910   2.346  2.7912 -2.4529 -0.7030
 7157TIP3    H242963   2.005   5.833   2.455 -0.3693  0.7831 -0.4302
 7158TIP3   OH242964   3.125   1.815  15.978  1.0171 -0.1697 -0.4470
 7158TIP3    H142965   3.213   1.778  15.982  0.8152 -0.6828 -0.6700
 7158TIP3    H242966   3.067   1.740  15.995  0.6068  0.0579 -0.8348
 7159TIP3   OH242967   3.783   2.324   1.997 -0.0739 -0.2368  0.0101
 7159TIP3    H142968   3.787   2.316   1.902 -0.7630  1.1152 -0.1475
 7159TIP3    H242969   3.874   2.338   2.023 -0.0119  0.4706 -0.5639
 7160TIP3   OH242970   4.144   2.313  12.323  0.0927 -0.8634 -0.1469
 7160TIP3    H142971   4.083   2.377  12.285  1.6044  0.9581  0.3955
 7160TIP3    H242972   4.174   2.261  12.248  1.5479  1.4176 -1.2204
 7161TIP3   OH242973   3.135   2.305   0.595 -0.5475 -0.4910  0.0010
 7161TIP3    H142974   3.130   2.386   0.645 -0.4244 -1.4494  1.5979
 7161TIP3    H242975   3.225   2.300   0.565 -1.1385  1.1644 -2.1965
 7162TIP3   OH242976   5.561   5.070   4.127  0.1383  0.0180 -0.2575
 7162TIP3    H142977   5.577   5.105   4.039  0.9770  1.6611  0.5419
 7162TIP3    H242978   5.550   5.147   4.182  1.6330 -0.9828  1.4718
 7163TIP3   OH242979   4.612   2.449  12.434 -0.5874 -0.7762  0.2724
 7163TIP3    H142980   4.549   2.475  12.368  0.3189 -0.7119 -0.5742
 7163TIP3    H242981   4.667   2.384  12.391 -0.8994 -1.8107  1.4104
 7164TIP3   OH242982   4.119   1.040   3.769 -0.3252 -0.5154  0.2626
 7164TIP3    H142983   4.204   1.036   3.726 -0.1310 -1.9962  0.7445
 7164TIP3    H242984   4.098   0.948   3.789  0.8591  0.2448  5.7027
 7165TIP3   OH242985   2.158   5.060  13.298  0.0845 -0.6030 -0.1064
 7165TIP3    H142986   2.077   5.069  13.349 -0.1277  0.3471 -0.6125
 7165TIP3    H242987   2.226   5.052  13.365 -0.1497  1.0001  0.3554
 7166TIP3   OH242988   0.302   3.020   4.821  0.6216  0.7387  0.5845
 7166TIP3    H142989   0.207   3.016   4.821  0.6739 -0.9668  1.5863
 7166TIP3    H242990   0.324   3.084   4.889  0.2313 -0.9105  2.2965
 7167TIP3   OH242991   0.841   6.035  13.339  0.1077 -0.3161  0.2958
 7167TIP3    H142992   0.863   6.119  13.379 -1.3871 -0.5288  1.6070
 7167TIP3    H242993   0.853   6.049  13.245 -2.9163  2.2908  0.2106
 7168TIP3   OH242994   5.691   0.239   0.395 -0.0796 -0.0014  0.7987
 7168TIP3    H142995   5.699   0.228   0.301 -1.0031 -2.2862  0.9403
 7168TIP3    H242996   5.778   0.217   0.430 -0.7523 -2.9738  0.7302
 7169TIP3   OH242997   2.326   2.747  14.507  0.1843  0.0213  0.7707
 7169TIP3    H142998   2.291   2.705  14.586 -0.1790  0.4698  0.8522
 7169TIP3    H242999   2.382   2.817  14.540  1.7762 -1.1660  0.6467
 7170TIP3   OH243000   4.564   1.541   6.484  0.0696  0.5654 -0.5661
 7170TIP3    H143001   4.605   1.609   6.431  0.9060  0.1736 -0.4204
 7170TIP3    H243002   4.596   1.459   6.448  2.1438  0.3157  1.7226
 7171TIP3   OH243003   3.108   1.285   3.911 -0.1502 -0.2302  0.1236
 7171TIP3    H143004   3.107   1.337   3.992  0.5273 -0.6231  0.3953
 7171TIP3    H243005   3.199   1.290   3.881 -0.0624 -1.3081  0.1903
 7172TIP3   OH243006   6.133   0.492   6.560 -0.2238  0.3622 -0.2713
 7172TIP3    H143007   6.178   0.412   6.588 -0.9084  0.3095  0.6954
 7172TIP3    H243008   6.059   0.460   6.508 -1.3178  0.3070  1.3021
 7173TIP3   OH243009   5.620   1.118   4.088  0.0837 -0.4441 -0.2059
 7173TIP3    H143010   5.682   1.103   4.017  0.4258 -1.9788  0.3963
 7173TIP3    H243011   5.535   1.129   4.044  0.4500 -0.3890 -0.9037
 7174TIP3   OH243012   1.565   6.283  11.775 -0.2943  0.4246  0.3250
 7174TIP3    H143013   1.578   6.267  11.682 -0.9630 -1.7004  0.5704
 7174TIP3    H243014   1.632   6.347  11.798  1.6525 -1.0929 -1.0182
 7175TIP3   OH243015   2.508   4.433  13.289  0.0696 -0.1287 -0.4030
 7175TIP3    H143016   2.559   4.411  13.211  1.4882 -2.9109  1.2459
 7175TIP3    H243017   2.561   4.498  13.335 -0.7851  1.5455 -1.6945
 7176TIP3   OH243018   1.623   5.844  12.906  0.1045 -0.0921  0.2510
 7176TIP3    H143019   1.698   5.853  12.965  2.2109  2.0467 -2.6043
 7176TIP3    H243020   1.661   5.817  12.823 -2.8162 -3.2390 -0.1729
 7177TIP3   OH243021   6.344   1.238  17.129 -0.3129 -0.5238 -0.0363
 7177TIP3    H143022   6.271   1.266  17.073 -2.1305  1.7192  3.2698
 7177TIP3    H243023   6.332   1.144  17.138 -1.4427 -0.5353 -1.3864
 7178TIP3   OH243024   2.648   0.813  11.658 -0.2776  0.9347  0.3112
 7178TIP3    H143025   2.668   0.726  11.624  0.4719  0.8491  0.9567
 7178TIP3    H243026   2.592   0.853  11.591  0.4996  0.4690 -0.6303
 7179TIP3   OH243027   6.135   2.445   0.340 -0.3136  0.5506 -0.2679
 7179TIP3    H143028   6.144   2.441   0.435 -4.3347  2.1792  0.2644
 7179TIP3    H243029   6.161   2.358   0.310  0.8651 -0.0316  2.3114
 7180TIP3   OH243030   2.615   5.790  11.613 -0.4392 -0.0955 -0.6239
 7180TIP3    H143031   2.652   5.833  11.536 -0.9265 -1.7350 -1.8001
 7180TIP3    H243032   2.543   5.846  11.640  0.5097  1.1280 -0.6166
 7181TIP3   OH243033   2.165   2.593  16.365  0.1224 -0.2833 -0.1181
 7181TIP3    H143034   2.098   2.536  16.403 -0.5137  0.8514  0.4609
 7181TIP3    H243035   2.129   2.681  16.371  2.2690  0.5373  1.5524
 7182TIP3   OH243036   4.184   6.626  15.560 -0.2634 -0.5948  0.1884
 7182TIP3    H143037   4.178   6.721  15.548 -0.2996 -0.3897  1.6732
 7182TIP3    H243038   4.213   6.616  15.651  1.0537 -1.9830 -0.3545
 7183TIP3   OH243039   3.793   4.745  11.612  0.3954 -0.2367  0.2835
 7183TIP3    H143040   3.812   4.834  11.640  1.1868 -0.2782 -0.1049
 7183TIP3    H243041   3.879   4.705  11.597  0.0251 -0.6793 -0.7237
 7184TIP3   OH243042   6.442   5.568   2.014  0.1536 -0.8479 -0.1594
 7184TIP3    H143043   6.528   5.544   1.980 -0.2482  0.3830 -2.1021
 7184TIP3    H243044   6.461   5.617   2.094  1.2830 -0.1543 -0.8350
 7185TIP3   OH243045   3.560   0.340   4.722  0.1037  0.2199 -0.1513
 7185TIP3    H143046   3.494   0.388   4.672  0.7720 -1.0537 -2.3309
 7185TIP3    H243047   3.629   0.405   4.739  0.1552  0.5254 -1.4757
 7186TIP3   OH243048   3.581   1.073   2.157  0.1200 -0.1514 -0.2761
 7186TIP3    H143049   3.675   1.061   2.145 -0.0915 -1.4741 -0.7341
 7186TIP3    H243050   3.573   1.160   2.196  1.5010  0.1276 -0.5670
 7187TIP3   OH243051   4.907   5.637  11.312 -0.2368 -0.4230  0.4894
 7187TIP3    H143052   4.901   5.691  11.391 -0.2899 -1.5937  1.2932
 7187TIP3    H243053   4.999   5.609  11.309 -0.0245  0.3472 -0.3581
 7188TIP3   OH243054   1.001   4.833   5.347  0.2010  0.6558  0.3316
 7188TIP3    H143055   0.975   4.763   5.287  0.5776 -1.6899  2.8214
 7188TIP3    H243056   1.097   4.828   5.349  0.2885  1.9324 -0.2429
 7189TIP3   OH243057   0.959   2.546  12.938  0.1714 -0.0668 -0.9113
 7189TIP3    H143058   0.965   2.474  12.875  0.2277  0.5343 -1.6006
 7189TIP3    H243059   0.879   2.528  12.988  0.1777 -0.5954 -1.0951
 7190TIP3   OH243060   2.671   1.046   4.674  0.2995  0.0390 -0.0455
 7190TIP3    H143061   2.602   1.052   4.607  0.2349  0.1474  0.0296
 7190TIP3    H243062   2.625   1.061   4.757  0.5897  1.1982 -0.0815
 7191TIP3   OH243063   0.250   6.697  12.186 -0.0277  0.3028 -0.1388
 7191TIP3    H143064   0.331   6.659  12.219 -0.1558  0.1922  0.0516
 7191TIP3    H243065   0.236   6.775  12.240 -0.3644 -0.0111  0.2362
 7192TIP3   OH243066   2.530   3.312  15.013  0.3546 -0.2799 -0.0898
 7192TIP3    H143067   2.508   3.402  14.990 -0.0630  0.0327  1.4637
 7192TIP3    H243068   2.603   3.290  14.956 -0.9434  0.2817 -2.0396
 7193TIP3   OH243069   0.911   3.615  15.813  0.1035  0.0091 -0.4129
 7193TIP3    H143070   1.000   3.635  15.842  0.1105 -0.4086 -0.1471
 7193TIP3    H243071   0.855   3.662  15.875  0.1471  1.8271 -1.6983
 7194TIP3   OH243072   0.770   6.388  13.728  0.2231 -0.2469  0.2647
 7194TIP3    H143073   0.805   6.455  13.787  0.0118 -0.3046  0.4565
 7194TIP3    H243074   0.773   6.307  13.780  2.0487 -0.7050 -0.5307
 7195TIP3   OH243075   1.403   4.842  13.239  0.1126 -0.0731  0.2747
 7195TIP3    H143076   1.496   4.849  13.217 -0.0187  0.0575 -0.2518
 7195TIP3    H243077   1.401   4.808  13.329  0.6300 -2.6255 -0.6394
 7196TIP3   OH243078   2.191   4.985  15.354  0.3342 -0.5268  0.0056
 7196TIP3    H143079   2.106   5.007  15.393  0.7115  1.4878 -0.2590
 7196TIP3    H243080   2.188   4.890  15.342 -2.0886 -0.4181 -0.5130
 7197TIP3   OH243081   1.855   5.210   5.024 -0.0516  0.4561  0.2297
 7197TIP3    H143082   1.932   5.258   5.052  1.0855  0.4301 -2.7023
 7197TIP3    H243083   1.889   5.136   4.973 -1.9380 -0.4975  0.3018
 7198TIP3   OH243084   0.729   3.672   1.996 -0.1551  0.5519 -0.2362
 7198TIP3    H143085   0.809   3.648   1.949 -0.2987 -0.8080  0.1992
 7198TIP3    H243086   0.741   3.637   2.084 -2.0966 -1.4629 -0.7393
 7199TIP3   OH243087   6.697   5.506   1.918  0.0776  0.1089 -0.4351
 7199TIP3    H143088   6.675   5.413   1.917 -2.9337  0.7925 -1.0097
 7199TIP3    H243089   6.767   5.515   1.854 -0.4185 -1.5639 -1.2257
 7200TIP3   OH243090   4.509   3.913  11.854 -0.0562  0.2474 -0.7046
 7200TIP3    H143091   4.415   3.929  11.848  0.4076  3.9020  0.7248
 7200TIP3    H243092   4.541   3.929  11.765 -0.7800 -1.2942 -1.2653
 7201TIP3   OH243093   5.766   4.322   5.045 -0.0060  0.1648 -0.4999
 7201TIP3    H143094   5.810   4.388   5.099  1.5762 -3.1287  2.4085
 7201TIP3    H243095   5.837   4.282   4.994 -0.6313 -0.5627 -0.8107
 7202TIP3   OH243096   1.760   2.484  12.713  0.6465 -0.4878 -0.8974
 7202TIP3    H143097   1.699   2.532  12.658  0.7489 -0.1754 -0.7422
 7202TIP3    H243098   1.705   2.424  12.763  0.5615 -0.8145 -1.3845
 7203TIP3   OH243099   5.634   0.264  14.006  0.8331  0.2703  0.4170
 7203TIP3    H143100   5.704   0.297  14.062  0.8755 -0.7096  0.9504
 7203TIP3    H243101   5.666   0.180  13.973 -0.0087 -0.1140  0.5378
 7204TIP3   OH243102   5.585   2.310  10.664 -0.9904  0.1629  0.2842
 7204TIP3    H143103   5.548   2.279  10.581 -0.2600  0.9370 -0.3449
 7204TIP3    H243104   5.636   2.236  10.696  2.4052  1.3093 -2.2207
 7205TIP3   OH243105   2.016   6.271  10.432 -0.1816  0.5673  0.3411
 7205TIP3    H143106   2.042   6.192  10.478  0.8954 -0.1700 -1.4961
 7205TIP3    H243107   2.096   6.303  10.391 -1.0043  1.5336 -0.5460
 7206TIP3   OH243108   2.420   2.289  14.647 -0.2282  0.1271 -0.1404
 7206TIP3    H143109   2.407   2.372  14.601 -0.1901  1.2340  1.8103
 7206TIP3    H243110   2.345   2.282  14.706  0.5471 -0.4740  0.7925
 7207TIP3   OH243111   4.629   5.813   1.877  0.2665  0.1265  0.0065
 7207TIP3    H143112   4.550   5.846   1.834 -0.5654  2.4205  3.0825
 7207TIP3    H243113   4.610   5.720   1.893 -0.7137  0.0259 -1.6233
 7208TIP3   OH243114   2.523   5.342   4.655  0.2963  0.6769 -0.1146
 7208TIP3    H143115   2.579   5.419   4.645  3.4089 -1.7902 -2.5639
 7208TIP3    H243116   2.545   5.306   4.741  1.3382  0.6080 -0.4092
 7209TIP3   OH243117   2.506   5.462  10.633  0.1644 -0.0480  0.2609
 7209TIP3    H143118   2.589   5.425  10.603  1.0747  1.2177  1.1369
 7209TIP3    H243119   2.511   5.457  10.729 -1.4985 -1.4967  0.2959
 7210TIP3   OH243120   1.382   4.901  15.468  0.3750 -0.6416  0.4058
 7210TIP3    H143121   1.343   4.838  15.408  0.8050 -0.3444 -0.1924
 7210TIP3    H243122   1.322   4.905  15.542 -0.7765 -0.1181 -0.5367
 7211TIP3   OH243123   2.869   1.953   0.389  0.0333 -0.3300  0.2011
 7211TIP3    H143124   2.844   1.863   0.368  1.8552 -0.4051 -1.9409
 7211TIP3    H243125   2.921   1.946   0.469 -0.7463 -1.0447  0.6447
 7212TIP3   OH243126   6.315   5.417   0.041 -0.1192 -0.3822 -0.4243
 7212TIP3    H143127   6.232   5.447   0.078  0.6574  1.5784 -0.1714
 7212TIP3    H243128   6.353   5.362   0.110 -0.6201 -0.1911  0.0096
 7213TIP3   OH243129   3.290   5.420   2.453  0.7234  0.1508  0.5492
 7213TIP3    H143130   3.376   5.462   2.451  0.9439 -0.3310 -0.2958
 7213TIP3    H243131   3.308   5.328   2.437  0.0905 -0.0143  0.7947
 7214TIP3   OH243132   1.083   5.750   6.276  0.2886  0.5592 -0.7187
 7214TIP3    H143133   1.159   5.693   6.266  0.8561  1.3820 -1.1554
 7214TIP3    H243134   1.013   5.692   6.308  1.3770  0.0054  0.7184
 7215TIP3   OH243135   6.352   2.610  17.208 -0.0445 -0.2500  0.2230
 7215TIP3    H143136   6.290   2.564  17.151 -0.2140  1.3365 -0.9044
 7215TIP3    H243137   6.331   2.579  17.296 -2.7894  0.5977 -0.0630
 7216TIP3   OH243138   4.995   6.540   3.006 -0.4675 -0.1198  0.2304
 7216TIP3    H143139   5.049   6.519   3.082 -0.2049 -1.9254 -0.4370
 7216TIP3    H243140   4.906   6.549   3.040 -0.2634 -0.4101  0.8370
 7217TIP3   OH243141   5.932   5.761  17.058  0.0250  0.2515 -0.4364
 7217TIP3    H143142   5.988   5.812  16.999  0.5561 -0.0204 -0.1604
 7217TIP3    H243143   5.985   5.687  17.084 -0.3622  0.1480  0.0611
 7218TIP3   OH243144   6.463   3.371   1.685  0.1094  0.6018  0.1348
 7218TIP3    H143145   6.427   3.282   1.681 -0.1143  0.6989 -0.0369
 7218TIP3    H243146   6.406   3.422   1.627  0.5476  0.7519 -0.1625
 7219TIP3   OH243147   1.699   4.428  13.324  0.0941 -0.1228  0.2383
 7219TIP3    H143148   1.631   4.428  13.392 -0.1374  0.4368  0.0085
 7219TIP3    H243149   1.654   4.458  13.245  0.7380  0.7891  0.2223
 7220TIP3   OH243150   6.184   5.314  11.699 -0.4374  0.7350  0.4694
 7220TIP3    H143151   6.191   5.381  11.632  0.3473  0.3284  0.1412
 7220TIP3    H243152   6.159   5.235  11.652  1.1302  0.2030  0.4968
 7221TIP3   OH243153   4.050   6.161   3.261  0.1367  0.2270 -0.0532
 7221TIP3    H143154   4.000   6.210   3.327  1.2049  1.2363  0.0151
 7221TIP3    H243155   4.000   6.173   3.180 -0.2119  0.4761  0.1958
 7222TIP3   OH243156   2.947   1.662   0.279  0.0424  0.4316  0.1948
 7222TIP3    H143157   2.923   1.611   0.201 -0.1259  0.1526  0.4244
 7222TIP3    H243158   2.922   1.606   0.352 -0.4350  0.9849  0.4557
 7223TIP3   OH243159   0.618   6.304  11.697 -0.9225  0.6611 -0.3675
 7223TIP3    H143160   0.636   6.211  11.680 -1.0426  0.9592 -2.2339
 7223TIP3    H243161   0.664   6.322  11.779 -3.1359 -1.7180  1.5077
 7224TIP3   OH243162   1.184   2.630   2.155  0.0949 -0.6448 -0.1530
 7224TIP3    H143163   1.105   2.595   2.197  0.6628  0.2565  1.7072
 7224TIP3    H243164   1.155   2.712   2.114  0.3667  0.4412  1.7894
 7225TIP3   OH243165   1.268   3.618   5.994  0.6013  0.1526 -0.0092
 7225TIP3    H143166   1.291   3.579   5.910  1.6936 -0.9861  0.7895
 7225TIP3    H243167   1.347   3.605   6.048 -0.7043 -0.6934  1.7299
 7226TIP3   OH243168   6.284   6.739   3.233  0.1988 -0.3977  0.0300
 7226TIP3    H143169   6.354   6.772   3.177  1.4843 -1.4565  0.9973
 7226TIP3    H243170   6.307   6.767   3.321 -1.6004  0.8916  0.1342
 7227TIP3   OH243171   3.437   0.951  12.821  0.4990  0.9003  0.3065
 7227TIP3    H143172   3.386   1.029  12.841 -1.4883  0.4118 -2.6477
 7227TIP3    H243173   3.379   0.878  12.843  1.0637  0.2865 -0.2351
 7228TIP3   OH243174   0.065   2.641   1.608 -0.0599  0.2115  0.3591
 7228TIP3    H143175   0.120   2.714   1.635 -0.3871  0.7619 -0.4324
 7228TIP3    H243176  -0.024   2.668   1.629 -0.1928  0.0892 -0.0360
 7229TIP3   OH243177   0.214   3.467   1.183  0.4978  0.1324 -0.2200
 7229TIP3    H143178   0.133   3.432   1.146  0.9916 -0.2820 -0.9445
 7229TIP3    H243179   0.232   3.412   1.259 -1.2181  1.8088  1.4500
 7230TIP3   OH243180   1.882   5.313  16.261 -0.6587 -0.1216  0.1061
 7230TIP3    H143181   1.855   5.222  16.262  1.3626 -0.7597  1.2577
 7230TIP3    H243182   1.802   5.362  16.242 -1.9552 -2.0570  0.4011
 7231TIP3   OH243183   0.909   3.568   5.050 -0.3218  0.2487  0.3649
 7231TIP3    H143184   0.914   3.645   4.994 -0.8160  1.1330  1.4933
 7231TIP3    H243185   0.864   3.599   5.129 -0.7162 -1.2454  0.7544
 7232TIP3   OH243186   0.405   3.365   0.776  0.1665  0.0932  0.0645
 7232TIP3    H143187   0.452   3.397   0.853 -1.4784  0.6080  0.8904
 7232TIP3    H243188   0.398   3.270   0.790  2.8678 -0.3422 -1.1699
 7233TIP3   OH243189   3.468   6.229  16.825 -0.2324  0.3120  0.1033
 7233TIP3    H143190   3.475   6.227  16.730  1.6822  1.5255  0.1980
 7233TIP3    H243191   3.558   6.234  16.856 -0.7335 -1.5000  2.0441
 7234TIP3   OH243192   3.602   4.968   0.901  0.0323  0.1071 -0.1369
 7234TIP3    H143193   3.681   4.923   0.930  0.2366  0.4731 -0.1188
 7234TIP3    H243194   3.634   5.048   0.860 -0.2522 -0.3962 -1.3554
 7235TIP3   OH243195   2.578   1.657   5.447  0.6725  0.6482 -0.0598
 7235TIP3    H143196   2.546   1.665   5.357  1.0723 -4.7823 -0.8385
 7235TIP3    H243197   2.666   1.695   5.445  0.2464  1.6023 -1.6428
 7236TIP3   OH243198   4.059   3.149   3.455  0.4961 -0.6193  0.2433
 7236TIP3    H143199   4.145   3.180   3.484  0.6620  0.9238 -1.7913
 7236TIP3    H243200   3.997   3.186   3.518  1.3455 -2.3281  2.1399
 7237TIP3   OH243201   5.845   5.470  14.570  0.0957  0.1592 -0.5216
 7237TIP3    H143202   5.792   5.544  14.601  1.4615  2.0117 -2.4484
 7237TIP3    H243203   5.782   5.413  14.526 -0.8119  0.6717  0.0860
 7238TIP3   OH243204   6.632   6.248   1.664  0.4139 -0.3946  0.3594
 7238TIP3    H143205   6.541   6.279   1.658  0.3796 -0.8183 -1.7693
 7238TIP3    H243206   6.624   6.152   1.671  0.6744 -0.3544  1.2310
 7239TIP3   OH243207   4.960   2.681  16.079 -0.2011  0.0123 -0.1990
 7239TIP3    H143208   4.877   2.724  16.101  0.7574  1.7390  0.0625
 7239TIP3    H243209   4.986   2.720  15.996 -0.5068 -1.7879 -1.1672
 7240TIP3   OH243210   5.419   5.178  14.598  0.1850  0.5096  0.0105
 7240TIP3    H143211   5.355   5.246  14.578 -0.3186  0.6634  1.9865
 7240TIP3    H243212   5.502   5.213  14.568 -0.4574  0.8933 -1.3382
 7241TIP3   OH243213   5.710   3.381  11.022 -0.2012 -0.4574  0.6958
 7241TIP3    H143214   5.651   3.307  11.006 -0.7561  0.5487 -2.0639
 7241TIP3    H243215   5.658   3.458  11.000  1.6653  0.5399 -0.2717
 7242TIP3   OH243216   2.977   3.903  12.930 -0.0782 -0.1464  0.2778
 7242TIP3    H143217   2.916   3.969  12.896  1.0258  1.1565  0.7542
 7242TIP3    H243218   3.012   3.860  12.852  0.2197  0.7926 -0.1217
 7243TIP3   OH243219   5.228   3.306  15.748 -0.0715  0.0440 -0.2478
 7243TIP3    H143220   5.289   3.299  15.821 -0.8073 -1.3619  0.2529
 7243TIP3    H243221   5.282   3.333  15.673  1.3486 -2.2264 -0.0720
 7244TIP3   OH243222   5.761   6.450  12.274 -0.0493  0.0491  0.3799
 7244TIP3    H143223   5.797   6.521  12.221  3.0645 -0.9107  1.1089
 7244TIP3    H243224   5.830   6.430  12.338 -1.8808 -1.9204  1.8181
 7245TIP3   OH243225   3.645   0.853  13.119  0.2353  0.5812  0.1130
 7245TIP3    H143226   3.677   0.943  13.125  1.2611  0.1283  1.8950
 7245TIP3    H243227   3.717   0.805  13.078 -0.7024  0.7284 -1.7775
 7246TIP3   OH243228   3.869   4.888   0.486  0.2028  0.3448 -0.6689
 7246TIP3    H143229   3.946   4.847   0.526 -0.2783 -0.6667 -0.7909
 7246TIP3    H243230   3.894   4.901   0.394  0.9680  1.8429 -0.2647
 7247TIP3   OH243231   5.021   5.016   3.632  0.1527 -0.3293 -0.0197
 7247TIP3    H143232   5.053   5.004   3.721  0.1773 -0.2388 -0.0167
 7247TIP3    H243233   4.944   5.072   3.642 -0.0596 -0.6173 -0.0173
 7248TIP3   OH243234   3.099   4.840  15.647  0.1652 -0.2283  0.5809
 7248TIP3    H143235   3.027   4.881  15.600  1.0624  0.7609  0.0463
 7248TIP3    H243236   3.092   4.747  15.626 -0.3563 -0.0029 -0.2528
 7249TIP3   OH243237   4.453   5.862   0.654 -0.1046 -0.5262  0.4158
 7249TIP3    H143238   4.446   5.950   0.617 -0.0251 -1.3102 -1.4901
 7249TIP3    H243239   4.371   5.850   0.702 -0.9813 -0.1424 -0.9583
 7250TIP3   OH243240   1.107   4.330   2.562  0.1251  0.2136  0.1352
 7250TIP3    H143241   1.098   4.384   2.484  1.1581 -0.6954 -0.6330
 7250TIP3    H243242   1.017   4.311   2.588 -0.2330  0.5093 -0.8439
 7251TIP3   OH243243   2.837   0.986   2.673  0.1245  0.0712  0.7677
 7251TIP3    H143244   2.802   0.931   2.743 -2.7382  0.7280 -0.0923
 7251TIP3    H243245   2.793   1.071   2.684  0.3334  0.4709 -1.2587
 7252TIP3   OH243246   5.813   5.988   6.207  0.0949  0.2783  0.4034
 7252TIP3    H143247   5.883   6.054   6.198 -0.0217  0.6282  1.8429
 7252TIP3    H243248   5.732   6.039   6.200 -0.0030 -0.0220 -0.5671
 7253TIP3   OH243249   2.633   6.484  16.947  0.4397  0.4008 -0.6848
 7253TIP3    H143250   2.671   6.481  17.035  0.2434  0.6698 -0.5911
 7253TIP3    H243251   2.677   6.414  16.899 -0.2601 -0.4826 -0.0460
 7254TIP3   OH243252   5.928   4.536  10.621  0.3612 -0.8880 -0.2813
 7254TIP3    H143253   5.905   4.486  10.543 -0.9582 -0.6381 -0.0672
 7254TIP3    H243254   5.876   4.616  10.616  1.1627 -0.3170  0.2543
 7255TIP3   OH243255   4.953   6.190  16.487 -0.3343  0.0515 -0.1291
 7255TIP3    H143256   4.938   6.224  16.399 -1.2269 -0.0204 -0.0067
 7255TIP3    H243257   5.030   6.239  16.518  0.1997 -0.1741 -1.0730
 7256TIP3   OH243258   1.133   0.048  16.955  0.4503  0.5558 -0.3882
 7256TIP3    H143259   1.184   0.116  16.998  0.9366 -2.2786  3.7678
 7256TIP3    H243260   1.195   0.006  16.895  1.1129  1.5218 -0.3831
 7257TIP3   OH243261   2.104   1.342   2.771 -0.6431 -0.0416 -0.2445
 7257TIP3    H143262   2.183   1.289   2.780  0.6440  1.8454 -0.1904
 7257TIP3    H243263   2.072   1.324   2.683  0.5273  0.1034 -0.7011
 7258TIP3   OH243264   4.728   5.191  13.679 -0.4359  0.0166  0.0104
 7258TIP3    H143265   4.646   5.237  13.665 -0.3686 -0.4876 -2.2482
 7258TIP3    H243266   4.718   5.108  13.633  1.8193  0.5382 -1.5459
 7259TIP3   OH243267   2.052   5.054  12.557 -0.3861 -0.2565  0.2943
 7259TIP3    H143268   2.115   5.033  12.627 -0.6541 -0.7461  0.3889
 7259TIP3    H243269   2.008   4.971  12.539  0.9796 -0.5606 -1.7470
 7260TIP3   OH243270   0.908   5.257   4.834 -0.1165 -0.8065  0.0938
 7260TIP3    H143271   0.967   5.250   4.759 -0.4473  0.1631 -0.2696
 7260TIP3    H243272   0.839   5.192   4.815 -1.2742  0.8165 -1.4621
 7261TIP3   OH243273   1.029   1.242   2.435  0.4516  0.5598 -0.0225
 7261TIP3    H143274   1.082   1.195   2.371  1.9498  0.9563  0.9194
 7261TIP3    H243275   0.967   1.293   2.382 -1.4689 -2.6764 -1.0791
 7262TIP3   OH243276   2.856   1.209   5.884 -0.0463 -0.2740 -0.3147
 7262TIP3    H143277   2.853   1.280   5.948 -0.7610  0.5975 -1.2980
 7262TIP3    H243278   2.805   1.242   5.809  0.2088 -1.5395 -1.0575
 7263TIP3   OH243279   5.367   0.507   3.239  0.1295  0.5219  0.2686
 7263TIP3    H143280   5.292   0.488   3.295 -0.1821  1.8092  0.3160
 7263TIP3    H243281   5.348   0.464   3.156  0.1712 -0.6404  0.8614
 7264TIP3   OH243282   3.596   6.679  14.248 -0.1712  0.3635  0.0442
 7264TIP3    H143283   3.645   6.727  14.181 -0.1753  0.3865  0.0574
 7264TIP3    H243284   3.512   6.659  14.206 -0.2030  0.4464  0.0686
 7265TIP3   OH243285   4.126   2.655   4.489 -0.4590 -0.1269  0.1926
 7265TIP3    H143286   4.061   2.600   4.446  0.1816 -0.8820  0.1848
 7265TIP3    H243287   4.158   2.713   4.420 -0.3883 -0.4452 -0.0418
 7266TIP3   OH243288   3.288   6.272  14.925  0.4050 -0.1440  0.0652
 7266TIP3    H143289   3.367   6.291  14.974  1.7986 -1.9966 -1.3837
 7266TIP3    H243290   3.275   6.178  14.937 -2.1692  0.3020  1.1166
 7267TIP3   OH243291   6.348   4.044  11.169  0.2872 -0.1855 -0.7370
 7267TIP3    H143292   6.441   4.030  11.189  0.0601 -0.1824  0.3685
 7267TIP3    H243293   6.319   3.961  11.130  0.8500 -0.0377 -1.4860
 7268TIP3   OH243294   4.858   1.516   1.533 -0.0551  0.2061 -0.5377
 7268TIP3    H143295   4.784   1.563   1.573 -1.2485 -2.1491  0.1433
 7268TIP3    H243296   4.817   1.462   1.465  1.2447  0.0066 -1.1621
 7269TIP3   OH243297   5.529   4.434  12.891  0.8302  0.2822 -0.1234
 7269TIP3    H143298   5.479   4.515  12.878  1.2603  0.3322 -1.5231
 7269TIP3    H243299   5.466   4.364  12.871  0.7919  0.2935 -0.0437
 7270TIP3   OH243300   2.093   2.165   4.848 -0.3349  0.4958  0.2241
 7270TIP3    H143301   2.152   2.179   4.774  0.6386 -1.1657  0.6571
 7270TIP3    H243302   2.121   2.229   4.914  1.0252 -0.2742  0.4245
 7271TIP3   OH243303   4.919   5.730   0.321  0.1155 -0.2924 -0.3791
 7271TIP3    H143304   4.987   5.784   0.362  1.4133 -1.0445 -1.5003
 7271TIP3    H243305   4.887   5.674   0.392 -1.1473  1.8030  0.7635
 7272TIP3   OH243306   6.089   6.171   5.960  0.3528  0.0466  0.0083
 7272TIP3    H143307   6.167   6.147   6.011  1.2028  0.3060 -1.1628
 7272TIP3    H243308   6.109   6.258   5.926  0.2525 -0.5834 -1.6817
 7273TIP3   OH243309   3.119   0.155  11.839  0.6188 -0.1247 -0.1425
 7273TIP3    H143310   3.121   0.238  11.791 -1.4325  0.5067  0.8026
 7273TIP3    H243311   3.211   0.130  11.847  1.1199  0.7193 -2.7006
 7274TIP3   OH243312   6.402   2.587   3.883 -0.5738 -0.0645 -0.6580
 7274TIP3    H143313   6.396   2.633   3.967  1.0878 -1.0123  0.0073
 7274TIP3    H243314   6.366   2.649   3.819 -0.5854  1.2169  0.5679
 7275TIP3   OH243315   4.328   2.243   1.594 -0.6912 -0.3971  0.2548
 7275TIP3    H143316   4.265   2.172   1.583 -1.3358  0.3666 -1.1716
 7275TIP3    H243317   4.300   2.310   1.531  1.0989  0.2642  0.1184
 7276TIP3   OH243318   3.761   5.583  16.883 -0.1111 -0.1195  0.5416
 7276TIP3    H143319   3.836   5.641  16.900 -0.2311  0.0076  0.6425
 7276TIP3    H243320   3.732   5.608  16.795  0.1271 -0.3497  0.3980
 7277TIP3   OH243321   5.174   1.837  12.504  1.0023  0.3615 -0.5305
 7277TIP3    H143322   5.214   1.869  12.424  1.6849  1.3950  0.2029
 7277TIP3    H243323   5.204   1.747  12.513 -0.2887 -0.2613 -2.2023
 7278TIP3   OH243324   3.478   6.606  12.520 -0.0061 -0.2625  0.3524
 7278TIP3    H143325   3.504   6.576  12.433  2.2490  2.7440 -0.1314
 7278TIP3    H243326   3.389   6.640  12.508  0.1791 -0.1344 -0.7402
 7279TIP3   OH243327   0.224   2.523  15.148  0.0994  0.2654 -0.1476
 7279TIP3    H143328   0.280   2.593  15.115 -0.1454  0.0929 -0.9361
 7279TIP3    H243329   0.135   2.555  15.132 -0.0199  0.2784  0.5537
 7280TIP3   OH243330   2.990   5.772  11.445 -0.1584 -0.1971 -0.5915
 7280TIP3    H143331   2.979   5.821  11.527  0.9453 -2.9160  1.2469
 7280TIP3    H243332   2.991   5.840  11.377  0.4574  2.2640  1.7665
 7281TIP3   OH243333   1.644   1.155   6.598 -0.0219  0.0088 -0.2067
 7281TIP3    H143334   1.635   1.060   6.592  0.4780 -0.0150 -0.6055
 7281TIP3    H243335   1.732   1.173   6.565 -0.2667  0.6518 -0.5136
 7282TIP3   OH243336   1.229   5.426  13.690  0.1174  0.1335 -0.3261
 7282TIP3    H143337   1.147   5.381  13.670  0.3120 -0.4856  0.2575
 7282TIP3    H243338   1.281   5.417  13.609  1.2943 -3.2408  0.7091
 7283TIP3   OH243339   1.050   4.805   4.014 -0.9180  0.0546 -0.2594
 7283TIP3    H143340   1.073   4.756   4.093 -0.2146  0.9808  0.1220
 7283TIP3    H243341   1.113   4.775   3.948 -0.0253  0.9712  0.1727
 7284TIP3   OH243342   3.345   5.994   4.116  0.8450  0.0125  0.4095
 7284TIP3    H143343   3.384   5.928   4.173  0.3860 -0.4297  0.2088
 7284TIP3    H243344   3.385   5.979   4.030  0.6790 -0.0599  0.3444
 7285TIP3   OH243345   0.147   0.426   3.135  0.2902 -0.0055 -0.5367
 7285TIP3    H143346   0.234   0.387   3.135  1.3083  2.1502 -2.1145
 7285TIP3    H243347   0.156   0.503   3.192 -1.1045 -0.8135  0.8108
 7286TIP3   OH243348   2.895   1.237   6.945  1.0476  0.8956  0.4191
 7286TIP3    H143349   2.973   1.262   6.995  0.1791 -0.7555  2.6487
 7286TIP3    H243350   2.842   1.316   6.941  1.6321  1.3239  1.1246
 7287TIP3   OH243351   5.893   6.115   0.101  0.1995  0.2465  0.3189
 7287TIP3    H143352   5.800   6.106   0.081  0.3953 -2.0477  0.3077
 7287TIP3    H243353   5.936   6.056   0.039  1.5006 -0.2963  1.7300
 7288TIP3   OH243354   4.587   1.103   4.355  0.4927 -0.3620 -0.1767
 7288TIP3    H143355   4.569   1.170   4.288 -1.9203 -0.3773  0.3962
 7288TIP3    H243356   4.505   1.055   4.363  1.3834 -1.6787  1.3553
 7289TIP3   OH243357   4.911   0.534  14.586 -0.4328 -0.1509 -0.4095
 7289TIP3    H143358   4.833   0.487  14.557 -1.2918  0.0686  1.4516
 7289TIP3    H243359   4.886   0.572  14.670  2.0345 -0.9543  0.7296
 7290TIP3   OH243360   3.792   4.071  13.816 -0.3166  0.3606  0.2208
 7290TIP3    H143361   3.704   4.057  13.780 -0.1614 -1.8124  0.6239
 7290TIP3    H243362   3.780   4.062  13.911  0.2430  0.6581  0.3171
 7291TIP3   OH243363   2.362   2.913  17.180 -0.0545 -0.2748  0.1799
 7291TIP3    H143364   2.434   2.922  17.118  0.1199 -3.5593 -0.1451
 7291TIP3    H243365   2.285   2.946  17.132  0.8381  1.3889 -0.1566
 7292TIP3   OH243366   3.433   4.350  12.267 -0.2666 -0.1221  0.0479
 7292TIP3    H143367   3.399   4.291  12.200 -1.4647  0.0986  0.4401
 7292TIP3    H243368   3.413   4.438  12.234 -0.0997  0.0090  0.2962
 7293TIP3   OH243369   2.515   1.291  16.852 -0.0835 -0.3913 -0.0268
 7293TIP3    H143370   2.587   1.230  16.836  3.3108  2.9572  1.6529
 7293TIP3    H243371   2.508   1.343  16.772  3.1582  2.8362  1.6280
 7294TIP3   OH243372   4.299   1.740  14.824 -0.2036  0.7050  0.6280
 7294TIP3    H143373   4.316   1.834  14.823  1.0050  0.5068  1.8383
 7294TIP3    H243374   4.381   1.700  14.793  0.0186 -0.0386  2.1490
 7295TIP3   OH243375   2.124   4.500  10.854 -0.5428 -0.4753 -0.1120
 7295TIP3    H143376   2.035   4.465  10.860 -0.2887 -1.0831  0.1673
 7295TIP3    H243377   2.179   4.424  10.833 -0.3354  0.2146 -2.2046
 7296TIP3   OH243378   2.509   5.313   4.313  0.7451  0.4383 -0.1939
 7296TIP3    H143379   2.436   5.268   4.270 -0.0375  0.6316  0.9193
 7296TIP3    H243380   2.540   5.376   4.247  0.0272  0.2317 -0.7361
 7297TIP3   OH243381   6.463   5.091   3.392  0.7517  0.4590 -0.2197
 7297TIP3    H143382   6.456   5.134   3.307  1.7068 -0.9066 -1.0159
 7297TIP3    H243383   6.445   4.998   3.373  1.3764  0.0824  0.9949
 7298TIP3   OH243384   4.842   0.355  12.466  0.1192  0.1421 -0.1058
 7298TIP3    H143385   4.902   0.281  12.456  0.8386  0.8691 -1.2246
 7298TIP3    H243386   4.898   0.430  12.486 -0.5029  0.6047 -0.0664
 7299TIP3   OH243387   0.822   4.679   4.512  0.0001  0.6022 -0.5253
 7299TIP3    H143388   0.745   4.624   4.513  0.2992  0.1929  0.3727
 7299TIP3    H243389   0.858   4.670   4.424  1.2430 -2.3111  0.2299
 7300TIP3   OH243390   0.117   5.977  13.048 -0.5260 -0.0698  0.5798
 7300TIP3    H143391   0.121   6.073  13.047  1.2147 -0.1144  1.3645
 7300TIP3    H243392   0.118   5.954  13.140  2.0726 -0.9104  0.3836
 7301TIP3   OH243393   1.711   2.385   5.557 -0.2450  0.5335 -0.0380
 7301TIP3    H143394   1.735   2.295   5.535 -1.8546  0.1744 -0.3968
 7301TIP3    H243395   1.721   2.390   5.652  0.0395  0.0349 -0.0406
 7302TIP3   OH243396   2.231   2.017   3.364  0.0514  0.0855  0.7273
 7302TIP3    H143397   2.165   2.086   3.362 -0.1737 -0.1443  0.3121
 7302TIP3    H243398   2.297   2.046   3.301  0.4617  0.4301  1.3130
 7303TIP3   OH243399   6.809   0.343  15.167  0.0142 -0.5318 -0.4348
 7303TIP3    H143400   6.714   0.332  15.168  0.2037 -2.7949 -1.8918
 7303TIP3    H243401   6.825   0.411  15.101 -0.7076  1.7439  1.6869
 7304TIP3   OH243402   1.894   4.426  12.580  0.1781 -0.3383  0.7617
 7304TIP3    H143403   1.831   4.390  12.518 -0.7782 -0.1338  1.6072
 7304TIP3    H243404   1.980   4.409  12.540 -0.4656  0.7181 -1.1197
 7305TIP3   OH243405   2.099   2.098  15.196 -0.1627 -0.2879  0.1356
 7305TIP3    H143406   2.096   2.190  15.222  1.5636 -0.5564  1.3565
 7305TIP3    H243407   2.058   2.097  15.110  1.0668  1.8585 -0.5249
 7306TIP3   OH243408   4.240   3.119  16.334 -0.0103  0.2637 -0.1095
 7306TIP3    H143409   4.258   3.182  16.263 -0.5316  2.4718  1.6593
 7306TIP3    H243410   4.311   3.134  16.397  1.2882 -2.7164 -0.8079
 7307TIP3   OH243411   6.779   2.852  11.858 -0.1710 -0.1071 -0.1174
 7307TIP3    H143412   6.858   2.804  11.884 -0.3641 -0.7129 -0.6254
 7307TIP3    H243413   6.805   2.898  11.778 -0.5796 -1.0296 -0.8012
 7308TIP3   OH243414   3.375   4.956   5.931  0.2384  0.4209  0.7546
 7308TIP3    H143415   3.430   4.889   5.972  0.8374 -0.2607 -1.1146
 7308TIP3    H243416   3.438   5.019   5.894 -0.2672  0.5730  0.1443
 7309TIP3   OH243417   0.485   6.685  11.998 -0.2750 -0.6257 -0.3367
 7309TIP3    H143418   0.504   6.684  12.092 -0.3978 -0.2129 -0.3043
 7309TIP3    H243419   0.411   6.625  11.988  0.2101 -1.2270 -0.2715
 7310TIP3   OH243420   1.580   3.386   3.209 -0.6132 -0.1749  0.1319
 7310TIP3    H143421   1.587   3.348   3.297 -1.7672 -0.4408  0.1133
 7310TIP3    H243422   1.498   3.351   3.174 -0.0592 -0.2292 -1.1366
 7311TIP3   OH243423   1.832   2.601  16.317 -0.1901  0.1077  0.1682
 7311TIP3    H143424   1.891   2.543  16.366 -0.0993  0.9326  1.0443
 7311TIP3    H243425   1.808   2.670  16.379 -1.4572  0.2205 -0.4190
 7312TIP3   OH243426   0.001   6.609  13.813 -0.4308 -0.1668 -0.3032
 7312TIP3    H143427   0.083   6.638  13.852 -0.2116 -0.6137 -0.4394
 7312TIP3    H243428  -0.061   6.679  13.835 -0.4303 -0.6316  1.2764
 7313TIP3   OH243429   2.668   3.950   2.756  0.0737 -0.5861  0.0633
 7313TIP3    H143430   2.670   3.956   2.851  1.8040 -0.7126  0.0399
 7313TIP3    H243431   2.731   4.015   2.726 -0.9717 -0.0447 -1.0344
 7314TIP3   OH243432   0.203   6.400   2.262 -0.0374 -0.4500  0.4606
 7314TIP3    H143433   0.266   6.363   2.325  1.5469  0.6549 -0.4233
 7314TIP3    H243434   0.177   6.484   2.300 -0.6200 -0.6922  0.5977
 7315TIP3   OH243435   0.007   3.478   4.401 -0.2501 -0.3504 -0.0148
 7315TIP3    H143436   0.070   3.409   4.384 -0.4635 -0.5465 -0.0124
 7315TIP3    H243437  -0.036   3.494   4.317  0.8990  0.8865 -0.3805
 7316TIP3   OH243438   6.337   4.587  14.938 -0.3433  0.3465 -0.0429
 7316TIP3    H143439   6.378   4.663  14.979  0.5011 -0.8530  1.3953
 7316TIP3    H243440   6.397   4.563  14.868  0.2057  0.0440  0.5254
 7317TIP3   OH243441   4.021   1.363  14.717  0.3319 -0.3577  0.7604
 7317TIP3    H143442   4.049   1.440  14.765 -1.6917  0.9639 -0.1063
 7317TIP3    H243443   4.101   1.312  14.704  1.4422  0.8572  2.6140
 7318TIP3   OH243444   0.303   0.156  16.042 -0.5962  0.1383  0.0655
 7318TIP3    H143445   0.225   0.116  16.079  0.2788 -2.0065 -0.3374
 7318TIP3    H243446   0.354   0.185  16.118 -0.1295 -1.6726  0.4543
 7319TIP3   OH243447   1.768   0.170  11.730 -0.3097  0.2370 -0.5713
 7319TIP3    H143448   1.854   0.205  11.754 -0.7518  0.5095  0.6352
 7319TIP3    H243449   1.710   0.245  11.732 -1.1754 -0.4463  1.5924
 7320TIP3   OH243450   5.600   2.178  16.617  0.0843  0.0706  0.0464
 7320TIP3    H143451   5.666   2.174  16.548 -1.5376  1.6715 -1.6306
 7320TIP3    H243452   5.541   2.105  16.598  0.6438 -0.6068  0.8382
 7321TIP3   OH243453   0.447   4.078   3.787 -0.5610 -0.9425  0.4709
 7321TIP3    H143454   0.427   4.117   3.702 -1.0945 -1.7650  0.2199
 7321TIP3    H243455   0.365   4.079   3.835  0.0970  1.0605  1.6171
 7322TIP3   OH243456   0.101   5.834   1.725  0.2035  0.1038  0.0281
 7322TIP3    H143457   0.159   5.874   1.661  0.5131  1.2753  1.0123
 7322TIP3    H243458   0.148   5.757   1.756  1.3502  1.1550  0.9609
 7323TIP3   OH243459   6.272   6.516  16.196  0.6559 -0.1372 -0.1125
 7323TIP3    H143460   6.333   6.564  16.140  0.2406  0.7588  0.1860
 7323TIP3    H243461   6.214   6.584  16.232  1.1288 -0.6495  1.6612
 7324TIP3   OH243462   6.456   0.037   0.708  0.3422  0.2860 -0.1364
 7324TIP3    H143463   6.368   0.053   0.673  0.0239  0.1947  0.6158
 7324TIP3    H243464   6.509   0.107   0.670 -0.3659  1.2196  0.5528
 7325TIP3   OH243465   2.436   5.184  13.817 -0.2818  0.2491 -0.3893
 7325TIP3    H143466   2.354   5.154  13.856  0.4132 -1.1811  0.0464
 7325TIP3    H243467   2.501   5.172  13.886  0.5947 -0.2930 -1.2885
 7326TIP3   OH243468   0.187   0.057   4.724  0.0845  0.3194  0.1623
 7326TIP3    H143469   0.132   0.084   4.797 -0.1869 -2.2612  0.9585
 7326TIP3    H243470   0.157   0.110   4.650 -1.6663  0.8268  1.2093
 7327TIP3   OH243471   2.292   0.693  14.314  0.4565  0.1501  0.3601
 7327TIP3    H143472   2.209   0.696  14.267  0.1194 -1.4815  0.8378
 7327TIP3    H243473   2.336   0.775  14.290 -0.3266  0.0014 -1.6274
 7328TIP3   OH243474   4.276   1.030  12.380 -0.3467  0.1564  0.9228
 7328TIP3    H143475   4.214   0.988  12.320  1.2940  0.3818 -0.9581
 7328TIP3    H243476   4.283   1.120  12.347  0.3756  0.3581  1.6245
 7329TIP3   OH243477   6.025   1.114  14.139  0.0223 -0.4727 -0.4887
 7329TIP3    H143478   6.071   1.198  14.146 -0.0301 -0.6045  1.6788
 7329TIP3    H243479   5.944   1.127  14.188  0.1207 -1.8603  0.0570
 7330TIP3   OH243480   4.338   6.704  12.825  0.6325 -0.2844  0.0619
 7330TIP3    H143481   4.389   6.736  12.751  0.8901  1.8954  1.1469
 7330TIP3    H243482   4.247   6.718  12.801  0.7508  1.3957  0.5829
 7331TIP3   OH243483   3.902   3.107  12.862 -0.3114 -0.3592 -0.0851
 7331TIP3    H143484   3.894   3.150  12.777 -0.2464 -0.9502 -0.3930
 7331TIP3    H243485   3.985   3.060  12.856  0.8675  1.4839  1.1532
 7332TIP3   OH243486   2.504   4.487  13.950  0.1548 -0.4103  0.6027
 7332TIP3    H143487   2.441   4.436  13.898 -0.2776 -0.9198  1.6108
 7332TIP3    H243488   2.587   4.475  13.905  0.0259 -1.8871  0.7181
 7333TIP3   OH243489   5.189   0.789   3.314 -0.2383  0.0820 -1.1548
 7333TIP3    H143490   5.109   0.839   3.327  0.1211  0.3911 -0.0608
 7333TIP3    H243491   5.197   0.734   3.392  0.9656  0.5445 -0.9328
 7334TIP3   OH243492   3.882   1.819  12.295 -0.3069 -0.5371 -0.2128
 7334TIP3    H143493   3.946   1.886  12.318  1.4967 -1.5472 -2.1112
 7334TIP3    H243494   3.813   1.866  12.247 -0.0642  0.2507  0.2083
 7335TIP3   OH243495   5.366   5.539   4.144 -0.0053  0.2956 -0.0712
 7335TIP3    H143496   5.333   5.597   4.212 -1.2321 -0.3463 -0.0901
 7335TIP3    H243497   5.347   5.451   4.177  0.3322 -0.0432 -0.7791
 7336TIP3   OH243498   0.326   1.371   2.170 -0.3098 -0.2590 -0.1156
 7336TIP3    H143499   0.390   1.394   2.102 -1.8978  1.3233 -1.1290
 7336TIP3    H243500   0.277   1.453   2.185  0.0906 -0.5394  3.0310
 7337TIP3   OH243501   1.270   0.016  16.207 -0.1096 -0.6689 -0.1872
 7337TIP3    H143502   1.365   0.033  16.207 -0.1151 -0.5703  0.7887
 7337TIP3    H243503   1.250  -0.003  16.299 -1.3976  1.4196 -0.0128
 7338TIP3   OH243504   4.438   4.738  13.549  0.1043 -0.2185 -0.2559
 7338TIP3    H143505   4.475   4.712  13.634  0.1388  0.2477 -0.1268
 7338TIP3    H243506   4.352   4.697  13.546 -0.5448  1.0504  0.6860
 7339TIP3   OH243507   4.953   2.335   3.172 -0.2969  0.1002 -0.4451
 7339TIP3    H143508   5.039   2.317   3.134  0.5254  0.5606  1.1543
 7339TIP3    H243509   4.931   2.256   3.220 -1.2513 -0.4112 -1.7044
 7340TIP3   OH243510   0.526   4.502  15.614 -0.1229 -0.4435  0.1733
 7340TIP3    H143511   0.440   4.482  15.575  0.0996 -0.4843 -0.2959
 7340TIP3    H243512   0.577   4.540  15.542  0.0852  0.0562  0.5862
 7341TIP3   OH243513   5.677   5.996   2.757  0.8181 -0.3499 -0.4698
 7341TIP3    H143514   5.685   6.091   2.756 -1.1982 -0.1613  0.5983
 7341TIP3    H243515   5.634   5.974   2.674 -1.8686 -0.0168  0.8043
 7342TIP3   OH243516   3.488   1.934  12.825  0.2160  0.5587  0.0523
 7342TIP3    H143517   3.451   2.021  12.811 -0.6813  0.1535 -0.1119
 7342TIP3    H243518   3.420   1.886  12.872  0.1685 -0.4727 -1.0470
 7343TIP3   OH243519   0.591   2.361  12.255  0.1504 -0.0358  0.3494
 7343TIP3    H143520   0.590   2.275  12.298 -2.0194 -0.2893 -0.1618
 7343TIP3    H243521   0.671   2.402  12.287  0.8846 -1.9858  1.1230
 7344TIP3   OH243522   5.224   4.018   3.604  0.4430  0.1488 -0.0182
 7344TIP3    H143523   5.291   3.966   3.647  0.5361 -0.6082 -1.0576
 7344TIP3    H243524   5.148   3.960   3.598  0.7536 -0.1007 -1.7568
 7345TIP3   OH243525   3.847   1.503   0.981 -0.1460  0.0936 -0.2914
 7345TIP3    H143526   3.821   1.430   0.925 -2.6383  1.1274 -0.5732
 7345TIP3    H243527   3.937   1.523   0.956  0.0581 -1.9186 -1.2338
 7346TIP3   OH243528   2.540   1.831  12.981  0.3077  0.2482  0.3492
 7346TIP3    H143529   2.610   1.766  12.987 -0.6229 -0.8011  0.2243
 7346TIP3    H243530   2.490   1.805  12.903 -0.6061  0.5713  0.8169
 7347TIP3   OH243531   4.013   3.018   4.296 -0.4096 -0.3198 -0.2014
 7347TIP3    H143532   3.995   3.003   4.389  1.1581 -0.2635  0.1241
 7347TIP3    H243533   4.030   3.112   4.289  0.4605 -0.4818 -0.3636
 7348TIP3   OH243534   1.814   0.121  12.970  0.2617  0.0764  0.3389
 7348TIP3    H143535   1.786   0.084  12.886  1.8877 -2.7974  1.0079
 7348TIP3    H243536   1.741   0.103  13.030  1.2630 -2.6461  0.7928
 7349TIP3   OH243537   2.502   1.235   4.230  0.1107 -0.2447  0.1853
 7349TIP3    H143538   2.423   1.232   4.285  1.0555  1.4402  1.7056
 7349TIP3    H243539   2.470   1.215   4.142 -1.4547 -2.8765  1.3053
 7350TIP3   OH243540   1.314   2.223  14.934 -0.2143 -0.1896  0.1940
 7350TIP3    H143541   1.271   2.156  14.988 -0.6019 -0.1015 -0.0017
 7350TIP3    H243542   1.313   2.187  14.846  1.1139 -0.6688  0.3663
 7351TIP3   OH243543   3.334   0.593  11.670 -0.1630  0.3557  0.2744
 7351TIP3    H143544   3.401   0.600  11.601 -1.3508 -1.4597 -1.1269
 7351TIP3    H243545   3.265   0.538  11.630 -0.5711 -1.3017  3.1475
 7352TIP3   OH243546   0.359   3.168  12.841 -0.0047 -0.3791 -0.2435
 7352TIP3    H143547   0.322   3.122  12.916 -0.6165 -0.3209 -0.5106
 7352TIP3    H243548   0.346   3.260  12.861 -2.0400 -0.4089 -1.3688
 7353TIP3   OH243549   5.774   0.454   1.074  0.2754  0.2098 -0.3115
 7353TIP3    H143550   5.820   0.516   1.018  1.7056 -0.1075  0.5051
 7353TIP3    H243551   5.703   0.504   1.113  2.0152  1.5929  1.1158
 7354TIP3   OH243552   6.581   4.409   3.332 -0.0349  0.3388  0.2462
 7354TIP3    H143553   6.612   4.460   3.407 -1.1300 -0.9000  1.5728
 7354TIP3    H243554   6.661   4.382   3.286  0.6396  1.1910  0.9180
 7355TIP3   OH243555   0.215   5.677  13.523  0.2338 -0.2480  0.1107
 7355TIP3    H143556   0.154   5.696  13.595 -0.1600  1.9503 -0.7622
 7355TIP3    H243557   0.302   5.691  13.561  0.1989 -2.4071  1.0759
 7356TIP3   OH243558   3.635   3.028  16.362  0.4120  0.0071  0.5463
 7356TIP3    H143559   3.621   3.116  16.328  0.0001 -0.1894  0.2055
 7356TIP3    H243560   3.723   3.004  16.334 -0.1082 -0.3501 -0.8236
 7357TIP3   OH243561   0.888   1.433  16.320 -0.3754 -0.1545  0.3907
 7357TIP3    H143562   0.940   1.398  16.392 -1.3960  0.7706  1.6017
 7357TIP3    H243563   0.820   1.485  16.362 -0.3048  1.3629 -1.2933
 7358TIP3   OH243564   5.818   1.615   5.498  0.4301  0.6778  0.3960
 7358TIP3    H143565   5.811   1.603   5.403 -0.2908  1.2732  0.3655
 7358TIP3    H243566   5.844   1.529   5.531  0.5947  0.4418 -0.3349
 7359TIP3   OH243567   3.084   6.013  13.921 -0.1967  0.1835  0.1684
 7359TIP3    H143568   3.128   6.003  14.005 -0.3071  1.0492  0.3441
 7359TIP3    H243569   3.146   5.979  13.857  0.2382  0.2951  0.5260
 7360TIP3   OH243570   2.226   6.740  13.193  0.5175 -0.2649 -0.3685
 7360TIP3    H143571   2.139   6.765  13.222  0.9260  0.3069  0.4021
 7360TIP3    H243572   2.285   6.801  13.239  1.3302 -0.7983 -0.6891
 7361TIP3   OH243573   3.947   4.210  15.903 -0.2901 -0.7755  0.1860
 7361TIP3    H143574   3.858   4.242  15.916  0.0533  0.1425  0.3124
 7361TIP3    H243575   3.965   4.225  15.811 -0.5938 -1.8140 -0.0468
 7362TIP3   OH243576   1.868   2.443   3.145  0.2445  0.0064  0.0395
 7362TIP3    H143577   1.960   2.453   3.172 -0.1290  0.4754  1.1854
 7362TIP3    H243578   1.826   2.400   3.220 -0.5814  0.3043 -0.2540
 7363TIP3   OH243579   3.714   1.681  12.842  0.3323  0.1048  0.2996
 7363TIP3    H143580   3.764   1.600  12.851  1.1388  0.4618 -0.7894
 7363TIP3    H243581   3.674   1.694  12.927  1.1291 -0.8313  0.8309
 7364TIP3   OH243582   3.836   3.331   4.289  0.4633 -0.0393 -0.5772
 7364TIP3    H143583   3.767   3.271   4.262 -0.1563  0.9967 -1.3644
 7364TIP3    H243584   3.812   3.359   4.377  0.2709 -0.2495 -0.5660
 7365TIP3   OH243585   0.963   4.922   6.771 -0.4002 -0.5836 -0.3180
 7365TIP3    H143586   0.952   4.988   6.839  0.8645  1.5753 -2.1209
 7365TIP3    H243587   1.021   4.857   6.810  0.2856  0.6045  0.6996
 7366TIP3   OH243588   4.485   1.348   6.180 -0.0794  0.2315 -0.3513
 7366TIP3    H143589   4.467   1.257   6.156 -2.1080  0.7997 -1.1512
 7366TIP3    H243590   4.533   1.343   6.262  2.2184 -1.6228 -1.7539
 7367TIP3   OH243591   4.451   2.784  11.826  0.2770  0.0692  0.2199
 7367TIP3    H143592   4.518   2.716  11.818 -0.4683 -0.5807 -0.7691
 7367TIP3    H243593   4.424   2.801  11.736 -0.2640  0.9547  0.5436
 7368TIP3   OH243594   5.389   1.730  16.751 -0.3774  0.0276  0.1884
 7368TIP3    H143595   5.436   1.734  16.834 -0.0598  1.1764 -0.0435
 7368TIP3    H243596   5.389   1.637  16.728  1.0527 -0.0828  0.6020
 7369TIP3   OH243597   0.182   5.896   2.058  0.0628 -0.5592  0.3495
 7369TIP3    H143598   0.166   5.988   2.080  0.5928  0.7246 -4.0091
 7369TIP3    H243599   0.095   5.855   2.061 -0.0283 -0.2114  3.3600
 7370TIP3   OH243600   3.315   1.169  10.803  0.2580  0.5062  0.4314
 7370TIP3    H143601   3.405   1.137  10.807 -0.6904 -2.2846 -0.0506
 7370TIP3    H243602   3.312   1.222  10.723  1.5491  0.9498  0.6641
 7371TIP3   OH243603   5.197   0.389   0.033 -0.2924  0.9038 -0.2417
 7371TIP3    H143604   5.135   0.345   0.091  1.2524 -0.5988  0.3315
 7371TIP3    H243605   5.182   0.482   0.048 -0.9545  0.5483  1.4784
 7372TIP3   OH243606   5.232   2.168  14.111  0.2113  0.0531 -0.2331
 7372TIP3    H143607   5.248   2.165  14.017  0.4915  0.0038 -0.1858
 7372TIP3    H243608   5.242   2.077  14.140 -0.1543  0.0234 -0.1989
 7373TIP3   OH243609   3.154   5.828   0.035  0.1982  0.0511  0.2173
 7373TIP3    H143610   3.216   5.834  -0.038  0.0851  0.8923  0.1817
 7373TIP3    H243611   3.098   5.905   0.025 -0.6875 -0.5605  0.4035
 7374TIP3   OH243612   2.980   6.386   3.895  0.0388  0.6169 -0.3853
 7374TIP3    H143613   2.919   6.349   3.830  0.8147  1.5690 -1.6926
 7374TIP3    H243614   2.999   6.474   3.861  2.1001  0.3420  0.0217
 7375TIP3   OH243615   1.696   2.172   3.042  0.7562  0.5914 -0.0783
 7375TIP3    H143616   1.693   2.234   2.969 -0.0227  1.6235  0.8006
 7375TIP3    H243617   1.609   2.178   3.081  0.4770 -1.5110 -0.3257
 7376TIP3   OH243618   0.314   2.007   4.182 -0.2455  0.2123  0.0887
 7376TIP3    H143619   0.343   2.080   4.238 -1.1535  0.3411  0.4060
 7376TIP3    H243620   0.247   1.963   4.235  1.3799 -1.7710  0.5228
 7377TIP3   OH243621   4.080   1.794   0.423 -0.2661  0.0382 -0.3547
 7377TIP3    H143622   4.053   1.796   0.515  0.8952 -1.2382  0.0443
 7377TIP3    H243623   4.007   1.752   0.377 -0.9382  0.8672 -0.0548
 7378TIP3   OH243624   2.480   1.577  14.571  0.2792 -0.5973  0.1228
 7378TIP3    H143625   2.387   1.581  14.593  0.1451 -0.4340 -0.4608
 7378TIP3    H243626   2.498   1.485  14.556  0.3617 -0.7074  0.8469
 7379TIP3   OH243627   6.394   0.324  11.100 -0.4988  0.4992  0.1534
 7379TIP3    H143628   6.393   0.407  11.149  0.7816  0.5960  0.0419
 7379TIP3    H243629   6.435   0.262  11.160 -0.9419  0.0830  0.0256
 7380TIP3   OH243630   3.109   0.990  12.618 -0.4322 -1.0148  0.4292
 7380TIP3    H143631   3.158   0.920  12.661 -0.0009 -1.1229 -0.2374
 7380TIP3    H243632   3.113   0.969  12.525  0.7423  0.5619  0.1039
 7381TIP3   OH243633   2.017   1.340   2.502 -0.0556 -0.3066 -0.1789
 7381TIP3    H143634   2.025   1.274   2.433  0.6065  0.4963 -0.8701
 7381TIP3    H243635   1.930   1.378   2.489  0.7759  1.1338 -1.7454
 7382TIP3   OH243636   5.919   1.911   4.610  0.4848 -0.5460 -0.0863
 7382TIP3    H143637   5.868   1.974   4.559  1.2851 -0.5232 -0.8714
 7382TIP3    H243638   5.856   1.872   4.670 -0.1191  0.6515  0.0601
 7383TIP3   OH243639   2.367   6.668   0.873  0.4363 -0.1257 -0.0021
 7383TIP3    H143640   2.345   6.653   0.965 -0.0039  1.9992  0.2768
 7383TIP3    H243641   2.449   6.622   0.860 -0.0053 -1.2830  1.1801
 7384TIP3   OH243642   1.366   1.522   4.908  0.2035 -0.1319  0.6728
 7384TIP3    H143643   1.364   1.492   4.817  0.1509 -1.4980  1.1047
 7384TIP3    H243644   1.361   1.617   4.902 -2.2741 -0.2812 -0.6934
 7385TIP3   OH243645   6.594   5.538  13.721  0.1338 -0.3568  0.4008
 7385TIP3    H143646   6.676   5.514  13.765  0.7638  0.5747 -0.2421
 7385TIP3    H243647   6.529   5.479  13.758  1.4240 -2.3153 -0.3538
 7386TIP3   OH243648   2.708   6.131   4.702 -0.0487 -0.1153  0.1614
 7386TIP3    H143649   2.779   6.178   4.659  0.4091 -0.1147  0.9182
 7386TIP3    H243650   2.639   6.126   4.635 -0.2142  1.8652  0.1625
 7387TIP3   OH243651   6.525   2.767  16.821 -0.0619 -0.0470  0.4551
 7387TIP3    H143652   6.612   2.773  16.783  0.0954 -0.1328  0.8081
 7387TIP3    H243653   6.537   2.787  16.914 -0.7555  2.3363  0.0903
 7388TIP3   OH243654   0.477   0.982   3.030 -0.2697 -0.0982 -0.2853
 7388TIP3    H143655   0.538   1.050   3.001 -0.9154  0.4139 -0.4751
 7388TIP3    H243656   0.455   1.006   3.120 -0.3623 -0.1554 -0.2925
 7389TIP3   OH243657   1.163   4.889   6.160  0.4784  0.0145 -0.4382
 7389TIP3    H143658   1.069   4.906   6.150  0.3686 -0.1710  0.2140
 7389TIP3    H243659   1.183   4.921   6.248  1.0189  0.0086 -0.5622
 7390TIP3   OH243660   4.745   2.784  12.422  0.0896 -0.0375  0.2485
 7390TIP3    H143661   4.780   2.773  12.510  0.1415 -0.1004  0.2187
 7390TIP3    H243662   4.791   2.860  12.387  0.8884 -0.7048 -0.1433
 7391TIP3   OH243663   2.500   1.496  14.219  0.0534  0.1121 -0.0468
 7391TIP3    H143664   2.513   1.424  14.280  0.7671  0.7716  0.5937
 7391TIP3    H243665   2.547   1.470  14.140 -0.4108 -0.4955 -0.1270
 7392TIP3   OH243666   3.612   1.977   2.495  0.6564  0.5733 -0.5192
 7392TIP3    H143667   3.661   1.899   2.522  0.2055  0.0613 -1.1827
 7392TIP3    H243668   3.650   2.048   2.548 -1.3259 -0.6970  2.7174
 7393TIP3   OH243669   4.811   1.113  12.108  0.3257  0.5495  0.1103
 7393TIP3    H143670   4.901   1.113  12.075 -0.3764  1.1262 -1.8432
 7393TIP3    H243671   4.821   1.099  12.202  2.4459  0.3476 -0.1062
 7394TIP3   OH243672   3.220   1.183   1.420  0.1894  0.1853 -0.0370
 7394TIP3    H143673   3.227   1.278   1.429 -2.5301  0.7219 -2.8757
 7394TIP3    H243674   3.144   1.160   1.472  1.3703 -0.6052  1.3717
 7395TIP3   OH243675   3.938   1.441   1.369 -0.2703  0.4597  0.2082
 7395TIP3    H143676   3.935   1.479   1.456 -0.8923  1.3866 -0.2183
 7395TIP3    H243677   4.004   1.493   1.322  0.5855 -0.4899  0.3306
 7396TIP3   OH243678   5.711   1.581  16.557 -0.0176 -0.1889 -0.8149
 7396TIP3    H143679   5.638   1.520  16.549 -0.2466  0.0284 -0.4154
 7396TIP3    H243680   5.772   1.556  16.488  0.4784 -1.6966  0.1505
 7397TIP3   OH243681   5.998   1.718   6.303 -0.2646 -0.0588  0.0775
 7397TIP3    H143682   6.051   1.691   6.377  0.0623 -0.1073 -0.1710
 7397TIP3    H243683   5.971   1.637   6.260 -0.9141 -0.0475  0.4620
 7398TIP3   OH243684   4.420   3.070  12.655 -0.6171 -0.6541  0.5163
 7398TIP3    H143685   4.393   3.148  12.606 -0.2344 -0.1587  1.0771
 7398TIP3    H243686   4.501   3.041  12.613 -0.0195  0.0620  1.1453
 7399TIP3   OH243687   2.764   0.283  16.448  0.3067 -0.0568 -0.6775
 7399TIP3    H143688   2.852   0.279  16.410  1.0451  1.9924  0.7452
 7399TIP3    H243689   2.734   0.372  16.429  0.8562  1.1963  3.8147
 7400TIP3   OH243690   2.953   2.791   5.706  0.1712  0.1691  0.0975
 7400TIP3    H143691   2.918   2.702   5.712 -0.1108  0.1681 -1.5195
 7400TIP3    H243692   3.029   2.783   5.648 -0.8468  1.2600 -1.4321
 7401TIP3   OH243693   0.441   0.523  11.055  0.2971 -0.3674  0.3724
 7401TIP3    H143694   0.484   0.437  11.048 -1.3122 -1.1105 -0.7363
 7401TIP3    H243695   0.445   0.559  10.966 -1.0824 -0.3073  0.3298
 7402TIP3   OH243696   5.847   1.930  15.948 -0.9965 -0.1017 -0.1722
 7402TIP3    H143697   5.812   2.013  15.983 -0.3254 -0.1678  0.6706
 7402TIP3    H243698   5.897   1.893  16.021  1.0612  0.1198 -1.4343
 7403TIP3   OH243699   5.878   5.374   4.994  0.1058  0.0629 -0.1500
 7403TIP3    H143700   5.791   5.339   5.010 -0.5365  2.2364  1.3658
 7403TIP3    H243701   5.871   5.418   4.909 -0.1103 -0.2902 -0.3137
 7404TIP3   OH243702   5.603   5.898  11.385  0.2527 -0.2002 -0.0824
 7404TIP3    H143703   5.565   5.871  11.302  0.4323 -0.9045  0.0649
 7404TIP3    H243704   5.534   5.949  11.428 -0.5549 -1.5422  0.2242
 7405TIP3   OH243705   2.615   2.849  13.694 -0.5509 -0.9461 -0.2711
 7405TIP3    H143706   2.640   2.793  13.767 -0.4209 -2.3080 -1.3266
 7405TIP3    H243707   2.535   2.808  13.659 -1.0275  0.1066 -0.4370
 7406TIP3   OH243708   0.377   3.094  15.224  0.2026  0.2065  0.2123
 7406TIP3    H143709   0.388   3.008  15.265  0.0533  0.3225  0.5050
 7406TIP3    H243710   0.323   3.143  15.287 -0.9833  0.0184 -0.6522
 7407TIP3   OH243711   1.105   1.645   3.735  0.1326  0.0450 -0.1036
 7407TIP3    H143712   1.113   1.579   3.804 -1.5611 -0.0618  0.0008
 7407TIP3    H243713   1.025   1.621   3.688  1.6330 -0.3120 -2.5625
 7408TIP3   OH243714   2.424   6.356   3.279  0.2648  1.0953  0.4904
 7408TIP3    H143715   2.448   6.285   3.338 -0.7401 -0.0284 -0.4111
 7408TIP3    H243716   2.429   6.435   3.333 -0.5073  0.1167  2.0419
 7409TIP3   OH243717   1.731   4.398  14.554 -0.6252 -0.5582  0.0640
 7409TIP3    H143718   1.810   4.448  14.573 -0.2054 -1.0598 -0.3238
 7409TIP3    H243719   1.741   4.317  14.604 -0.0537 -1.3834 -1.3334
 7410TIP3   OH243720   4.780   2.878   6.327  0.2639  0.2653  0.1801
 7410TIP3    H143721   4.873   2.856   6.339  0.7083  1.2679 -1.2818
 7410TIP3    H243722   4.780   2.972   6.309 -1.2552  0.7429  2.4671
 7411TIP3   OH243723   4.705   2.308  13.315 -0.4006  0.2885  0.5601
 7411TIP3    H143724   4.762   2.383  13.333  0.4525 -0.2100 -0.0218
 7411TIP3    H243725   4.741   2.269  13.235  0.3055 -1.8569  1.9001
 7412TIP3   OH243726   0.748   5.271   0.520  0.2306 -0.7617 -0.2521
 7412TIP3    H143727   0.733   5.336   0.452  0.0137 -0.7006 -0.1460
 7412TIP3    H243728   0.804   5.205   0.478  1.1957 -0.0650 -0.0905
 7413TIP3   OH243729   0.207   2.897   1.769 -0.5210 -0.0644 -0.2941
 7413TIP3    H143730   0.157   2.975   1.747  1.0039  1.1595  0.5020
 7413TIP3    H243731   0.192   2.885   1.863  0.6945  0.3031 -0.0586
 7414TIP3   OH243732   3.153   1.653  14.321 -0.6011 -0.5277  0.2562
 7414TIP3    H143733   3.157   1.558  14.305 -1.0412 -0.7984  1.6308
 7414TIP3    H243734   3.060   1.670  14.335 -0.6097  0.2482 -0.7481
 7415TIP3   OH243735   3.144   5.317  13.320  0.0841  0.1097 -0.2143
 7415TIP3    H143736   3.135   5.283  13.231 -3.1280  0.8845 -0.2274
 7415TIP3    H243737   3.199   5.394  13.310  0.3926 -0.2457 -1.4036
 7416TIP3   OH243738   2.330   3.812  12.525  0.4999  0.3108  0.4109
 7416TIP3    H143739   2.279   3.882  12.567  1.7906  1.5632 -0.0824
 7416TIP3    H243740   2.413   3.853  12.502  1.1227 -1.2875 -0.2652
 7417TIP3   OH243741   5.942   2.089  15.196  0.1221  0.2479 -0.5468
 7417TIP3    H143742   5.896   2.122  15.274 -0.6708 -0.5712 -0.6580
 7417TIP3    H243743   5.940   2.162  15.134 -1.0798  0.2141 -0.5664
 7418TIP3   OH243744   1.007   2.048   1.856  0.5410 -0.0153  0.0914
 7418TIP3    H143745   1.069   1.975   1.846 -0.9318 -1.1907 -0.7061
 7418TIP3    H243746   1.010   2.068   1.950  1.4045 -0.7130  0.2267
 7419TIP3   OH243747   2.977   1.056   3.849  0.2042 -0.6987 -0.3603
 7419TIP3    H143748   3.013   1.143   3.868  2.0392 -0.8779 -2.7628
 7419TIP3    H243749   2.984   1.009   3.933  1.0487  0.8367  0.4599
 7420TIP3   OH243750   4.331   4.405  10.903 -0.1557 -0.7902 -0.0894
 7420TIP3    H143751   4.356   4.403  10.811  2.7387 -1.0779  0.6638
 7420TIP3    H243752   4.351   4.495  10.931  0.9246 -1.2892  0.7588
 7421TIP3   OH243753   1.418   3.995  11.586  0.0016  0.6882 -0.4190
 7421TIP3    H143754   1.347   3.992  11.522 -0.4703 -1.8246  0.1450
 7421TIP3    H243755   1.373   3.998  11.671  0.5565 -0.1732 -0.0890
 7422TIP3   OH243756   1.343   2.668  15.056  0.4035  0.3175 -0.3636
 7422TIP3    H143757   1.365   2.645  15.146 -0.3174  0.3923 -0.1692
 7422TIP3    H243758   1.413   2.728  15.029  0.9666 -0.2042 -0.0695
 7423TIP3   OH243759   2.351   2.070   4.593 -0.5103 -1.1042 -0.1238
 7423TIP3    H143760   2.373   2.144   4.649  0.6691 -2.8503  1.7918
 7423TIP3    H243761   2.275   2.099   4.542  0.3046  1.5967  0.1581
 7424TIP3   OH243762   3.977   5.895  14.610 -0.9050  0.4979 -0.3112
 7424TIP3    H143763   3.931   5.830  14.557 -0.6561 -1.3761  1.7015
 7424TIP3    H243764   3.930   5.977  14.593 -2.5966 -0.6202 -1.1984
 7425TIP3   OH243765   2.267   0.315   3.424  0.3121 -0.0101  0.4465
 7425TIP3    H143766   2.318   0.290   3.501  0.7871 -1.7873 -0.4001
 7425TIP3    H243767   2.218   0.236   3.402  0.6096  0.3009 -1.3905
 7426TIP3   OH243768   2.711   4.453   0.318 -0.1035  0.0592 -0.6483
 7426TIP3    H143769   2.676   4.486   0.401 -0.5545  0.8913 -1.1585
 7426TIP3    H243770   2.798   4.493   0.310  1.1290 -2.2058  0.7396
 7427TIP3   OH243771   1.184   0.078   5.549  0.0213  0.6004  0.3399
 7427TIP3    H143772   1.134   0.060   5.469  0.8975 -2.4618  0.4311
 7427TIP3    H243773   1.166   0.170   5.568 -3.0985  0.4035 -1.3527
 7428TIP3   OH243774   6.605   5.656  16.636  0.6204  0.3457 -0.0538
 7428TIP3    H143775   6.602   5.611  16.721  1.7644 -0.3709 -0.3832
 7428TIP3    H243776   6.680   5.714  16.643  0.1416  0.9864 -0.2392
 7429TIP3   OH243777   3.619   5.278  14.381  0.2786 -0.5013 -0.1111
 7429TIP3    H143778   3.567   5.334  14.438 -0.6695  0.2285 -1.6433
 7429TIP3    H243779   3.688   5.336  14.348  0.5673 -0.7989 -0.0232
 7430TIP3   OH243780   4.822   4.520   4.649  0.0727 -0.0704  0.1844
 7430TIP3    H143781   4.903   4.552   4.690  0.1935 -0.5285  0.3022
 7430TIP3    H243782   4.842   4.517   4.556  0.4576 -0.9460  0.2879
 7431TIP3   OH243783   4.722   0.113   1.828 -0.7079 -0.5073  0.7635
 7431TIP3    H143784   4.662   0.112   1.902 -0.0726 -1.4764  1.2780
 7431TIP3    H243785   4.798   0.062   1.857  0.2271  0.4153  0.0136
 7432TIP3   OH243786   5.407   4.254  17.189 -0.2214  0.5826 -0.0807
 7432TIP3    H143787   5.324   4.208  17.198 -0.7941  1.8528  1.3381
 7432TIP3    H243788   5.412   4.309  17.267  1.5628  1.1347 -0.5733
 7433TIP3   OH243789   0.095   2.857  16.158  0.5096  0.0616 -0.3487
 7433TIP3    H143790   0.150   2.934  16.141  2.4811 -1.3425 -0.5131
 7433TIP3    H243791   0.113   2.798  16.084  0.5753 -1.3985  0.8030
 7434TIP3   OH243792   0.752   2.483   5.198 -0.1342 -0.1618  0.2685
 7434TIP3    H143793   0.763   2.577   5.181 -0.0380 -0.2162  0.0233
 7434TIP3    H243794   0.709   2.450   5.119  0.0197 -0.3603  0.2673
 7435TIP3   OH243795   6.428   1.607  11.362 -0.0678 -0.1465  0.4480
 7435TIP3    H143796   6.362   1.590  11.430 -0.2499 -1.0320  0.0618
 7435TIP3    H243797   6.379   1.600  11.280  0.6116 -1.3600  0.1299
 7436TIP3   OH243798   6.339   6.011  12.949 -0.4541  0.0709  0.1880
 7436TIP3    H143799   6.283   5.937  12.924 -0.2949 -0.0357  0.1425
 7436TIP3    H243800   6.344   6.065  12.871  0.7541 -0.7131 -0.2991
 7437TIP3   OH243801   6.308   4.892  13.675 -0.7086 -0.2764  0.6660
 7437TIP3    H143802   6.273   4.981  13.685  0.9483  0.4316  0.3639
 7437TIP3    H243803   6.312   4.858  13.764  0.1228  0.5493  0.9582
 7438TIP3   OH243804   4.959   6.461  11.464 -0.3789 -1.3235  0.0528
 7438TIP3    H143805   4.872   6.499  11.467 -0.3749 -1.3071 -0.0606
 7438TIP3    H243806   4.983   6.450  11.556  0.0592 -0.0498  0.1014
 7439TIP3   OH243807   1.276   4.810   5.283 -0.2088 -0.5445  0.5974
 7439TIP3    H143808   1.347   4.767   5.332  0.2595 -0.1972  0.2215
 7439TIP3    H243809   1.306   4.810   5.192 -0.0453  0.8875  0.6365
 7440TIP3   OH243810   4.465   0.394   2.118  1.1617 -0.3132  0.0448
 7440TIP3    H143811   4.451   0.416   2.210 -0.9066  0.0188 -0.3190
 7440TIP3    H243812   4.521   0.463   2.085 -2.2380  2.4823 -0.1618
 7441TIP3   OH243813   3.613   4.690  16.461 -0.5952 -0.6402  0.2933
 7441TIP3    H143814   3.690   4.724  16.506 -0.8833 -2.3758  2.1785
 7441TIP3    H243815   3.639   4.603  16.430 -0.4287  0.4578 -2.9212
 7442TIP3   OH243816   0.152   2.833   5.054 -0.2872  0.3119  0.4773
 7442TIP3    H143817   0.081   2.778   5.021 -0.4572  1.4743 -1.1666
 7442TIP3    H243818   0.224   2.772   5.069 -1.1195 -0.6494  0.6106
 7443TIP3   OH243819   2.209   3.024   1.011 -0.2315  0.2933 -0.2940
 7443TIP3    H143820   2.218   2.930   0.993  0.5506  0.4857 -0.9785
 7443TIP3    H243821   2.287   3.046   1.061 -0.3139  0.6153 -0.3061
 7444TIP3   OH243822   2.113   1.209  16.141  0.0948  0.6898  0.1596
 7444TIP3    H143823   2.145   1.293  16.175 -0.9573  1.4921 -0.7800
 7444TIP3    H243824   2.191   1.153  16.139  0.6546  1.4060  1.5121
 7445TIP3   OH243825   5.827   6.519  15.370  0.3113 -0.0725 -0.4566
 7445TIP3    H143826   5.840   6.451  15.436 -0.8031 -0.9166 -1.0938
 7445TIP3    H243827   5.744   6.560  15.394  0.8245  0.8707 -0.2517
 7446TIP3   OH243828   3.376   0.727   5.173  0.0849  0.0718 -0.6586
 7446TIP3    H143829   3.288   0.759   5.192 -0.1268 -0.7092 -0.3075
 7446TIP3    H243830   3.426   0.746   5.252 -0.0094 -0.3418 -0.4973
 7447TIP3   OH243831   2.090   1.653  15.391  0.2778  0.0047 -0.7021
 7447TIP3    H143832   2.070   1.714  15.462 -0.5165 -0.3385 -0.6295
 7447TIP3    H243833   2.006   1.613  15.369  0.3959  0.6227 -2.3294
 7448TIP3   OH243834   3.824   1.792   3.190  0.2413 -0.7815 -0.4795
 7448TIP3    H143835   3.731   1.812   3.179  0.1294 -0.4246  0.9889
 7448TIP3    H243836   3.844   1.819   3.280  1.7313 -0.9799 -0.7374
 7449TIP3   OH243837   6.385   0.562   3.200 -0.0228 -0.7085  0.6446
 7449TIP3    H143838   6.361   0.520   3.117 -0.7234 -0.0053  0.4809
 7449TIP3    H243839   6.379   0.656   3.181  0.5783 -0.5464  1.2733
 7450TIP3   OH243840   1.427   3.835   2.759 -0.5463  0.5519 -0.3060
 7450TIP3    H143841   1.439   3.886   2.839 -1.5003 -0.0408  0.2194
 7450TIP3    H243842   1.440   3.898   2.688  0.9396  0.9479  0.2978
 7451TIP3   OH243843   5.798   2.419   2.901 -0.1349 -0.1491  0.1997
 7451TIP3    H143844   5.871   2.364   2.873 -0.0989  0.4680 -0.9376
 7451TIP3    H243845   5.807   2.499   2.849 -1.7568 -0.1592 -0.1198
 7452TIP3   OH243846   5.455   2.785  14.806  0.6734  0.3253  0.5374
 7452TIP3    H143847   5.371   2.825  14.828  1.0857  1.2878  0.3934
 7452TIP3    H243848   5.501   2.781  14.890  0.7757  0.5081  0.4913
 7453TIP3   OH243849   4.441   4.119   4.283 -0.6613 -0.7061 -0.2656
 7453TIP3    H143850   4.377   4.170   4.332  2.7012  1.4501  2.0980
 7453TIP3    H243851   4.400   4.033   4.271 -2.6534 -0.4662  4.0138
 7454TIP3   OH243852   0.618   5.337   5.774 -0.2617  0.2204 -0.3698
 7454TIP3    H143853   0.675   5.285   5.717 -1.3844  0.3435 -1.6359
 7454TIP3    H243854   0.676   5.368   5.844  0.7813 -1.2951 -0.5448
 7455TIP3   OH243855   5.821   3.336   0.673  0.5723 -0.0156  0.0688
 7455TIP3    H143856   5.867   3.386   0.606  2.0098 -2.3932 -0.7748
 7455TIP3    H243857   5.850   3.246   0.660 -2.6567 -1.2388  0.9726
 7456TIP3   OH243858   5.808   5.774  12.213  0.0549 -0.0751  0.0866
 7456TIP3    H143859   5.826   5.800  12.303  0.6596  0.1358 -0.0930
 7456TIP3    H243860   5.826   5.852  12.161  0.9206 -0.5635 -0.3484
 7457TIP3   OH243861   0.764   0.064   0.872 -0.2465 -0.3130  0.7333
 7457TIP3    H143862   0.757   0.041   0.965  1.4946 -0.4792  0.8367
 7457TIP3    H243863   0.858   0.071   0.856 -0.5272 -0.4104 -1.0552
 7458TIP3   OH243864   6.221   0.815  14.346  0.0905  0.5799  0.7724
 7458TIP3    H143865   6.253   0.905  14.357 -0.6909  0.9944 -0.2509
 7458TIP3    H243866   6.128   0.826  14.322 -0.2369 -0.5284  1.5300
 7459TIP3   OH243867   0.730   1.530  16.740 -0.4356  0.6795 -0.1686
 7459TIP3    H143868   0.677   1.479  16.679 -1.0196 -0.8895  1.6179
 7459TIP3    H243869   0.742   1.473  16.816  1.3580  2.1087  0.6742
 7460TIP3   OH243870   4.626   2.669  15.683 -0.2028  0.0138  0.1744
 7460TIP3    H143871   4.628   2.748  15.736  0.9978  0.4484 -0.4983
 7460TIP3    H243872   4.697   2.680  15.620 -1.9420 -0.2106 -1.9112
 7461TIP3   OH243873   2.555   3.058  11.219  0.5114  0.0514  0.0170
 7461TIP3    H143874   2.490   3.021  11.159  0.8754  0.8705 -0.9058
 7461TIP3    H243875   2.605   2.983  11.250  0.5437 -0.3491 -0.9791
 7462TIP3   OH243876   0.541   2.657   0.879  0.6169 -0.5439  0.4694
 7462TIP3    H143877   0.511   2.589   0.939  0.8341  0.5843  1.8703
 7462TIP3    H243878   0.617   2.696   0.921 -0.2809  1.4472  0.3230
 7463TIP3   OH243879   5.493   1.724   2.811  0.3224  0.2821  0.5590
 7463TIP3    H143880   5.451   1.808   2.829 -0.1800  0.3170 -0.6933
 7463TIP3    H243881   5.572   1.745   2.761 -0.3433 -0.0313 -0.6627
 7464TIP3   OH243882   1.519   6.503   0.768  0.2975  0.0530 -0.0825
 7464TIP3    H143883   1.582   6.508   0.696 -1.2025  3.3750 -1.2331
 7464TIP3    H243884   1.536   6.581   0.821 -1.0830 -0.4251  1.1002
 7465TIP3   OH243885   5.449   1.441  13.608  0.3378  0.1456 -0.3308
 7465TIP3    H143886   5.429   1.362  13.560  2.2787  0.4734 -1.7353
 7465TIP3    H243887   5.364   1.478  13.631 -0.6235 -0.0838 -3.3903
 7466TIP3   OH243888   1.295   2.224   4.449  0.2785  0.5834  0.1209
 7466TIP3    H143889   1.336   2.298   4.493 -0.4527  1.3118 -0.4118
 7466TIP3    H243890   1.347   2.211   4.370  0.8594  0.0425  0.5851
 7467TIP3   OH243891   2.943   3.212   0.915  0.6578  0.3265  0.1559
 7467TIP3    H143892   3.007   3.214   0.987  0.0910  2.7030  0.6221
 7467TIP3    H243893   2.995   3.228   0.836  1.1241 -1.2129  0.1356
 7468TIP3   OH243894   4.297   1.443   0.628  0.0197 -0.0428 -0.3146
 7468TIP3    H143895   4.343   1.440   0.544 -0.9714  1.5125 -0.9183
 7468TIP3    H243896   4.210   1.476   0.608 -1.0352 -1.9022  0.9986
 7469TIP3   OH243897   0.690   4.132   1.923  0.0652  0.2146  0.6327
 7469TIP3    H143898   0.737   4.185   1.987 -0.5994  2.5289 -0.7208
 7469TIP3    H243899   0.617   4.188   1.896 -0.8817 -1.5690 -0.5661
 7470TIP3   OH243900   6.159   1.745   4.046 -0.0062  0.1717  0.5509
 7470TIP3    H143901   6.093   1.676   4.040 -0.9509  1.1132 -0.2612
 7470TIP3    H243902   6.111   1.822   4.076  0.8033  0.7670  0.3546
 7471TIP3   OH243903   0.792   3.725  14.565  0.1462 -0.3583  0.0731
 7471TIP3    H143904   0.820   3.725  14.657 -0.6129  0.9750  0.3248
 7471TIP3    H243905   0.808   3.815  14.536  1.0793 -0.9698 -1.3274
 7472TIP3   OH243906   0.837   6.354  11.492 -0.6138  1.1470 -0.7110
 7472TIP3    H143907   0.762   6.309  11.531 -0.6645 -0.7817 -2.8441
 7472TIP3    H243908   0.810   6.445  11.483 -0.9665  1.4174  2.6580
 7473TIP3   OH243909   0.441   5.523  12.582 -0.3017  0.0787  0.0456
 7473TIP3    H143910   0.409   5.434  12.562 -0.3209 -0.1187  0.9594
 7473TIP3    H243911   0.537   5.515  12.580 -0.3009  0.1302 -0.2522
 7474TIP3   OH243912   1.778   2.938   0.152 -0.0324 -0.3836 -0.5364
 7474TIP3    H143913   1.746   2.849   0.166 -0.3221 -0.0973  0.6760
 7474TIP3    H243914   1.778   2.949   0.057 -2.1990 -0.8817 -0.6173
 7475TIP3   OH243915   6.153   1.126   0.692  0.4148 -0.2591 -0.0006
 7475TIP3    H143916   6.086   1.153   0.756 -0.8202 -1.4026 -0.7685
 7475TIP3    H243917   6.235   1.130   0.741 -0.1834  1.3298  0.9244
 7476TIP3   OH243918   2.132   4.505  15.811  0.1849  0.5745 -0.3445
 7476TIP3    H143919   2.134   4.570  15.880 -2.8658  0.3349  0.0605
 7476TIP3    H243920   2.086   4.430  15.850 -2.3894  0.7668 -2.8012
 7477TIP3   OH243921   0.073   3.703  12.499  0.1710  0.5563  1.3416
 7477TIP3    H143922   0.129   3.719  12.574  2.5316  0.2478 -0.3108
 7477TIP3    H243923   0.133   3.688  12.426 -2.0533  0.8824 -0.6334
 7478TIP3   OH243924   1.322   2.786   4.930 -0.4048  0.0674 -0.3948
 7478TIP3    H143925   1.288   2.867   4.891 -0.8365  0.5164  0.8731
 7478TIP3    H243926   1.361   2.814   5.013  1.5959 -0.6953 -1.0546
 7479TIP3   OH243927   4.407   5.753   3.389 -0.5183  0.1702 -0.3476
 7479TIP3    H143928   4.346   5.826   3.399  0.3629  1.0232 -1.0806
 7479TIP3    H243929   4.419   5.745   3.294  0.3171 -0.1366 -0.2210
 7480TIP3   OH243930   1.936   1.010   2.534 -0.0996  0.6879  0.3771
 7480TIP3    H143931   1.944   0.959   2.614  0.2985 -1.1540 -0.8089
 7480TIP3    H243932   2.022   1.004   2.492 -1.0036 -0.4496 -1.3849
 7481TIP3   OH243933   5.887   0.746  12.958  0.0530 -0.4622 -0.0219
 7481TIP3    H143934   5.910   0.733  13.050  0.5637  0.1642 -0.0521
 7481TIP3    H243935   5.915   0.666  12.914  0.0206 -0.6673  0.3288
 7482TIP3   OH243936   1.631   5.234   4.818  0.3159  0.5690 -0.3248
 7482TIP3    H143937   1.710   5.239   4.764  0.0041  0.1052 -0.8274
 7482TIP3    H243938   1.663   5.209   4.905  0.5017 -1.9112 -1.0776
 7483TIP3   OH243939   6.683   3.042   1.744 -0.3282 -0.6881 -0.3986
 7483TIP3    H143940   6.764   3.062   1.696 -0.1704 -0.1440  0.0873
 7483TIP3    H243941   6.613   3.069   1.685 -0.1769 -1.8733 -1.1398
 7484TIP3   OH243942   4.017   6.708   2.151 -0.4892 -0.0658  0.4822
 7484TIP3    H143943   4.062   6.651   2.214 -0.2021  1.3648  1.6018
 7484TIP3    H243944   4.088   6.749   2.102 -0.6652  0.0252  0.3050
 7485TIP3   OH243945   3.423   4.604  13.044  0.2823 -0.0920 -0.5134
 7485TIP3    H143946   3.372   4.523  13.047 -0.1570  0.0939 -2.4758
 7485TIP3    H243947   3.373   4.662  12.988 -0.1409  2.1038  2.0390
 7486TIP3   OH243948   5.254   2.752  16.847 -0.5116 -0.0193 -0.1851
 7486TIP3    H143949   5.302   2.684  16.800 -1.2083 -0.9705  0.4586
 7486TIP3    H243950   5.316   2.825  16.855  0.7517 -1.1399  0.4191
 7487TIP3   OH243951   2.643   4.365   2.149 -0.0757  0.3795  0.9000
 7487TIP3    H143952   2.618   4.355   2.241  0.0095  0.2188  0.9066
 7487TIP3    H243953   2.656   4.459   2.138 -1.8825  0.6088  0.5731
 7488TIP3   OH243954   1.370   4.000  12.800 -0.6572 -0.7083 -0.4083
 7488TIP3    H143955   1.299   3.970  12.856  1.6278 -1.5076  2.1778
 7488TIP3    H243956   1.401   3.921  12.756 -1.0790 -0.4324 -1.2129
 7489TIP3   OH243957   5.355   1.073  11.892  0.0666  0.2760 -0.6994
 7489TIP3    H143958   5.403   1.029  11.961  1.1973 -0.6114 -2.0195
 7489TIP3    H243959   5.378   1.166  11.902  0.1594  0.1592  0.1532
 7490TIP3   OH243960   2.980   5.872   1.507  0.2803 -0.4329  0.1110
 7490TIP3    H143961   2.955   5.811   1.575  0.5548 -1.3421 -0.5946
 7490TIP3    H243962   3.060   5.836   1.469 -1.6378 -1.7446 -2.9067
 7491TIP3   OH243963   5.730   4.888   2.691 -0.4664  0.3850 -0.1414
 7491TIP3    H143964   5.712   4.928   2.606 -2.6283  1.2191  0.6605
 7491TIP3    H243965   5.782   4.953   2.738 -0.3109  0.4326 -0.3794
 7492TIP3   OH243966   0.792   3.178   3.503  0.3443  0.0435 -0.4828
 7492TIP3    H143967   0.769   3.087   3.483  1.1816 -0.3044  0.0902
 7492TIP3    H243968   0.886   3.184   3.484  0.5692  0.4329  0.7041
 7493TIP3   OH243969   5.881   6.438   3.791  0.6049 -0.4500  0.2055
 7493TIP3    H143970   5.822   6.382   3.841 -1.6020  0.8786 -0.8430
 7493TIP3    H243971   5.825   6.507   3.756  2.5434  0.1173 -1.9176
 7494TIP3   OH243972   5.839   1.213   4.945  0.4410 -0.1240 -0.1162
 7494TIP3    H143973   5.779   1.191   5.016  1.9365  1.2108  1.6130
 7494TIP3    H243974   5.925   1.191   4.978  1.1738  0.5161 -1.5347
 7495TIP3   OH243975   6.302   1.892   2.572 -0.1821  0.3324 -0.0755
 7495TIP3    H143976   6.369   1.826   2.592 -1.4713 -0.4982  1.6142
 7495TIP3    H243977   6.330   1.970   2.619  1.1039  0.8819 -1.7078
 7496TIP3   OH243978   1.804   3.379  16.096 -0.5634 -0.5146  0.4708
 7496TIP3    H143979   1.743   3.316  16.134 -0.3414 -2.4779 -2.2273
 7496TIP3    H243980   1.886   3.332  16.089  0.1160  0.6898  0.1409
 7497TIP3   OH243981   0.503   1.051   5.733 -0.0560 -0.0648 -0.1732
 7497TIP3    H143982   0.468   0.966   5.707  0.8464 -0.7864  0.8944
 7497TIP3    H243983   0.591   1.054   5.694 -0.0941  0.3846 -0.2253
 7498TIP3   OH243984   6.409   6.218   4.854  0.1793  0.2162 -0.6637
 7498TIP3    H143985   6.404   6.309   4.826 -1.4563  0.3291 -0.0816
 7498TIP3    H243986   6.336   6.208   4.915  0.1267 -1.5855 -0.9960
 7499TIP3   OH243987   3.420   3.169  14.140 -0.0051 -0.1321  0.4387
 7499TIP3    H143988   3.396   3.229  14.211  0.5251  1.2156 -0.4865
 7499TIP3    H243989   3.337   3.152  14.095 -0.0169  0.7362  0.1032
 7500TIP3   OH243990   5.893   0.526  10.566  0.1786 -0.5639 -0.4444
 7500TIP3    H143991   5.842   0.605  10.588  0.1554 -0.4605 -0.8534
 7500TIP3    H243992   5.859   0.458  10.624  1.9990  0.3575  1.7703
 7501TIP3   OH243993   6.351   1.870  14.541  0.3628  0.2154 -0.3666
 7501TIP3    H143994   6.386   1.787  14.507 -1.2360 -1.7325  2.5154
 7501TIP3    H243995   6.274   1.887  14.486 -1.1409 -1.9495  0.9345
 7502TIP3   OH243996   6.135   4.695  15.493  0.2519  0.1989 -0.0659
 7502TIP3    H143997   6.090   4.651  15.420  0.6610 -0.3085 -0.0193
 7502TIP3    H243998   6.173   4.773  15.453  0.5911 -0.1484 -0.4354
 7503TIP3   OH243999   5.529   1.731  10.819  0.4132 -0.0088 -0.0756
 7503TIP3    H144000   5.495   1.789  10.888  0.6164 -0.9174  0.8095
 7503TIP3    H244001   5.620   1.759  10.807  1.3318 -1.7714  2.2102
 7504TIP3   OH244002   3.801   0.123   1.370 -0.6786  0.5215 -0.5907
 7504TIP3    H144003   3.751   0.046   1.342 -0.5550  1.4561 -3.4476
 7504TIP3    H244004   3.753   0.198   1.335  0.4878  1.6420  0.1564
 7505TIP3   OH244005   0.198   4.956  14.985 -0.3306  0.2583 -0.8140
 7505TIP3    H144006   0.122   4.996  15.027 -1.0845 -0.6026 -1.3440
 7505TIP3    H244007   0.161   4.903  14.914  0.5727 -2.2663  0.5606
 7506TIP3   OH244008   4.989   1.856   0.213  0.0735  0.2874 -0.0188
 7506TIP3    H144009   5.011   1.879   0.123  0.4401  0.8543  0.2103
 7506TIP3    H244010   5.074   1.834   0.253 -0.1259 -0.2758  0.1001
 7507TIP3   OH244011   5.604   2.166   0.682 -0.0985 -0.4416  0.0950
 7507TIP3    H144012   5.632   2.246   0.726 -2.2738 -0.1008  0.9627
 7507TIP3    H244013   5.556   2.117   0.749 -0.1497 -1.7219 -0.8509
 7508TIP3   OH244014   5.704   0.936  14.935  0.6047 -0.0243 -0.3346
 7508TIP3    H144015   5.640   0.875  14.971  0.1038 -1.0611 -2.9133
 7508TIP3    H244016   5.778   0.931  14.995 -1.3098  0.4846  2.1758
 7509TIP3   OH244017   3.513   5.734   0.790 -0.5774 -0.6087  0.3559
 7509TIP3    H144018   3.581   5.767   0.732  0.6499 -0.3299  1.9256
 7509TIP3    H244019   3.434   5.780   0.762  0.2647  0.5104 -0.2202
 7510TIP3   OH244020   0.801   3.393  13.998  0.2772 -0.2213  0.0825
 7510TIP3    H144021   0.838   3.373  14.083 -0.4654 -0.8432  0.2598
 7510TIP3    H244022   0.753   3.314  13.973  1.5442 -0.5149 -1.4845
 7511TIP3   OH244023   5.859   0.873  12.673 -0.1546  0.0022 -0.4942
 7511TIP3    H144024   5.831   0.804  12.733 -0.4167 -1.1107 -1.8749
 7511TIP3    H244025   5.889   0.943  12.730 -0.8562 -0.8445  0.9473
 7512TIP3   OH244026   3.957   0.519  12.851 -0.0634  0.4084 -0.0195
 7512TIP3    H144027   4.015   0.500  12.925 -0.6747  1.5348  0.7627
 7512TIP3    H244028   3.951   0.437  12.803  0.5560 -0.2556  1.0296
 7513TIP3   OH244029   3.113   5.297   0.174  0.6330  0.4716 -0.2073
 7513TIP3    H144030   3.163   5.378   0.181 -0.1431  0.9744 -0.4223
 7513TIP3    H244031   3.060   5.295   0.253  1.7489 -0.5872  0.5328
 7514TIP3   OH244032   5.289   6.493   5.379  0.1818 -0.5121  0.0985
 7514TIP3    H144033   5.365   6.542   5.412  1.0563 -1.3600 -0.6350
 7514TIP3    H244034   5.235   6.479   5.457  0.8318 -0.0068  0.6557
 7515TIP3   OH244035   6.153   3.362  13.376 -0.3055  0.0145 -0.0206
 7515TIP3    H144036   6.114   3.316  13.450 -0.8316 -0.5946 -0.6593
 7515TIP3    H244037   6.197   3.292  13.326 -0.0653  0.4011 -0.3517
 7516TIP3   OH244038   2.593   6.627   0.683 -0.0547 -0.4986 -0.1492
 7516TIP3    H144039   2.632   6.709   0.716 -0.9760  0.1242 -0.5847
 7516TIP3    H244040   2.643   6.607   0.604 -0.0497 -0.1710 -0.2309
 7517TIP3   OH244041   6.799   6.675   2.681  0.0524  0.7438 -0.2736
 7517TIP3    H144042   6.833   6.642   2.598  0.6312  2.0268 -0.5552
 7517TIP3    H244043   6.742   6.748   2.657  1.0616  1.8113  0.5168
 7518TIP3   OH244044   4.991   2.430  16.371  0.4822  0.0940  0.6054
 7518TIP3    H144045   5.039   2.508  16.345 -4.8249  2.9253 -1.4037
 7518TIP3    H244046   4.977   2.381  16.289 -1.1562  0.0166  0.9102
 7519TIP3   OH244047   4.105   0.549  13.745  0.2999 -0.1883 -1.7380
 7519TIP3    H144048   4.082   0.457  13.753 -0.9337  0.2047 -0.6575
 7519TIP3    H244049   4.101   0.567  13.651 -0.4876 -0.9705 -1.8620
 7520TIP3   OH244050   2.576   0.146  11.236 -0.0731 -0.5808 -0.4766
 7520TIP3    H144051   2.647   0.085  11.218 -0.9689 -1.2200 -1.9175
 7520TIP3    H244052   2.604   0.228  11.196  0.2145 -0.6026 -0.3224
 7521TIP3   OH244053   1.846   2.466  13.141 -0.4275 -0.0133 -0.4128
 7521TIP3    H144054   1.827   2.373  13.127 -1.8647  0.5146 -2.1356
 7521TIP3    H244055   1.760   2.507  13.151  0.1997  1.1446  0.3864
 7522TIP3   OH244056   0.931   2.983  15.416  0.1571 -0.8917  0.5818
 7522TIP3    H144057   0.983   2.925  15.471  2.2560  0.0504 -0.3759
 7522TIP3    H244058   0.867   3.022  15.476  0.9913 -1.5331  1.9042
 7523TIP3   OH244059   4.319   3.961   4.897  0.3027  0.0093 -0.3815
 7523TIP3    H144060   4.366   3.922   4.971  0.6472  1.0512 -0.0426
 7523TIP3    H244061   4.388   3.994   4.839  0.0256 -0.4155 -0.9500
 7524TIP3   OH244062   2.114   0.792   4.689  0.4186  0.3401 -0.2099
 7524TIP3    H144063   2.207   0.770   4.694  0.2913 -0.3684 -1.0319
 7524TIP3    H244064   2.107   0.873   4.741  1.3889  0.1014  0.3148
 7525TIP3   OH244065   5.071   3.173   4.058 -0.6376 -0.5017  0.0916
 7525TIP3    H144066   5.063   3.127   3.975 -2.1135 -1.4535  0.7489
 7525TIP3    H244067   4.982   3.201   4.080 -0.4681 -1.2953  1.9228
 7526TIP3   OH244068   3.107   1.897   0.212 -0.4154  0.2977  0.5613
 7526TIP3    H144069   3.074   1.808   0.224 -1.1366  0.8079  2.5053
 7526TIP3    H244070   3.033   1.954   0.233 -0.7885  1.3923 -3.2178
 7527TIP3   OH244071   3.486   1.132   4.389 -0.5968 -0.0254  0.4902
 7527TIP3    H144072   3.515   1.056   4.338  0.5753  1.4771 -1.1675
 7527TIP3    H244073   3.566   1.166   4.429 -1.1635  0.1379  1.4933
 7528TIP3   OH244074   4.917   6.394   1.256 -0.1399 -0.1323 -0.2920
 7528TIP3    H144075   4.997   6.436   1.286  0.5076 -0.3449 -1.7021
 7528TIP3    H244076   4.895   6.440   1.175 -0.2949 -1.4523 -1.0087
 7529TIP3   OH244077   0.306   3.578   5.733  0.2277 -0.5414 -0.5423
 7529TIP3    H144078   0.226   3.529   5.712  0.4762 -0.0454 -2.7425
 7529TIP3    H244079   0.280   3.670   5.725  0.0819 -0.2669  2.4036
 7530TIP3   OH244080   2.461   4.399  12.598  0.0664 -0.3084 -0.0207
 7530TIP3    H144081   2.456   4.425  12.506  0.4417 -1.3278 -0.3254
 7530TIP3    H244082   2.428   4.310  12.600  2.8734 -1.3809  0.3635
 7531TIP3   OH244083   1.760   0.204  15.822  0.0003 -0.5401  0.2768
 7531TIP3    H144084   1.787   0.288  15.859  2.1831 -0.8979 -0.4398
 7531TIP3    H244085   1.708   0.163  15.891  1.2824  0.1945  1.7077
 7532TIP3   OH244086   0.477   0.676  12.760  0.3183  0.3448 -0.0346
 7532TIP3    H144087   0.487   0.767  12.788  1.6773 -0.4110  2.0110
 7532TIP3    H244088   0.419   0.637  12.825 -1.1167 -0.0242 -1.4940
 7533TIP3   OH244089   4.043   5.182  13.497 -0.1473  0.6624  0.3153
 7533TIP3    H144090   4.097   5.252  13.461  0.3107 -0.0387 -0.3739
 7533TIP3    H244091   4.077   5.167  13.585  0.1634  0.8705  0.2282
 7534TIP3   OH244092   5.289   3.413   3.522  0.0992 -0.7196  0.2695
 7534TIP3    H144093   5.289   3.387   3.430 -0.1219 -1.9898  0.6279
 7534TIP3    H244094   5.347   3.350   3.565  1.5778  0.9022  0.7159
 7535TIP3   OH244095   2.291   6.594  13.734 -0.1685 -0.3267 -0.0472
 7535TIP3    H144096   2.327   6.635  13.812  1.7292 -0.3609 -0.8496
 7535TIP3    H244097   2.212   6.643  13.714  0.2900  0.8084  0.8981
 7536TIP3   OH244098   2.558   5.660   5.826  0.1364 -0.7235  0.7090
 7536TIP3    H144099   2.647   5.643   5.858  0.1745  0.4469  1.2571
 7536TIP3    H244100   2.511   5.695   5.901 -0.0331  1.1750 -0.2396
 7537TIP3   OH244101   0.406   3.605  14.053 -0.0616 -0.2254  0.0675
 7537TIP3    H144102   0.415   3.564  14.139 -0.4699 -1.2674 -0.3716
 7537TIP3    H244103   0.311   3.613  14.040 -0.0454 -1.3154 -0.8465
 7538TIP3   OH244104   6.608   2.140   0.701 -0.4110  0.2055  0.6822
 7538TIP3    H144105   6.664   2.099   0.634 -1.0017  0.2954  0.1231
 7538TIP3    H244106   6.612   2.079   0.775 -1.3756 -0.9405 -0.1815
 7539TIP3   OH244107   0.151   1.051  16.731 -0.1966  0.1076 -0.3242
 7539TIP3    H144108   0.204   1.062  16.810 -0.6268 -0.2540  0.0171
 7539TIP3    H244109   0.069   1.012  16.762 -0.4811  0.2334 -0.9073
 7540TIP3   OH244110   4.547   0.331   6.417  0.4658  0.1127 -0.3967
 7540TIP3    H144111   4.460   0.358   6.389 -0.1301 -2.5758 -1.2978
 7540TIP3    H244112   4.605   0.402   6.390 -1.0604  0.6227 -2.3539
 7541TIP3   OH244113   4.625   4.975  16.827  0.2899 -0.1390  0.2974
 7541TIP3    H144114   4.684   5.050  16.819 -0.5823  0.6752  1.3539
 7541TIP3    H244115   4.660   4.910  16.766  0.6068  1.4248 -1.2120
 7542TIP3   OH244116   4.397   0.290   3.612 -0.2406 -0.1394  0.3794
 7542TIP3    H144117   4.452   0.227   3.566  0.6098  0.5914  0.3910
 7542TIP3    H244118   4.307   0.261   3.593  0.1045 -0.1837 -1.2419
 7543TIP3   OH244119   0.041   2.506  16.078  0.1144  0.3764  0.1656
 7543TIP3    H144120  -0.038   2.538  16.033  0.2605  1.7349  0.8684
 7543TIP3    H244121   0.013   2.493  16.169  0.8014  1.2512  0.5053
 7544TIP3   OH244122   2.863   1.717   5.436  0.6755  0.1820 -0.2784
 7544TIP3    H144123   2.902   1.727   5.349 -0.8129  0.1609 -0.9672
 7544TIP3    H244124   2.914   1.648   5.477  0.4100 -0.9166 -1.7461
 7545TIP3   OH244125   0.537   2.258   5.120 -0.1252 -0.2596 -0.3436
 7545TIP3    H144126   0.507   2.184   5.067  1.3453 -0.2292 -1.2484
 7545TIP3    H244127   0.536   2.332   5.059  1.1417 -0.1326 -0.2080
 7546TIP3   OH244128   2.394   4.164   3.688 -0.2765  0.0841  0.3196
 7546TIP3    H144129   2.402   4.257   3.667  2.3302  0.0652  1.0790
 7546TIP3    H244130   2.451   4.151   3.764 -0.9011 -2.0681  0.4611
 7547TIP3   OH244131   5.230   2.049  15.558  0.3963  0.3850 -0.7437
 7547TIP3    H144132   5.136   2.066  15.564  0.6112  1.0396  0.8673
 7547TIP3    H244133   5.245   1.978  15.620  1.0829  0.7082 -0.5431
 7548TIP3   OH244134   3.138   0.878   5.192 -0.4167  0.1405  0.4290
 7548TIP3    H144135   3.109   0.904   5.104  0.6511 -0.7782 -0.2058
 7548TIP3    H244136   3.192   0.951   5.222 -1.9410  1.0902  0.9155
 7549TIP3   OH244137   1.144   6.379   0.379 -0.0870  0.3562  0.5823
 7549TIP3    H144138   1.091   6.424   0.314 -1.3145 -1.3534  0.3607
 7549TIP3    H244139   1.233   6.413   0.366 -0.3497  0.1561 -1.8865
 7550TIP3   OH244140   0.108   4.784  13.688  0.1594  0.5627 -0.4153
 7550TIP3    H144141   0.055   4.706  13.677 -0.0009  0.6318 -0.1242
 7550TIP3    H244142   0.049   4.857  13.667  0.1444  0.6371 -0.1239
 7551TIP3   OH244143   0.955   1.971   4.600 -0.1503  0.1318 -0.0845
 7551TIP3    H144144   0.914   2.034   4.660 -0.1291 -0.7233  0.8318
 7551TIP3    H244145   0.947   1.887   4.644  0.5052 -0.4007 -0.9691
 7552TIP3   OH244146   1.528   3.515   3.934 -0.3878 -0.1150  1.3385
 7552TIP3    H144147   1.497   3.600   3.967 -1.2285 -0.1409  0.6380
 7552TIP3    H244148   1.452   3.477   3.891  0.1806 -0.9208  1.0355
 7553TIP3   OH244149   2.123   3.521   3.487 -0.1858 -0.5914  0.6809
 7553TIP3    H144150   2.140   3.613   3.511 -0.6330 -0.2489 -0.3243
 7553TIP3    H244151   2.049   3.496   3.542 -3.0701  1.0712 -2.3403
 7554TIP3   OH244152   2.721   2.108   4.711 -0.5566  0.4359 -0.0362
 7554TIP3    H144153   2.719   2.045   4.783 -1.6691 -1.1563 -1.4273
 7554TIP3    H244154   2.796   2.083   4.658 -1.1875  0.0725 -0.7669
 7555TIP3   OH244155   5.441   5.975  13.250 -0.1325  0.1285 -0.0811
 7555TIP3    H144156   5.346   5.969  13.245 -0.0820 -2.0394  1.2061
 7555TIP3    H244157   5.473   5.937  13.168 -0.3191 -0.8783  0.3169
 7556TIP3   OH244158   5.510   3.544   2.262 -0.0019  0.2069  0.2322
 7556TIP3    H144159   5.592   3.496   2.252 -0.5092 -0.5243 -0.4728
 7556TIP3    H244160   5.513   3.577   2.352  1.6232  1.2558 -0.1700
 7557TIP3   OH244161   4.262   1.101   0.079  0.7979  0.2322 -0.7152
 7557TIP3    H144162   4.235   1.146   0.159  0.5612 -1.2511  0.0410
 7557TIP3    H244163   4.347   1.063   0.100  0.5116 -0.5798 -0.9983
 7558TIP3   OH244164   2.569   3.568  12.334 -0.2684 -0.1285  0.6070
 7558TIP3    H144165   2.475   3.555  12.347 -0.8812  1.5203 -1.7759
 7558TIP3    H244166   2.605   3.577  12.422 -2.2109 -1.6132  1.5658
 7559TIP3   OH244167   0.535   0.409  14.742 -1.1409  0.6420 -0.0719
 7559TIP3    H144168   0.468   0.349  14.709 -0.5242  0.2263 -0.5801
 7559TIP3    H244169   0.583   0.358  14.807 -0.1026  0.3083 -1.0774
 7560TIP3   OH244170   5.160   5.845  11.128 -0.3514 -0.3760 -0.4135
 7560TIP3    H144171   5.176   5.938  11.112 -0.6573 -0.1782  0.3846
 7560TIP3    H244172   5.102   5.818  11.056  2.3059 -0.7520 -2.4645
 7561TIP3   OH244173   0.321   6.000  14.029  0.2118  0.7420  0.1395
 7561TIP3    H144174   0.304   6.085  13.988  0.3172 -0.4727 -2.5373
 7561TIP3    H244175   0.378   5.954  13.967  0.5018 -1.1368  1.7328
 7562TIP3   OH244176   6.056   2.251  14.104 -0.1430 -0.4238 -0.8128
 7562TIP3    H144177   5.978   2.236  14.158 -0.2749  1.6826 -0.3671
 7562TIP3    H244178   6.021   2.283  14.021  0.2493  1.7471 -0.1840
 7563TIP3   OH244179   0.403   2.877   3.923  0.8451 -0.0948  0.2624
 7563TIP3    H144180   0.487   2.870   3.969  2.2859 -2.3801 -2.5702
 7563TIP3    H244181   0.421   2.935   3.849 -0.7609  1.4110  1.0064
 7564TIP3   OH244182   5.925   5.465  16.900 -0.4303 -0.4374 -0.0877
 7564TIP3    H144183   5.985   5.445  16.971  0.3158  1.4942 -0.1378
 7564TIP3    H244184   5.838   5.456  16.938 -0.0489 -0.4717  0.7801
 7565TIP3   OH244185   6.477   3.318  12.600  0.1956 -0.4013  0.1229
 7565TIP3    H144186   6.516   3.258  12.663  0.3742  0.9128  1.2927
 7565TIP3    H244187   6.508   3.404  12.627 -1.5617  0.4108 -0.3886
 7566TIP3   OH244188   6.720   5.304   4.581  0.5710 -0.3902 -0.1963
 7566TIP3    H144189   6.633   5.286   4.615  0.9190 -1.2885  0.2252
 7566TIP3    H244190   6.779   5.287   4.654  1.1325 -0.1784 -0.5911
 7567TIP3   OH244191   4.095   6.354  15.234 -0.1623 -0.3752 -0.5041
 7567TIP3    H144192   4.105   6.424  15.169 -1.2204 -1.0136 -1.3822
 7567TIP3    H244193   4.112   6.274  15.184 -2.5777 -0.9881 -0.3896
 7568TIP3   OH244194   4.712   4.913   6.350 -0.4104  0.5371  0.1251
 7568TIP3    H144195   4.694   4.951   6.264  0.3407  1.4440  0.3563
 7568TIP3    H244196   4.662   4.967   6.411 -1.8509 -0.8058  0.1624
 7569TIP3   OH244197   3.491   3.087   2.369  1.0283  0.0961 -0.3064
 7569TIP3    H144198   3.551   3.125   2.432  2.2092  0.2588 -1.5233
 7569TIP3    H244199   3.434   3.030   2.421 -0.3599  2.9646  1.4401
 7570TIP3   OH244200   2.019   0.909  13.829  0.1309  0.8034 -0.1926
 7570TIP3    H144201   2.078   0.975  13.865 -0.0600  1.2416 -0.6728
 7570TIP3    H244202   1.933   0.933  13.861  0.0930  0.6582 -0.1850
 7571TIP3   OH244203   3.936   1.542  16.234 -0.1353 -0.0036  0.0134
 7571TIP3    H144204   4.016   1.594  16.244 -0.3543  0.2564  0.4174
 7571TIP3    H244205   3.896   1.542  16.321 -0.3887 -0.4424 -0.1002
 7572TIP3   OH244206   3.957   2.365  17.099 -0.4086 -1.1600 -0.2406
 7572TIP3    H144207   4.022   2.295  17.102 -0.5569 -1.2832  0.0939
 7572TIP3    H244208   3.963   2.400  17.010  0.7305 -0.5812  0.0635
 7573TIP3   OH244209   1.119   6.569  12.341  0.1044  0.0345 -0.4119
 7573TIP3    H144210   1.139   6.633  12.273  0.4867  1.4027  0.9622
 7573TIP3    H244211   1.109   6.486  12.294  3.9105  0.2383 -1.7649
 7574TIP3   OH244212   3.498   5.294  13.772 -0.1894  1.3556 -0.3956
 7574TIP3    H144213   3.408   5.261  13.766  0.7460 -1.8738  2.0220
 7574TIP3    H244214   3.541   5.260  13.693 -0.3668  0.4093 -0.0952
 7575TIP3   OH244215   4.562   0.609  16.782 -0.2216 -0.6337  1.0203
 7575TIP3    H144216   4.496   0.547  16.814 -3.7272  1.1218 -2.4085
 7575TIP3    H244217   4.553   0.686  16.838 -1.5872 -0.1799  0.2129
 7576TIP3   OH244218   0.495   1.218   0.224 -1.2933 -0.2692  0.0285
 7576TIP3    H144219   0.447   1.135   0.216 -1.7167 -0.1141  0.8729
 7576TIP3    H244220   0.476   1.264   0.142 -2.1375 -0.4546  0.1068
 7577TIP3   OH244221   6.390   6.678  17.155 -0.5643 -0.6938 -0.0210
 7577TIP3    H144222   6.299   6.704  17.144 -0.4679 -0.8835 -1.4116
 7577TIP3    H244223   6.396   6.646  17.245 -1.0847  2.4854  1.2058
 7578TIP3   OH244224   1.091   5.363   5.950  0.4317  0.0187 -0.2769
 7578TIP3    H144225   1.182   5.379   5.923  0.7851 -4.3804 -2.0393
 7578TIP3    H244226   1.098   5.337   6.042  0.8574  0.4744 -0.1745
 7579TIP3   OH244227   0.528   4.257  16.264  0.0640 -0.2228 -0.0501
 7579TIP3    H144228   0.519   4.185  16.327 -1.3255 -0.9224 -1.0119
 7579TIP3    H244229   0.452   4.248  16.207 -0.6311  2.6031  0.3733
 7580TIP3   OH244230   5.092   3.059  16.362 -0.1365 -0.1696 -0.2429
 7580TIP3    H144231   5.030   3.021  16.423 -2.0530 -0.3093 -2.2509
 7580TIP3    H244232   5.110   3.146  16.398 -1.0878 -0.3341  0.6415
 7581TIP3   OH244233   4.733   3.586   5.104  0.5260  0.6790 -0.3251
 7581TIP3    H144234   4.786   3.531   5.047  1.0766 -0.1109  0.9116
 7581TIP3    H244235   4.680   3.639   5.045 -0.3775 -1.5217 -1.5567
 7582TIP3   OH244236   5.640   3.518   5.018  0.9355 -0.2244  0.0630
 7582TIP3    H144237   5.704   3.589   5.015  1.2755 -0.5005  0.5652
 7582TIP3    H244238   5.597   3.520   4.933  0.7622  0.7473  0.1649
 7583TIP3   OH244239   5.117   0.607   1.936  0.5217 -0.3183 -0.0357
 7583TIP3    H144240   5.057   0.589   1.863  0.5357 -1.0135  0.1189
 7583TIP3    H244241   5.119   0.525   1.985  0.2504  0.2531  0.9339
 7584TIP3   OH244242   5.136   4.441  14.127 -0.0635 -0.6281  0.1000
 7584TIP3    H144243   5.194   4.383  14.078  0.9590  0.0137  0.5539
 7584TIP3    H244244   5.099   4.385  14.195 -0.7917 -1.2943 -0.8244
 7585TIP3   OH244245   5.704   2.439   0.826 -0.2748 -0.5865 -0.1056
 7585TIP3    H144246   5.761   2.453   0.901  1.4550 -0.7812 -1.3731
 7585TIP3    H244247   5.615   2.448   0.862  0.5433  0.6271  1.6947
 7586TIP3   OH244248   0.799   2.098   2.993  0.0868 -0.3297 -0.0475
 7586TIP3    H144249   0.859   2.173   2.998 -1.0874  0.7295 -1.4406
 7586TIP3    H244250   0.800   2.061   3.082  1.1320  0.9760  0.5099
 7587TIP3   OH244251   2.183   5.274  11.539 -0.5910  0.2028  0.0491
 7587TIP3    H144252   2.165   5.272  11.633  0.7361 -0.5457  0.2906
 7587TIP3    H244253   2.127   5.206  11.502 -0.7852  0.1988  0.3480
 7588TIP3   OH244254   0.804   3.462   3.833 -0.3607 -0.1420 -0.4851
 7588TIP3    H144255   0.723   3.512   3.826 -1.2899 -1.6372 -0.5882
 7588TIP3    H244256   0.864   3.520   3.881 -0.5396  2.1056 -2.8541
 7589TIP3   OH244257   1.467   0.362   0.397  0.0847 -0.0500  0.3491
 7589TIP3    H144258   1.491   0.297   0.463  1.0664 -1.3132 -1.2150
 7589TIP3    H244259   1.396   0.412   0.437 -0.3969 -1.8135  1.7523
 7590TIP3   OH244260   5.548   4.893  16.855  0.0386 -0.0432 -0.1600
 7590TIP3    H144261   5.590   4.908  16.770 -0.3325 -2.1758 -0.7626
 7590TIP3    H244262   5.465   4.851  16.833 -0.4125  0.0841  1.2340
 7591TIP3   OH244263   3.569   0.249   5.626  0.2551 -0.2317  0.1097
 7591TIP3    H144264   3.534   0.244   5.537  1.9225  0.4157 -0.6038
 7591TIP3    H244265   3.616   0.167   5.639 -0.0587 -0.3622  0.4150
 7592TIP3   OH244266   0.459   5.131  11.686  0.1075  0.1424 -0.0526
 7592TIP3    H144267   0.453   5.177  11.769  1.0036  0.8240 -0.3602
 7592TIP3    H244268   0.508   5.051  11.706  2.0882  1.2532 -0.2933
 7593TIP3   OH244269   0.271   4.847  11.083  0.4609  0.2951 -0.3682
 7593TIP3    H144270   0.285   4.939  11.058  2.4731 -0.3069 -1.6150
 7593TIP3    H244271   0.234   4.807  11.004 -0.4183  0.0152  0.1793
 7594TIP3   OH244272   5.227   3.640  15.065 -0.0845 -0.1883 -0.0892
 7594TIP3    H144273   5.171   3.717  15.069 -1.4271 -1.0780 -1.2318
 7594TIP3    H244274   5.315   3.675  15.054 -0.5074  1.2116  0.8614
 7595TIP3   OH244275   3.109   5.016   0.555  0.3331 -0.6023 -0.2621
 7595TIP3    H144276   3.177   5.084   0.553 -0.8759  0.6347 -0.9620
 7595TIP3    H244277   3.071   5.022   0.642  1.8848 -2.1109  0.5513
 7596TIP3   OH244278   0.149   5.391   3.742 -0.4312 -0.6120  0.6198
 7596TIP3    H144279   0.065   5.406   3.698  0.3113  0.4392 -0.4662
 7596TIP3    H244280   0.210   5.371   3.671 -0.3714 -4.4559  1.6364
 7597TIP3   OH244281   3.719   3.652  16.917  0.0133  0.0724 -0.1971
 7597TIP3    H144282   3.657   3.683  16.984  0.4284 -0.7523  0.5890
 7597TIP3    H244283   3.787   3.719  16.913 -0.6332  0.7107 -0.6616
 7598TIP3   OH244284   6.472   0.047  15.886  0.4470  0.3995 -0.2722
 7598TIP3    H144285   6.408   0.086  15.945  1.3157 -0.4674  1.2789
 7598TIP3    H244286   6.464   0.098  15.805 -1.0642  1.3249  0.4330
 7599TIP3   OH244287   5.081   4.837  14.348  0.3097  0.4117 -0.4124
 7599TIP3    H144288   5.035   4.767  14.301  1.5885 -1.1355  0.5605
 7599TIP3    H244289   5.154   4.860  14.292  1.3991 -0.9091  0.4080
 7600TIP3   OH244290   0.646   4.809  14.951  0.5330  0.4978 -0.2571
 7600TIP3    H144291   0.586   4.876  14.919 -0.8069 -0.5510 -0.0364
 7600TIP3    H244292   0.733   4.848  14.944 -0.1015  1.7516 -1.3618
 7601TIP3   OH244293   3.958   0.798  16.012  0.1930  0.0249  0.2372
 7601TIP3    H144294   4.045   0.807  15.973  0.9406  1.0372  2.1097
 7601TIP3    H244295   3.918   0.725  15.964  1.6012  0.3505 -1.4744
 7602TIP3   OH244296   2.683   3.912   1.798  0.2965  0.6718 -0.6427
 7602TIP3    H144297   2.649   3.908   1.708 -0.5716  0.5520 -0.3139
 7602TIP3    H244298   2.719   3.824   1.813 -1.8774 -0.1196  0.0188
 7603TIP3   OH244299   2.915   6.441  15.527  0.4884  0.4973  0.3091
 7603TIP3    H144300   2.907   6.347  15.508  0.6369  0.4631  0.4167
 7603TIP3    H244301   3.000   6.465  15.491  0.4220  0.6051  0.2253
 7604TIP3   OH244302   2.163   0.101   1.776  0.1418  0.7791 -0.4376
 7604TIP3    H144303   2.230   0.120   1.710  0.2286  2.4855  0.1293
 7604TIP3    H244304   2.100   0.173   1.769 -1.2245 -0.3928 -0.4225
 7605TIP3   OH244305   0.260   2.347  14.261 -0.2567 -0.2126 -0.1494
 7605TIP3    H144306   0.346   2.388  14.250 -0.7562  0.1759 -2.8670
 7605TIP3    H244307   0.253   2.287  14.188 -1.5437 -1.6474  1.1283
 7606TIP3   OH244308   0.902   6.413  16.025 -0.1697 -0.0305  0.1702
 7606TIP3    H144309   0.870   6.325  16.008 -1.0070  0.2035  0.4684
 7606TIP3    H244310   0.862   6.436  16.109  0.1532  0.5765  0.1561
 7607TIP3   OH244311   0.762   6.156  13.884  0.5566 -0.2577 -0.4828
 7607TIP3    H144312   0.717   6.087  13.934  1.6576 -0.5531  0.1187
 7607TIP3    H244313   0.843   6.171  13.933  1.4117 -0.1954 -1.9064
 7608TIP3   OH244314   1.940   4.976   5.574 -0.0742  0.1003 -0.0003
 7608TIP3    H144315   1.881   5.039   5.532  0.9347  0.7754 -0.4272
 7608TIP3    H244316   1.956   4.910   5.506 -0.8797 -0.4561  0.3432
 7609TIP3   OH244317   6.641   0.593   2.963 -0.4419  0.6765  0.4051
 7609TIP3    H144318   6.728   0.579   2.924 -0.3236  0.7447  0.6446
 7609TIP3    H244319   6.657   0.654   3.035 -1.0689  2.9031 -1.2459
 7610TIP3   OH244320   0.919   5.164  13.416 -0.4720 -0.1908 -0.6481
 7610TIP3    H144321   0.867   5.161  13.336  2.1729  0.7867 -2.4643
 7610TIP3    H244322   0.995   5.109  13.398  0.1941  0.0675  1.1963
 7611TIP3   OH244323   0.140   0.636  16.613 -0.4496  0.6269 -0.2186
 7611TIP3    H144324   0.082   0.564  16.638 -0.5488  0.7412 -0.1190
 7611TIP3    H244325   0.175   0.610  16.528  0.0853  0.1178  0.1486
 7612TIP3   OH244326   4.234   4.144  16.523  0.3876  0.3643 -0.1692
 7612TIP3    H144327   4.226   4.142  16.619 -0.6604 -1.2158 -0.2701
 7612TIP3    H244328   4.314   4.096  16.504  0.2625  0.1331 -0.1129
 7613TIP3   OH244329   6.435   2.072   3.687 -0.4820  0.3634  0.7234
 7613TIP3    H144330   6.425   2.037   3.775  1.2619  1.2566  1.2949
 7613TIP3    H244331   6.403   2.162   3.693 -1.6009  0.0156  0.1173
 7614TIP3   OH244332   6.745   2.631   1.213 -0.7405 -0.1352 -0.1641
 7614TIP3    H144333   6.822   2.575   1.204 -0.8485  0.0329 -2.4934
 7614TIP3    H244334   6.697   2.594   1.287  1.5126 -0.2884  1.2687
 7615TIP3   OH244335   5.991   5.510   5.221  0.5650  0.5470 -0.1193
 7615TIP3    H144336   5.933   5.500   5.145  2.1759 -0.0580 -1.2937
 7615TIP3    H244337   6.021   5.422   5.240  0.4662  0.7541  1.0012
 7616TIP3   OH244338   5.438   3.644   3.580 -0.8053 -0.0403  0.3578
 7616TIP3    H144339   5.374   3.574   3.569 -0.1701 -0.4464 -0.9328
 7616TIP3    H244340   5.516   3.599   3.614 -0.1217 -0.1284 -1.2556
 7617TIP3   OH244341   5.874   4.742   1.442  0.1468  0.5524  0.1896
 7617TIP3    H144342   5.862   4.821   1.495 -0.9851  1.4165 -1.3102
 7617TIP3    H244343   5.852   4.769   1.353 -0.2714 -1.4678 -0.3541
 7618TIP3   OH244344   4.907   6.305  16.254 -0.2799 -0.3631  0.3633
 7618TIP3    H144345   4.812   6.300  16.247 -0.1997  0.1520 -1.1753
 7618TIP3    H244346   4.940   6.260  16.176  0.7325 -0.4277  0.8188
 7619TIP3   OH244347   2.126   4.359   2.400 -0.1380 -0.3044 -0.5206
 7619TIP3    H144348   2.127   4.270   2.433  2.3879  0.1578  0.7810
 7619TIP3    H244349   2.042   4.395   2.431 -0.6596 -1.8379 -0.0975
 7620TIP3   OH244350   1.920   6.664   4.151 -0.1963  0.1708  0.1391
 7620TIP3    H144351   1.991   6.728   4.151  0.5179 -0.5861  1.6548
 7620TIP3    H244352   1.857   6.697   4.215 -0.5361  0.1096 -0.1568
 7621TIP3   OH244353   6.096   6.766   2.182 -0.2787 -0.2585 -0.7653
 7621TIP3    H144354   6.002   6.746   2.185 -0.5306  0.9646 -0.1009
 7621TIP3    H244355   6.130   6.732   2.266 -0.2428 -0.1429 -0.7331
 7622TIP3   OH244356   6.234   1.697  10.241 -0.7215  0.1110  0.5904
 7622TIP3    H144357   6.268   1.677  10.154 -0.3572  1.4529  0.4164
 7622TIP3    H244358   6.150   1.651  10.245 -1.0271  0.5456 -0.6959
 7623TIP3   OH244359   0.732   1.315   5.426 -0.0394  0.2786 -0.0888
 7623TIP3    H144360   0.655   1.370   5.436  0.2912  0.5293  1.1336
 7623TIP3    H244361   0.765   1.335   5.338 -1.6643 -0.2332 -0.8259
 7624TIP3   OH244362   5.834   6.688   0.734  0.3825 -0.0502 -0.2322
 7624TIP3    H144363   5.878   6.618   0.686  0.7939  0.2519 -0.2945
 7624TIP3    H244364   5.886   6.766   0.717  0.0564  0.2271  0.0272
 7625TIP3   OH244365   5.151   2.767   5.650 -0.1419 -0.0228 -0.2281
 7625TIP3    H144366   5.193   2.740   5.568  0.2477  0.2058 -0.1067
 7625TIP3    H244367   5.197   2.848   5.674 -1.3385  0.8084 -0.6419
 7626TIP3   OH244368   0.225   3.975   1.801  0.0291  0.2458  0.4070
 7626TIP3    H144369   0.155   3.983   1.737 -1.2779 -2.3125  1.4335
 7626TIP3    H244370   0.193   4.019   1.879  0.1014  0.2204  0.4518
 7627TIP3   OH244371   5.290   5.071   5.974  0.3563  0.0324  0.1706
 7627TIP3    H144372   5.284   5.068   5.879 -2.1035  1.5004  0.2225
 7627TIP3    H244373   5.383   5.062   5.993  0.8004 -1.1479 -2.3164
 7628TIP3   OH244374   4.944   0.530   1.645  0.3540 -0.0117  0.0966
 7628TIP3    H144375   5.026   0.506   1.601  0.9944 -1.1226  1.8400
 7628TIP3    H244376   4.886   0.556   1.574  1.5198 -1.2644 -1.3740
 7629TIP3   OH244377   6.456   4.667   1.707  0.1934 -0.6132  0.1614
 7629TIP3    H144378   6.389   4.600   1.694  1.8414 -2.0712 -1.1268
 7629TIP3    H244379   6.426   4.741   1.654 -0.1503 -1.4579 -0.8587
 7630TIP3   OH244380   1.379   1.072   0.124 -0.6429 -0.3454 -0.1738
 7630TIP3    H144381   1.471   1.074   0.153 -0.3614  2.3432 -1.0852
 7630TIP3    H244382   1.341   0.998   0.171  1.3252  0.1336  2.3398
 7631TIP3   OH244383   0.146   4.362   3.439 -0.3386 -0.1650 -0.0929
 7631TIP3    H144384   0.067   4.417   3.439 -1.3360 -1.5121 -2.4584
 7631TIP3    H244385   0.217   4.421   3.413 -1.0225  0.4684 -0.5496
 7632TIP3   OH244386   3.334   0.355   1.285 -0.3840  0.1215  0.0062
 7632TIP3    H144387   3.345   0.260   1.272 -0.4281  0.2558 -1.1268
 7632TIP3    H244388   3.384   0.374   1.364 -0.5225 -0.8835  0.3512
 7633TIP3   OH244389   1.342   5.852  11.635 -0.3398 -0.3184  0.5878
 7633TIP3    H144390   1.367   5.881  11.723  0.0609  0.4476  0.2335
 7633TIP3    H244391   1.258   5.895  11.618 -0.2225 -0.1438  0.4430
 7634TIP3   OH244392   4.853   3.859   1.317 -0.3090 -0.9771 -0.4301
 7634TIP3    H144393   4.855   3.921   1.389  0.0429 -0.6266 -0.7337
 7634TIP3    H244394   4.772   3.810   1.328 -0.5134 -0.5603 -0.1026
 7635TIP3   OH244395   2.673   6.614   1.602 -0.3243  0.1610  0.0653
 7635TIP3    H144396   2.625   6.578   1.677 -0.5200 -0.0524 -0.1629
 7635TIP3    H244397   2.701   6.701   1.632  2.6380 -1.2544  1.6754
 7636TIP3   OH244398   1.024   0.653   6.000 -0.2934  0.0338 -0.0169
 7636TIP3    H144399   0.946   0.680   6.049 -0.6280  0.1418 -0.6126
 7636TIP3    H244400   1.028   0.558   6.012 -0.4753  0.0368  0.0715
 7637TIP3   OH244401   6.271   2.817  14.406  0.2271  0.0663 -0.3054
 7637TIP3    H144402   6.286   2.825  14.500 -2.8685 -0.9043  0.3343
 7637TIP3    H244403   6.214   2.741  14.398  2.1486 -1.1258 -3.1806
 7638TIP3   OH244404   2.329   4.155  15.528 -0.0939 -0.0095  0.0551
 7638TIP3    H144405   2.399   4.141  15.592 -0.3116 -0.9897  0.0773
 7638TIP3    H244406   2.251   4.116  15.569 -0.2933 -0.3951 -0.6887
 7639TIP3   OH244407   5.399   5.717   1.547 -0.4011 -0.0644 -0.1323
 7639TIP3    H144408   5.352   5.793   1.581 -1.8181 -0.1612 -1.8216
 7639TIP3    H244409   5.341   5.680   1.480  0.2892 -2.6214  0.6371
 7640TIP3   OH244410   6.628   0.996  10.967  0.4141  0.4621 -0.0461
 7640TIP3    H144411   6.709   1.021  10.924  0.6473 -0.1622  0.0187
 7640TIP3    H244412   6.559   1.023  10.906  0.6644  1.0412 -0.0763
 7641TIP3   OH244413   6.766   4.406   2.281  0.0164  0.2866  0.0926
 7641TIP3    H144414   6.862   4.408   2.275 -0.0135  1.3887 -0.0594
 7641TIP3    H244415   6.737   4.414   2.190 -0.2252  0.1566  0.1591
 7642TIP3   OH244416   6.687   4.435   5.158  0.2436 -0.6240 -0.6169
 7642TIP3    H144417   6.696   4.456   5.251  0.0602  0.1265 -0.7606
 7642TIP3    H244418   6.608   4.383   5.152  0.3457 -0.8091 -0.3281
 7643TIP3   OH244419   5.854   4.940   4.958  0.3711  0.1889 -0.2074
 7643TIP3    H144420   5.896   4.923   5.043  1.2021  0.2783 -0.6044
 7643TIP3    H244421   5.760   4.945   4.979  0.4738 -0.8344  0.5514
 7644TIP3   OH244422   0.662   4.607  13.949  0.1691  0.2194  0.5573
 7644TIP3    H144423   0.612   4.564  13.879 -1.3729  1.8967  0.6036
 7644TIP3    H244424   0.713   4.674  13.904 -0.3339  0.8673  0.9356
 7645TIP3   OH244425   1.778   3.329   0.568  0.2664  0.7385  0.7059
 7645TIP3    H144426   1.731   3.412   0.571 -0.4356  0.3313  1.2654
 7645TIP3    H244427   1.868   3.352   0.591  0.4314  1.5748 -0.7328
 7646TIP3   OH244428   0.503   2.254   1.476 -0.5559 -0.0783 -0.7933
 7646TIP3    H144429   0.511   2.169   1.518 -0.0889  0.9200  1.1939
 7646TIP3    H244430   0.583   2.262   1.423  0.0582 -0.2982  0.0952
 7647TIP3   OH244431   3.364   3.923  13.122 -0.1944 -0.1078 -0.4717
 7647TIP3    H144432   3.286   3.944  13.174 -0.2892  0.7332 -0.9312
 7647TIP3    H244433   3.337   3.939  13.031  0.9805  1.7742 -0.5191
 7648TIP3   OH244434   1.724   2.522   4.188 -0.0193  0.1832 -0.2684
 7648TIP3    H144435   1.695   2.495   4.275  0.7735 -0.5728 -0.2271
 7648TIP3    H244436   1.817   2.542   4.199 -0.3485  1.8930 -0.5399
 7649TIP3   OH244437   0.183   2.589  11.090 -0.2770 -0.2850 -0.4188
 7649TIP3    H144438   0.271   2.554  11.073  0.7749  2.9199 -2.0500
 7649TIP3    H244439   0.136   2.576  11.008 -0.2884  0.9427 -0.6090
 7650TIP3   OH244440   2.655   6.224  12.369 -0.9542 -0.2162 -0.0707
 7650TIP3    H144441   2.738   6.270  12.361 -0.1107 -1.3907  1.4793
 7650TIP3    H244442   2.589   6.293  12.371  0.0043  0.7401 -1.0158
 7651TIP3   OH244443   2.549   1.563   1.956  0.0276 -0.3255  0.0727
 7651TIP3    H144444   2.608   1.533   1.887  1.3108  0.1721  0.9221
 7651TIP3    H244445   2.479   1.609   1.910 -0.7285 -2.5784 -1.0830
 7652TIP3   OH244446   3.588   0.203  11.139  0.4030 -0.1374  0.3324
 7652TIP3    H144447   3.538   0.185  11.060  0.8551 -0.4897  0.1210
 7652TIP3    H244448   3.678   0.176  11.117  1.5339  3.9686 -0.5989
 7653TIP3   OH244449   3.734   3.372  12.688 -0.3208  0.2124 -0.2748
 7653TIP3    H144450   3.813   3.339  12.645  0.9482  2.3912  0.2380
 7653TIP3    H244451   3.763   3.453  12.730 -2.6431  0.5826  0.6876
 7654TIP3   OH244452   5.476   4.269  15.242 -0.0826 -0.3314 -0.2793
 7654TIP3    H144453   5.465   4.363  15.225 -0.1460 -0.4884 -1.1127
 7654TIP3    H244454   5.567   4.251  15.219  0.3728 -0.1807  1.3029
 7655TIP3   OH244455   3.799   4.141  14.527 -0.1500  0.1940 -0.0489
 7655TIP3    H144456   3.889   4.115  14.509 -0.0771  0.7737 -0.5171
 7655TIP3    H244457   3.789   4.127  14.622  0.5820  0.6179  0.0942
 7656TIP3   OH244458   1.423   5.948  14.273  0.5466 -0.1846 -0.3378
 7656TIP3    H144459   1.471   5.865  14.265  1.7615  0.5310 -0.5748
 7656TIP3    H244460   1.429   5.970  14.366  1.6106  0.4504 -0.5538
 7657TIP3   OH244461   2.661   1.171   1.890  0.8587 -0.1664  0.4313
 7657TIP3    H144462   2.578   1.207   1.861  1.5378  0.7843 -0.3721
 7657TIP3    H244463   2.641   1.083   1.920 -0.2572 -0.2896 -0.6871
 7658TIP3   OH244464   1.881   6.637  12.523 -0.8177 -0.4841 -0.2537
 7658TIP3    H144465   1.803   6.580  12.518 -1.6112  0.5953 -0.3914
 7658TIP3    H244466   1.922   6.628  12.438 -0.3661 -1.6326  0.0656
 7659TIP3   OH244467   5.991   0.329   3.267  0.1320 -0.1234 -0.0857
 7659TIP3    H144468   6.012   0.389   3.339  0.1334 -0.4726  0.1999
 7659TIP3    H244469   5.899   0.308   3.279 -0.6887  2.1233 -1.8549
 7660TIP3   OH244470   4.114   2.086  16.749  0.6104  0.1749 -0.5978
 7660TIP3    H144471   4.163   2.067  16.669  1.7909  0.0073  0.1435
 7660TIP3    H244472   4.047   2.149  16.722 -0.2868 -1.3900 -2.1175
 7661TIP3   OH244473   0.700   2.954  15.239 -0.3066  0.4106 -0.4714
 7661TIP3    H144474   0.778   2.976  15.290 -2.5963  1.8412  2.5832
 7661TIP3    H244475   0.676   3.036  15.195 -0.6925  0.2651 -0.5382
 7662TIP3   OH244476   1.170   5.885  12.929 -0.1855 -0.4250  0.3310
 7662TIP3    H144477   1.168   5.977  12.957 -0.3706 -0.3897  0.2025
 7662TIP3    H244478   1.189   5.836  13.008 -1.9304 -0.4298  0.7526
 7663TIP3   OH244479   0.335   3.090   3.688 -0.4367 -0.0108  0.4369
 7663TIP3    H144480   0.427   3.081   3.712  0.2691  2.0003 -1.3480
 7663TIP3    H244481   0.306   3.170   3.732 -1.3706 -0.6747  1.0600
 7664TIP3   OH244482   3.061   0.169   2.029 -0.1033 -0.0153 -0.0240
 7664TIP3    H144483   3.044   0.215   1.947 -1.2995  0.0063  0.2300
 7664TIP3    H244484   3.002   0.210   2.093 -0.5345 -1.2825  0.4179
 7665TIP3   OH244485   5.467   6.068  11.548 -0.4642 -0.6609  0.4503
 7665TIP3    H144486   5.412   6.072  11.626 -0.9580 -1.1682  0.1357
 7665TIP3    H244487   5.410   6.099  11.477 -0.3815 -1.2811  0.1055
 7666TIP3   OH244488   3.124   0.472  11.496  0.0848 -0.0349 -0.5422
 7666TIP3    H144489   3.055   0.429  11.445 -0.7188 -0.2843  0.7298
 7666TIP3    H244490   3.089   0.560  11.514  0.0414 -0.2072  0.2137
 7667TIP3   OH244491   5.254   1.952  14.599 -0.1029  0.4893  0.1225
 7667TIP3    H144492   5.263   1.873  14.545 -1.4974  0.3818  0.0178
 7667TIP3    H244493   5.218   2.017  14.539  0.5048  1.0462  0.3590
 7668TIP3   OH244494   0.072   0.206  12.806  0.0672 -0.5411 -0.2704
 7668TIP3    H144495   0.093   0.193  12.714  0.2543 -2.3247  0.0115
 7668TIP3    H244496   0.002   0.143  12.824  0.8539 -1.0600  1.0902
 7669TIP3   OH244497   4.232   3.850  11.535 -0.6463 -0.1904 -0.3315
 7669TIP3    H144498   4.287   3.795  11.479 -0.5207  1.5794 -1.9938
 7669TIP3    H244499   4.142   3.825  11.512 -0.5807 -0.3228 -0.4462
 7670TIP3   OH244500   6.325   3.154   6.542 -0.2731  0.4574 -0.3390
 7670TIP3    H144501   6.305   3.247   6.555  1.9731  0.7316  1.5158
 7670TIP3    H244502   6.418   3.147   6.561 -0.6168 -2.3706  0.4749
 7671TIP3   OH244503   3.041   6.228   0.297  0.3570  0.0972 -0.4115
 7671TIP3    H144504   3.122   6.179   0.312 -0.4061 -1.4706 -1.3225
 7671TIP3    H244505   3.068   6.302   0.242  1.5807  0.9331  1.2522
 7672TIP3   OH244506   3.888   3.038  11.359 -0.4928 -0.0501 -0.2135
 7672TIP3    H144507   3.852   3.051  11.271  0.8258  0.5749 -0.6664
 7672TIP3    H244508   3.837   3.097  11.415 -0.2182  0.7866 -0.8360
 7673TIP3   OH244509   2.757   6.816   1.172 -0.2095  0.3979 -0.1308
 7673TIP3    H144510   2.847   6.785   1.176 -0.2517  0.0076 -1.7552
 7673TIP3    H244511   2.704   6.739   1.193 -0.2090  0.0942 -1.1724
 7674TIP3   OH244512   4.354   6.540  14.871  0.1895  0.4533 -0.6241
 7674TIP3    H144513   4.317   6.502  14.792 -2.5813 -1.3856  1.4670
 7674TIP3    H244514   4.367   6.466  14.930  2.9083  1.6968  0.4256
 7675TIP3   OH244515   6.187   1.005  12.064  0.5507 -0.5511 -0.5406
 7675TIP3    H144516   6.235   1.043  11.990  1.2256 -0.1825  0.0815
 7675TIP3    H244517   6.213   0.913  12.064  1.3312 -0.3322 -0.1520
 7676TIP3   OH244518   0.856   3.993  14.506 -0.1173 -0.0866  0.0785
 7676TIP3    H144519   0.933   4.049  14.498 -0.2913  0.5639  2.3983
 7676TIP3    H244520   0.807   4.031  14.579  0.2700 -3.8238  2.4018
 7677TIP3   OH244521   0.937   3.312   5.267 -0.0309  0.5533 -0.4179
 7677TIP3    H144522   0.921   3.357   5.184  1.3283 -0.5236 -1.2817
 7677TIP3    H244523   0.909   3.222   5.253 -0.6712  0.5808  0.6018
 7678TIP3   OH244524   1.541   2.101   2.083  0.3935 -0.4627  0.5516
 7678TIP3    H144525   1.530   2.036   2.152 -0.8035 -0.0649  0.7604
 7678TIP3    H244526   1.476   2.077   2.017  3.3162 -2.4469 -1.7631
 7679TIP3   OH244527   1.455   4.530   3.567 -0.0838  0.5205 -0.4364
 7679TIP3    H144528   1.455   4.576   3.483 -1.2073  0.5572 -0.4306
 7679TIP3    H244529   1.372   4.556   3.608 -1.4402 -2.6277 -1.0526
 7680TIP3   OH244530   5.058   3.184  13.923 -0.2963 -0.2052  0.8156
 7680TIP3    H144531   5.138   3.137  13.945  0.0505  0.0746  0.1497
 7680TIP3    H244532   4.998   3.164  13.995  0.4082 -0.3156  1.3793
 7681TIP3   OH244533   0.213   0.493   1.336 -0.5854 -0.1022 -0.3745
 7681TIP3    H144534   0.303   0.460   1.330 -1.4473 -2.2374 -2.2212
 7681TIP3    H244535   0.161   0.415   1.357 -2.2810  0.6870 -1.5815
 7682TIP3   OH244536   3.385   0.870   1.553  0.0135 -0.0904 -0.1858
 7682TIP3    H144537   3.414   0.961   1.554  0.0157 -0.0804  2.7109
 7682TIP3    H244538   3.458   0.821   1.592 -0.9609 -0.9880  0.5436
 7683TIP3   OH244539   2.153   4.989   0.123  0.0588 -0.2961 -0.2699
 7683TIP3    H144540   2.240   4.953   0.140 -0.2728 -1.6853 -1.4214
 7683TIP3    H244541   2.170   5.067   0.071  0.5738 -1.4166 -1.8432
 7684TIP3   OH244542   0.560   3.179  11.097  0.3653 -0.3258 -0.2926
 7684TIP3    H144543   0.626   3.248  11.107  0.2476 -0.2243 -0.2217
 7684TIP3    H244544   0.523   3.168  11.184  1.1830 -1.2849 -0.0483
 7685TIP3   OH244545   4.000   1.687  14.561 -0.0839 -0.2580  0.4727
 7685TIP3    H144546   4.049   1.634  14.498  1.9970  0.5450  1.3744
 7685TIP3    H244547   4.016   1.646  14.645 -1.3659 -0.2644  0.7161
 7686TIP3   OH244548   4.607   6.272  15.365  0.4658 -0.1740  0.4018
 7686TIP3    H144549   4.668   6.316  15.424  1.4379  0.6899 -1.2029
 7686TIP3    H244550   4.580   6.340  15.303 -0.8249 -0.9739  0.0578
 7687TIP3   OH244551   3.307   1.944  11.446  0.1748 -0.1828 -0.3341
 7687TIP3    H144552   3.371   2.001  11.489 -1.2133  0.2490  1.1591
 7687TIP3    H244553   3.286   1.989  11.364 -1.8025  2.0857  1.3635
 7688TIP3   OH244554   2.307   5.683   1.999  0.1178  0.1677 -0.1832
 7688TIP3    H144555   2.292   5.593   2.027  1.6194  0.0635  0.3203
 7688TIP3    H244556   2.311   5.733   2.080  0.2083  0.5415 -0.4164
 7689TIP3   OH244557   0.149   4.656   3.933 -0.2373  0.5554  0.3251
 7689TIP3    H144558   0.108   4.678   3.850 -0.4627 -0.4022  0.1831
 7689TIP3    H244559   0.080   4.614   3.984 -0.4508  2.2530  1.4774
 7690TIP3   OH244560   6.352   6.487   4.801 -0.5341 -0.3166 -0.5222
 7690TIP3    H144561   6.357   6.560   4.862  0.0478 -0.6506 -0.1697
 7690TIP3    H244562   6.264   6.494   4.762 -0.4448  0.6180 -0.5578
 7691TIP3   OH244563   6.544   2.810   4.510  0.0792 -0.3072 -0.4019
 7691TIP3    H144564   6.528   2.861   4.589 -0.6820 -0.5162 -0.4245
 7691TIP3    H244565   6.611   2.746   4.536 -0.1154 -0.3274  0.0476
 7692TIP3   OH244566   4.141   2.318   5.092  0.1114 -0.3096 -0.5173
 7692TIP3    H144567   4.056   2.312   5.135  0.3787  2.8520  0.6246
 7692TIP3    H244568   4.132   2.393   5.033  1.3953 -1.3694 -2.0817
 7693TIP3   OH244569   6.024   1.347  10.242  0.5104  0.5200  0.3852
 7693TIP3    H144570   6.101   1.337  10.298  1.1583  0.5064 -0.4973
 7693TIP3    H244571   6.020   1.440  10.221 -1.4286  1.0339  2.8163
 7694TIP3   OH244572   2.364   4.670   4.562 -0.1854 -0.0779 -0.3934
 7694TIP3    H144573   2.369   4.634   4.474  2.6120  0.1146 -0.3406
 7694TIP3    H244574   2.446   4.644   4.604 -0.1751  2.2938  1.1813
 7695TIP3   OH244575   0.245   3.586  16.114 -0.6887  0.0444 -0.3618
 7695TIP3    H144576   0.241   3.500  16.156 -0.9886  0.5044  0.5542
 7695TIP3    H244577   0.193   3.576  16.035 -0.9553 -0.5392 -0.1143
 7696TIP3   OH244578   4.830   3.942   1.677 -0.0178 -0.6845  0.0323
 7696TIP3    H144579   4.863   4.015   1.729  3.2308 -0.7385 -1.8012
 7696TIP3    H244580   4.790   3.983   1.600 -1.0233 -0.7270  0.5370
 7697TIP3   OH244581   2.746   1.812  16.597 -0.1521 -0.1651 -0.4629
 7697TIP3    H144582   2.801   1.737  16.621 -0.5952 -0.2533  0.2880
 7697TIP3    H244583   2.799   1.888  16.622 -0.5887 -0.2555  0.7680
 7698TIP3   OH244584   3.920   2.368  13.450 -0.4398 -0.1682 -0.0521
 7698TIP3    H144585   4.015   2.377  13.450 -0.5207  0.7338  1.4660
 7698TIP3    H244586   3.903   2.291  13.504 -0.4642 -1.8980 -2.4251
 7699TIP3   OH244587   2.121   6.786  16.026  0.5636  0.1498 -0.8533
 7699TIP3    H144588   2.199   6.834  15.999 -0.7046  1.4464 -2.3344
 7699TIP3    H244589   2.065   6.852  16.067 -0.3554 -0.4553 -1.1172
 7700TIP3   OH244590   0.554   1.290   4.557  0.3890 -0.2726 -0.2981
 7700TIP3    H144591   0.553   1.239   4.476 -0.4882 -0.1492 -0.3633
 7700TIP3    H244592   0.520   1.231   4.624 -0.5567  0.2050 -0.3598
 7701TIP3   OH244593   6.645   2.359  13.310 -0.3468  0.0511  0.0932
 7701TIP3    H144594   6.645   2.266  13.288 -0.2445 -0.3602  1.7341
 7701TIP3    H244595   6.553   2.378  13.332 -0.2401  0.1461  0.4731
 7702TIP3   OH244596   3.043   5.078  17.077 -0.5219  0.6356 -0.2704
 7702TIP3    H144597   3.036   5.072  16.981  0.2102 -2.0810 -0.1927
 7702TIP3    H244598   3.112   5.143  17.091  0.0742  0.3331 -1.6371
 7703TIP3   OH244599   4.064   4.545  15.843 -0.0991  0.1387 -0.2681
 7703TIP3    H144600   4.072   4.488  15.767 -1.6633  0.7134 -0.8811
 7703TIP3    H244601   3.970   4.563  15.850  0.3954  3.1651 -0.5198
 7704TIP3   OH244602   5.110   4.139  16.253  0.0505  0.2104 -0.3575
 7704TIP3    H144603   5.191   4.091  16.237  1.4930  2.9854 -1.7679
 7704TIP3    H244604   5.103   4.200  16.179 -2.4828  1.1232  0.5787
 7705TIP3   OH244605   2.639   6.199   1.506  0.1976 -1.1784 -0.0424
 7705TIP3    H144606   2.684   6.270   1.550 -1.0512 -0.3421 -0.0804
 7705TIP3    H244607   2.604   6.145   1.577  0.0963 -1.0678 -0.0070
 7706TIP3   OH244608   4.402   2.200   0.452 -0.1396 -0.4123 -0.0515
 7706TIP3    H144609   4.309   2.211   0.434  0.1237  0.1755 -1.0964
 7706TIP3    H244610   4.443   2.192   0.366  1.0004  1.1911  0.3221
 7707TIP3   OH244611   0.706   0.434  16.228  0.2091 -0.4174  0.8091
 7707TIP3    H144612   0.752   0.421  16.311  1.2865  0.0634  0.2939
 7707TIP3    H244613   0.750   0.375  16.166  1.3608  1.3961 -0.1362
 7708TIP3   OH244614   6.637   3.142  11.935  0.0354 -0.4394 -0.6304
 7708TIP3    H144615   6.542   3.144  11.949  0.0218 -0.8027 -0.6782
 7708TIP3    H244616   6.674   3.179  12.015 -0.1624  0.0839 -0.7748
 7709TIP3   OH244617   0.659   4.436   4.456 -0.1968 -0.4704 -0.2536
 7709TIP3    H144618   0.568   4.443   4.483  0.1582 -0.0989  0.8925
 7709TIP3    H244619   0.655   4.406   4.366 -1.4434 -0.8054 -0.0975
 7710TIP3   OH244620   3.743   1.942   1.434  0.0295 -0.5919  0.2322
 7710TIP3    H144621   3.677   2.012   1.431 -1.0245 -1.5664  0.5029
 7710TIP3    H244622   3.769   1.936   1.526  0.8162  0.0671  0.0651
 7711TIP3   OH244623   2.513   6.675  16.786  0.1253 -0.3854  0.2896
 7711TIP3    H144624   2.580   6.743  16.794  0.1848 -0.2715 -1.0651
 7711TIP3    H244625   2.556   6.596  16.817 -0.6622  0.5772  4.1349
 7712TIP3   OH244626   3.499   6.302   1.452  0.1457 -0.4447  0.5692
 7712TIP3    H144627   3.526   6.235   1.388  0.3576  0.2798 -0.0987
 7712TIP3    H244628   3.449   6.365   1.400 -1.2344 -0.7890  1.4504
 7713TIP3   OH244629   5.422   5.748  11.856 -0.4371 -0.2415  0.5335
 7713TIP3    H144630   5.392   5.711  11.774  0.9381 -0.5699  0.1602
 7713TIP3    H244631   5.509   5.783  11.836 -0.2414 -0.0047  1.7528
 7714TIP3   OH244632   5.953   3.822   0.129 -0.4791  0.1074  0.0035
 7714TIP3    H144633   5.886   3.880   0.166  0.3707  0.5763  0.8315
 7714TIP3    H244634   5.997   3.784   0.206 -0.2522 -0.7381 -0.5319
 7715TIP3   OH244635   0.254   3.990   5.632 -0.0856  0.2310  0.0376
 7715TIP3    H144636   0.295   4.026   5.553 -0.3454 -2.2928 -1.3192
 7715TIP3    H244637   0.165   4.025   5.630 -0.2257 -0.1500 -1.0447
 7716TIP3   OH244638   0.594   0.537  14.479 -0.8346  0.4294  0.1418
 7716TIP3    H144639   0.669   0.595  14.494 -0.7260  0.1900  0.5239
 7716TIP3    H244640   0.607   0.464  14.539 -0.6981 -0.2570 -0.7090
 7717TIP3   OH244641   1.796   5.967  14.680 -0.4982 -0.1371 -0.3789
 7717TIP3    H144642   1.792   6.062  14.696  0.9724 -0.0198 -0.6162
 7717TIP3    H244643   1.859   5.935  14.745 -0.1789 -0.7785 -1.0001
 7718TIP3   OH244644   1.747   5.785   5.439  0.2561 -0.2121 -0.4221
 7718TIP3    H144645   1.676   5.726   5.466  0.9229 -0.9680 -0.2905
 7718TIP3    H244646   1.821   5.758   5.494  0.5987  0.6765 -0.4497
 7719TIP3   OH244647   4.988   2.502   2.282 -0.3137 -0.1547  0.2365
 7719TIP3    H144648   5.004   2.528   2.373 -1.8148  0.3340  0.3686
 7719TIP3    H244649   4.896   2.476   2.280 -0.6150  0.9652 -1.4088
 7720TIP3   OH244650   5.596   3.018   4.171  0.5031 -0.2337  0.5386
 7720TIP3    H144651   5.549   3.001   4.253  0.0734  1.5375  0.6858
 7720TIP3    H244652   5.548   3.091   4.131  2.2941  0.6861  0.0177
 7721TIP3   OH244653   0.354   1.178   6.237 -0.2303  0.4339  0.2950
 7721TIP3    H144654   0.358   1.107   6.174 -0.4919  0.4467  0.2639
 7721TIP3    H244655   0.433   1.167   6.291 -0.7633 -0.4432  0.9022
 7722TIP3   OH244656   3.202   6.737   4.725 -0.2859  0.0316  0.2926
 7722TIP3    H144657   3.130   6.741   4.662 -0.6169  0.7236  0.7144
 7722TIP3    H244658   3.200   6.647   4.757 -0.8059 -0.0217  0.1152
 7723TIP3   OH244659   4.505   0.888   2.476 -0.2082  0.0049 -0.4582
 7723TIP3    H144660   4.572   0.819   2.475  0.7105  0.8732 -2.0436
 7723TIP3    H244661   4.430   0.848   2.519  1.6605 -0.6567  2.3019
 7724TIP3   OH244662   5.079   2.970  17.092 -0.0202  0.6774 -0.0272
 7724TIP3    H144663   4.985   2.983  17.105 -0.0644  0.6702 -0.3238
 7724TIP3    H244664   5.086   2.890  17.041  0.2295 -0.1385  1.2759
 7725TIP3   OH244665   4.193   6.132   6.755  0.5063  0.0256  0.5985
 7725TIP3    H144666   4.176   6.061   6.817  0.0024 -0.5402 -0.1786
 7725TIP3    H244667   4.225   6.204   6.809  2.0907 -1.1516  1.2645
 7726TIP3   OH244668   1.624   6.731   3.828  0.3767 -0.0919  0.3103
 7726TIP3    H144669   1.659   6.816   3.800  1.1454  0.2850  2.3123
 7726TIP3    H244670   1.586   6.749   3.914 -0.8645 -1.4514  0.0576
 7727TIP3   OH244671   0.279   6.706   6.219 -0.0606 -0.2915  0.2934
 7727TIP3    H144672   0.192   6.736   6.245 -0.1608 -1.0491  0.8436
 7727TIP3    H244673   0.268   6.612   6.203  0.0583  0.0683 -2.1968
 7728TIP3   OH244674   0.018   2.153   1.744 -0.3359 -0.1097  0.4105
 7728TIP3    H144675   0.017   2.238   1.699 -2.6847 -0.3474 -0.0232
 7728TIP3    H244676   0.111   2.137   1.761  0.3374  1.4858 -1.5017
 7729TIP3   OH244677   2.859   4.552  12.638 -0.0544 -0.8528  0.4965
 7729TIP3    H144678   2.799   4.548  12.563 -0.7976 -1.3885  1.1146
 7729TIP3    H244679   2.838   4.474  12.689  4.1282 -3.4416 -1.4785
 7730TIP3   OH244680   1.553   5.340  17.080  0.8434  0.0933 -0.0259
 7730TIP3    H144681   1.598   5.395  17.144  0.6251  0.1548  0.0767
 7730TIP3    H244682   1.463   5.374  17.079  0.4395 -0.9570  0.8060
 7731TIP3   OH244683   1.648   5.682   0.154 -0.0464 -0.3782 -0.3526
 7731TIP3    H144684   1.653   5.740   0.230 -1.4399 -0.3754 -0.2624
 7731TIP3    H244685   1.624   5.597   0.190  1.1001 -0.8142 -0.5914
 7732TIP3   OH244686   0.508   2.062   3.926 -0.8472 -0.1938  0.1763
 7732TIP3    H144687   0.508   2.155   3.904 -0.3392 -0.4245 -0.8083
 7732TIP3    H244688   0.506   2.017   3.842  1.8571 -1.0766  0.5520
 7733TIP3   OH244689   2.076   0.875   0.127 -0.3348 -0.1859  0.1564
 7733TIP3    H144690   2.107   0.920   0.205  1.8180  0.0479 -0.7835
 7733TIP3    H244691   2.076   0.782   0.151  1.7347 -0.2463  0.0065
 7734TIP3   OH244692   0.611   1.629   1.651  0.4215  0.1229 -0.2711
 7734TIP3    H144693   0.705   1.638   1.666  0.1915  2.4983 -0.1154
 7734TIP3    H244694   0.572   1.704   1.695 -1.4738 -0.3593 -1.0854
 7735TIP3   OH244695   2.189   1.123  16.878 -0.0807 -0.4058 -0.0192
 7735TIP3    H144696   2.119   1.185  16.855  2.5248  3.0772  0.9814
 7735TIP3    H244697   2.226   1.098  16.793 -1.3973 -0.9339 -0.4606
 7736TIP3   OH244698   5.849   6.312  13.990 -0.2243 -0.0932  0.0565
 7736TIP3    H144699   5.864   6.403  13.965 -1.2122 -0.2979 -1.2804
 7736TIP3    H244700   5.936   6.272  13.990 -0.1972 -0.1601 -3.3710
 7737TIP3   OH244701   5.668   4.021   2.129 -0.0122  0.4528  0.5413
 7737TIP3    H144702   5.644   4.099   2.179  0.5810  0.1250  1.3447
 7737TIP3    H244703   5.764   4.017   2.137 -0.0441 -0.3587  0.5039
 7738TIP3   OH244704   5.650   5.044  14.066  0.5982 -0.1606  0.1181
 7738TIP3    H144705   5.720   4.993  14.024  0.9547  2.2170 -2.2919
 7738TIP3    H244706   5.569   4.999  14.040  1.0216 -0.9266  0.0905
 7739TIP3   OH244707   5.016   0.492   4.513  0.3955  0.1025  0.3318
 7739TIP3    H144708   4.951   0.549   4.552  0.3772  1.6019 -1.8074
 7739TIP3    H244709   4.969   0.410   4.496 -0.5899  0.7374 -0.0191
 7740TIP3   OH244710   0.491   5.395   5.100 -0.3190  0.0918  0.1179
 7740TIP3    H144711   0.507   5.306   5.129  2.8930  0.2510 -0.9005
 7740TIP3    H244712   0.478   5.445   5.180  4.3148 -0.1926  1.1718
 7741TIP3   OH244713   6.206   4.253  13.172 -0.3883  0.5846  0.6662
 7741TIP3    H144714   6.287   4.203  13.171  1.7274  3.8527  0.4615
 7741TIP3    H244715   6.164   4.230  13.255  0.7011 -1.1464  0.7621
 7742TIP3   OH244716   4.931   0.167  15.315  0.2244  0.5286 -0.1275
 7742TIP3    H144717   4.946   0.206  15.402 -0.6399  0.6512 -0.0256
 7742TIP3    H244718   4.921   0.074  15.332 -0.2070  0.5866 -0.0628
 7743TIP3   OH244719   4.360   6.069   1.156  0.8562 -0.2375 -0.1410
 7743TIP3    H144720   4.420   5.995   1.157 -0.3480 -1.2068  0.9336
 7743TIP3    H244721   4.366   6.107   1.244  1.1565  0.6973 -0.5535
 7744TIP3   OH244722   2.243   3.941  15.341 -0.0671 -0.0763  0.3226
 7744TIP3    H144723   2.184   3.875  15.306 -0.8293 -0.2603  1.9044
 7744TIP3    H244724   2.190   4.021  15.348  0.5692  0.4405 -0.6257
 7745TIP3   OH244725   4.953   5.294  14.173  0.1261  0.4381  0.4402
 7745TIP3    H144726   4.986   5.382  14.191  3.1386 -0.1950 -1.4934
 7745TIP3    H244727   4.872   5.308  14.125  0.4971  2.1582  0.2774
 7746TIP3   OH244728   5.755   5.960   4.204  0.2389 -0.8378 -0.0997
 7746TIP3    H144729   5.720   5.972   4.293  0.7574 -0.7793  0.0998
 7746TIP3    H244730   5.755   6.049   4.167 -0.5615 -0.9512 -0.3829
 7747TIP3   OH244731   3.715   1.707   2.249  0.3125 -0.5301  0.2334
 7747TIP3    H144732   3.805   1.718   2.219  0.0841  0.2311 -0.1847
 7747TIP3    H244733   3.661   1.738   2.176 -0.2685 -0.0085  0.8734
 7748TIP3   OH244734   0.455   0.116   0.140 -0.5507 -0.0069 -0.2411
 7748TIP3    H144735   0.382   0.054   0.145  1.0393 -1.7295  3.3556
 7748TIP3    H244736   0.525   0.067   0.099  0.2547 -0.1536  1.2750
 7749TIP3   OH244737   0.188   1.350   5.349  0.0843 -0.5699 -0.0788
 7749TIP3    H144738   0.100   1.361   5.386  0.9204 -0.1584  1.8539
 7749TIP3    H244739   0.245   1.397   5.410  1.5309  0.0772 -1.8968
 7750TIP3   OH244740   5.209   3.389  16.797 -0.3716  0.3804 -0.1720
 7750TIP3    H144741   5.184   3.478  16.822 -1.0036 -0.0691  0.8406
 7750TIP3    H244742   5.286   3.370  16.850 -0.3142  0.2813 -0.2908
 7751TIP3   OH244743   1.417   5.103  15.700  0.2587 -0.5056 -0.0753
 7751TIP3    H144744   1.372   5.031  15.744 -1.4074  0.5214 -0.0522
 7751TIP3    H244745   1.406   5.085  15.606 -0.4652 -0.1257 -0.0720
 7752TIP3   OH244746   1.292   4.835   0.551  0.1335 -0.0261  0.4720
 7752TIP3    H144747   1.285   4.929   0.536 -0.5401 -0.0067  0.9021
 7752TIP3    H244748   1.220   4.797   0.501  0.3000 -0.2986  0.4362
 7753TIP3   OH244749   1.206   3.507  12.665 -0.6439 -0.4960 -0.5978
 7753TIP3    H144750   1.233   3.428  12.712 -0.7946  0.4485  1.1214
 7753TIP3    H244751   1.131   3.479  12.612  0.9657 -2.1072 -2.0524
 7754TIP3   OH244752   3.474   3.498  15.241  0.1592 -0.1302  0.7244
 7754TIP3    H144753   3.517   3.443  15.175  1.4854  1.1565  0.4978
 7754TIP3    H244754   3.388   3.458  15.252 -1.1274  1.1320 -3.7021
 7755TIP3   OH244755   4.531   2.107   3.142 -0.3437 -0.5015 -0.9595
 7755TIP3    H144756   4.456   2.112   3.202  1.1101 -0.4105  0.8833
 7755TIP3    H244757   4.583   2.184   3.162 -0.8936  0.6724 -3.8484
 7756TIP3   OH244758   3.485   2.299   5.968 -0.3251 -0.0827 -0.0806
 7756TIP3    H144759   3.430   2.369   6.002 -0.1907 -0.5597  1.1401
 7756TIP3    H244760   3.559   2.345   5.928 -1.0162  0.5163 -0.6973
 7757TIP3   OH244761   0.319   1.403   3.481 -0.2335 -0.2679 -0.4676
 7757TIP3    H144762   0.354   1.491   3.500  0.9847 -0.2115 -2.8196
 7757TIP3    H244763   0.381   1.343   3.523  0.1058 -0.0489 -0.6512
 7758TIP3   OH244764   2.330   4.336   3.962 -0.5649 -0.0079  0.6913
 7758TIP3    H144765   2.324   4.246   3.929  1.9081  0.2920 -0.6728
 7758TIP3    H244766   2.241   4.370   3.952 -1.0683 -1.6335 -0.7602
 7759TIP3   OH244767   4.247   5.784  13.770 -0.0468  0.4078  0.1336
 7759TIP3    H144768   4.308   5.734  13.715  0.4941 -1.1639  2.0642
 7759TIP3    H244769   4.163   5.774  13.727  1.1950  3.6603 -3.2766
 7760TIP3   OH244770   3.141   0.066  10.702  0.2217  0.2358  0.1486
 7760TIP3    H144771   3.183  -0.007  10.747  1.8254  1.0232 -0.0475
 7760TIP3    H244772   3.197   0.141  10.720 -1.0855  1.2891 -0.1660
 7761TIP3   OH244773   0.448   1.626   0.523 -0.6082  0.0196 -0.6073
 7761TIP3    H144774   0.429   1.561   0.592 -0.7679 -0.7891 -1.4009
 7761TIP3    H244775   0.502   1.578   0.460 -0.5349  0.7333 -1.0847
 7762TIP3   OH244776   5.530   0.717  13.767  0.1928  0.0480 -0.3734
 7762TIP3    H144777   5.555   0.634  13.808 -0.4156 -0.6664 -1.4338
 7762TIP3    H244778   5.435   0.719  13.774  0.1812  0.4923 -0.6811
 7763TIP3   OH244779   3.782   1.361   2.761 -0.2876 -0.2272 -0.1450
 7763TIP3    H144780   3.711   1.296   2.760 -0.0856 -0.4476 -1.2014
 7763TIP3    H244781   3.857   1.314   2.797  0.0276 -0.7794 -1.4902
 7764TIP3   OH244782   4.672   5.350  12.402  0.0824 -0.1356 -0.7010
 7764TIP3    H144783   4.629   5.265  12.415  2.0163 -1.0970 -0.4504
 7764TIP3    H244784   4.738   5.334  12.335  0.9491  0.9951 -0.1421
 7765TIP3   OH244785   2.692   1.291   5.675 -0.1517 -0.0623  0.1231
 7765TIP3    H144786   2.632   1.358   5.705  2.0988  1.7998  0.6228
 7765TIP3    H244787   2.689   1.297   5.579 -1.0620 -0.2890  0.1315
 7766TIP3   OH244788   6.542   5.581   6.055  0.9735  0.0310  0.7037
 7766TIP3    H144789   6.624   5.534   6.069  0.8054 -1.2153 -2.0881
 7766TIP3    H244790   6.501   5.585   6.141  3.1651 -0.8380  1.8266
 7767TIP3   OH244791   0.712   2.981  15.608  0.3073 -0.1026 -0.2923
 7767TIP3    H144792   0.699   2.899  15.655 -1.4292 -0.6516 -1.6513
 7767TIP3    H244793   0.629   2.995  15.562  0.6715  2.2959 -0.2682
 7768TIP3   OH244794   6.629   3.126  12.770 -0.6895  0.3919  0.0415
 7768TIP3    H144795   6.556   3.065  12.757 -0.2063 -0.3776  0.8933
 7768TIP3    H244796   6.703   3.071  12.795 -0.1822  1.2964  0.5777
 7769TIP3   OH244797   2.551   0.330  14.900  0.2460  0.2289  0.0846
 7769TIP3    H144798   2.623   0.391  14.913  0.3260  0.1983 -0.2173
 7769TIP3    H244799   2.507   0.326  14.985  0.0529  0.9467  0.0190
 7770TIP3   OH244800   6.035   2.145  13.269 -0.0056 -0.0816  0.2531
 7770TIP3    H144801   6.110   2.144  13.210 -2.6423  1.6410 -3.2826
 7770TIP3    H244802   6.050   2.220  13.326  0.9787  0.1809 -0.3470
 7771TIP3   OH244803   1.957   6.434   5.272  0.1281 -0.4669  0.2409
 7771TIP3    H144804   1.928   6.461   5.359 -0.0797 -1.2311  0.4183
 7771TIP3    H244805   1.881   6.447   5.216  0.3195  0.2004  0.1403
 7772TIP3   OH244806   1.579   5.978   1.763 -0.6258 -0.5682  0.2670
 7772TIP3    H144807   1.655   6.004   1.815  0.7904  1.1332 -2.5202
 7772TIP3    H244808   1.542   6.061   1.732 -1.9159 -1.5052 -0.7455
 7773TIP3   OH244809   2.782   6.075  14.913 -0.1058 -0.4537 -0.2115
 7773TIP3    H144810   2.864   6.078  14.863  1.2043  1.6587  1.9708
 7773TIP3    H244811   2.809   6.071  15.004 -2.4210  0.2947  0.5597
 7774TIP3   OH244812   5.427   6.056   3.321 -0.4727 -0.0483 -0.4912
 7774TIP3    H144813   5.404   5.993   3.389  0.8045  0.6828  0.6467
 7774TIP3    H244814   5.415   6.142   3.362  0.1913  0.4064 -1.2071
 7775TIP3   OH244815   4.397   4.193   2.974 -0.7979 -0.0126  0.2451
 7775TIP3    H144816   4.326   4.153   3.023  0.9423 -1.3557  1.7345
 7775TIP3    H244817   4.436   4.256   3.035 -0.6296  0.6422 -0.5232
 7776TIP3   OH244818   6.036   3.569   1.461 -0.5921  0.0197  0.3698
 7776TIP3    H144819   5.993   3.639   1.411 -1.0520 -0.4349  0.1297
 7776TIP3    H244820   6.062   3.611   1.543  0.5473  0.8837 -0.4053
 7777TIP3   OH244821   0.943   4.120  13.629 -0.3244 -0.7209 -0.0934
 7777TIP3    H144822   0.875   4.156  13.572  1.2019  0.6704 -1.0767
 7777TIP3    H244823   0.895   4.070  13.695 -2.2589 -0.3252 -1.1678
 7778TIP3   OH244824   3.219   6.612  12.442  0.3797  0.1503 -0.1671
 7778TIP3    H144825   3.128   6.639  12.452 -0.2634 -2.4645  1.7325
 7778TIP3    H244826   3.221   6.562  12.360 -0.5415 -2.0150  1.0690
 7779TIP3   OH244827   5.546   3.043  14.713  0.1081 -0.4074 -0.5341
 7779TIP3    H144828   5.547   2.955  14.674  1.5399 -0.3596 -0.6139
 7779TIP3    H244829   5.470   3.043  14.771 -0.6334 -1.2837 -1.4958
 7780TIP3   OH244830   4.636   2.987   2.818 -0.3021  0.5314 -0.1919
 7780TIP3    H144831   4.548   2.976   2.780 -0.1693  0.2358 -0.4137
 7780TIP3    H244832   4.654   3.080   2.810 -0.5959  0.5946 -0.1495
 7781TIP3   OH244833   5.793   2.317  16.802  0.3025  0.6475  0.0788
 7781TIP3    H144834   5.708   2.290  16.768 -0.3824 -0.1861  2.3501
 7781TIP3    H244835   5.806   2.405  16.766 -0.3223 -0.2142 -2.3332
 7782TIP3   OH244836   3.822   2.820  14.166  0.2009  0.1643  0.0648
 7782TIP3    H144837   3.755   2.779  14.112  1.3950 -1.5810 -0.1120
 7782TIP3    H244838   3.903   2.809  14.117  0.6351  2.3599  0.2244
 7783TIP3   OH244839   2.204   6.599   3.479  0.4223  0.5418 -0.2010
 7783TIP3    H144840   2.291   6.596   3.518 -0.1097 -0.3530  0.9714
 7783TIP3    H244841   2.144   6.583   3.552 -0.7262  1.0963 -0.9947
 7784TIP3   OH244842   3.112   4.727   3.085 -0.1174 -0.3123 -0.3714
 7784TIP3    H144843   3.082   4.637   3.094  1.9586 -1.1839 -1.7612
 7784TIP3    H244844   3.195   4.729   3.133 -1.3840  1.5419  1.8111
 7785TIP3   OH244845   3.705   5.972  11.325  0.3575 -0.6244  0.6665
 7785TIP3    H144846   3.755   6.054  11.317  0.6551 -0.8717 -0.1170
 7785TIP3    H244847   3.756   5.919  11.386  0.8768 -0.7362  0.1457
 7786TIP3   OH244848   1.173   0.789  11.699  0.0724 -0.2476  0.0735
 7786TIP3    H144849   1.095   0.821  11.653  0.7459  2.3420  0.6528
 7786TIP3    H244850   1.233   0.763  11.629  1.0453  3.5632 -0.5756
 7787TIP3   OH244851   3.751   3.032   5.550  0.0482  0.3580 -0.3822
 7787TIP3    H144852   3.811   2.968   5.589  0.3557  1.2253  0.5816
 7787TIP3    H244853   3.692   3.057   5.622 -2.5059 -1.6404 -1.6684
 7788TIP3   OH244854   2.057   1.790  11.893 -0.1284 -0.3546  0.3756
 7788TIP3    H144855   2.022   1.707  11.860 -0.9838 -0.4715  1.5262
 7788TIP3    H244856   2.097   1.831  11.817 -1.3801 -0.9577 -0.6438
 7789TIP3   OH244857   0.975   3.136   1.040  0.1851  0.4100  0.1124
 7789TIP3    H144858   0.987   3.044   1.017 -1.8079 -0.2372  1.5339
 7789TIP3    H244859   0.997   3.140   1.133  0.2092  1.3586  0.0655
 7790TIP3   OH244860   2.779   3.313  16.069  0.6396  0.4191 -0.5925
 7790TIP3    H144861   2.684   3.305  16.057  0.6387 -0.5786  0.0167
 7790TIP3    H244862   2.789   3.373  16.143  0.4100 -1.4332  0.9803
 7791TIP3   OH244863   0.819   6.588  13.895  0.0535 -0.2641 -0.4334
 7791TIP3    H144864   0.737   6.607  13.941  1.4886 -0.2918  2.2195
 7791TIP3    H244865   0.867   6.671  13.896  0.8519 -0.7270 -0.3059
 7792TIP3   OH244866   1.950   0.985   0.696 -0.3988 -0.2276 -0.0832
 7792TIP3    H144867   1.868   0.944   0.671 -2.0934  4.0744 -2.0684
 7792TIP3    H244868   1.979   1.032   0.617  1.8092  1.6910  1.7796
 7793TIP3   OH244869   2.133   5.785  16.048  0.6038  0.3436 -0.5169
 7793TIP3    H144870   2.195   5.716  16.023  0.7602  0.3444 -0.1306
 7793TIP3    H244871   2.074   5.743  16.110  1.0307  0.7010  0.1391
 7794TIP3   OH244872   2.802   6.660  15.985  0.3389 -0.0009 -1.1277
 7794TIP3    H144873   2.798   6.573  15.945  0.2286 -0.6694  0.2981
 7794TIP3    H244874   2.739   6.656  16.057 -0.3871  1.5926 -1.6570
 7795TIP3   OH244875   0.821   6.018  14.715 -0.4139 -0.3367  0.1599
 7795TIP3    H144876   0.791   6.089  14.657 -2.5560 -0.9348  0.5073
 7795TIP3    H244877   0.844   5.947  14.655 -1.4539 -0.5185 -0.0348
 7796TIP3   OH244878   1.991   0.850   3.493 -0.2915 -0.1638  0.1832
 7796TIP3    H144879   2.086   0.841   3.497 -0.3638 -0.5687  0.8598
 7796TIP3    H244880   1.977   0.936   3.452  0.3670  0.4111  1.1578
 7797TIP3   OH244881   5.443   2.501  15.078 -0.3496  0.5074 -0.1476
 7797TIP3    H144882   5.407   2.589  15.065  0.4778  0.5425 -2.5927
 7797TIP3    H244883   5.524   2.501  15.028  0.9799 -0.8734  1.9475
 7798TIP3   OH244884   5.004   1.011  11.389 -0.5289  0.2560  0.4128
 7798TIP3    H144885   4.996   0.976  11.477  0.4888  1.0743  0.8431
 7798TIP3    H244886   4.940   1.083  11.386  0.3549  1.0742  0.9243
 7799TIP3   OH244887   2.585   5.908  15.318  0.4430 -0.2821 -0.7204
 7799TIP3    H144888   2.592   6.001  15.297 -2.6068 -0.0041 -0.7458
 7799TIP3    H244889   2.673   5.882  15.343  1.9649  1.9058 -3.5459
 7800TIP3   OH244890   0.879   1.600   1.735 -1.0774 -0.0208 -0.3457
 7800TIP3    H144891   0.829   1.535   1.785 -0.6043  0.8013  1.2532
 7800TIP3    H244892   0.955   1.619   1.791  0.2598 -0.1645 -2.0715
 7801TIP3   OH244893   0.468   0.241   4.230 -0.1602  0.1838  0.3639
 7801TIP3    H144894   0.462   0.157   4.276  0.2359 -0.1108 -0.1200
 7801TIP3    H244895   0.495   0.218   4.141  0.4701  0.8609  0.3743
 7802TIP3   OH244896   0.605   3.785   5.394  0.0234 -0.2177  0.4924
 7802TIP3    H144897   0.593   3.691   5.403 -0.3275 -0.0855  1.5533
 7802TIP3    H244898   0.595   3.819   5.483 -1.7805  1.0211 -0.1422
 7803TIP3   OH244899   3.557   2.829  17.204  0.6904  0.1409  0.4067
 7803TIP3    H144900   3.466   2.850  17.224 -0.2879  0.3871 -3.8358
 7803TIP3    H244901   3.599   2.914  17.194  0.5433  0.0849 -0.8686
 7804TIP3   OH244902   4.735   5.445  11.057  0.2246  0.3895 -0.3391
 7804TIP3    H144903   4.672   5.479  11.120 -2.1585 -2.0528 -1.2751
 7804TIP3    H244904   4.702   5.474  10.972  0.6295 -0.4704 -0.7975
 7805TIP3   OH244905   2.308   5.427   0.018 -0.0478 -0.4286  0.3985
 7805TIP3    H144906   2.290   5.521   0.008  1.4945  0.1295  2.3368
 7805TIP3    H244907   2.251   5.400   0.090 -1.2117 -1.2181 -0.8149
 7806TIP3   OH244908   1.756   0.952  11.643  0.2069 -0.3476 -0.0000
 7806TIP3    H144909   1.743   0.871  11.693 -1.4404 -0.0985  0.0060
 7806TIP3    H244910   1.673   0.964  11.596  0.4854  1.2754 -0.0879
 7807TIP3   OH244911   0.388   2.980  17.150  0.4867 -0.0990 -1.0041
 7807TIP3    H144912   0.314   2.966  17.090  0.4586 -0.1054 -0.9682
 7807TIP3    H244913   0.448   3.036  17.101  0.2137  0.3474 -0.8414
 7808TIP3   OH244914   3.719   0.236   3.158 -0.2018  0.3947  0.1096
 7808TIP3    H144915   3.698   0.238   3.065 -1.8963 -1.1832  0.4354
 7808TIP3    H244916   3.798   0.182   3.164 -0.8542 -0.6188 -0.2935
 7809TIP3   OH244917   0.175   2.583   3.239  0.3463 -0.1880 -0.2092
 7809TIP3    H144918   0.084   2.591   3.267  0.3062 -1.1165 -0.0799
 7809TIP3    H244919   0.223   2.642   3.298 -0.1939  0.5116 -0.4539
 7810TIP3   OH244920   0.183   2.246   3.953  1.0109 -0.0501 -0.6967
 7810TIP3    H144921   0.155   2.221   4.041  0.5106 -2.5360 -1.5378
 7810TIP3    H244922   0.274   2.275   3.965  0.7769  0.1689  0.7123
 7811TIP3   OH244923   4.330   4.599   3.477  0.0800 -0.8207 -0.3766
 7811TIP3    H144924   4.395   4.592   3.407  0.8281 -0.4242  0.2647
 7811TIP3    H244925   4.367   4.663   3.537 -0.8566 -0.6858  0.0602
 7812TIP3   OH244926   3.116   0.734   0.953  0.2998  0.7487 -0.4104
 7812TIP3    H144927   3.096   0.709   0.862 -1.8297  2.3029 -0.4094
 7812TIP3    H244928   3.031   0.730   0.998  1.5379 -1.2482  1.8570
 7813TIP3   OH244929   6.243   3.672  17.251 -0.1947 -0.0931 -0.1044
 7813TIP3    H144930   6.202   3.751  17.286  1.6617  1.2053 -0.7846
 7813TIP3    H244931   6.191   3.600  17.287 -2.0125  1.4319  0.3967
 7814TIP3   OH244932   3.450   2.722   5.462 -0.5699 -0.2635  0.8251
 7814TIP3    H144933   3.532   2.770   5.459 -0.4924 -0.4008  0.7282
 7814TIP3    H244934   3.476   2.630   5.454 -0.6690 -0.3611  1.5560
 7815TIP3   OH244935   4.092   3.094   2.341 -0.0876 -0.0091  0.0949
 7815TIP3    H144936   4.008   3.122   2.304 -0.9322 -1.6016  0.7458
 7815TIP3    H244937   4.156   3.153   2.302 -1.5608  1.5323 -0.0857
 7816TIP3   OH244938   5.024   1.921  11.061  0.2700 -0.6624 -0.0074
 7816TIP3    H144939   5.072   1.855  11.011  1.5684 -0.0323  0.3922
 7816TIP3    H244940   4.955   1.950  11.001  0.8062 -1.0771 -0.8471
 7817TIP3   OH244941   3.551   3.334   4.440  0.5691 -0.5709 -0.7952
 7817TIP3    H144942   3.590   3.251   4.467  0.4073 -0.1306  0.8606
 7817TIP3    H244943   3.456   3.319   4.447  0.5609  0.1939  0.9455
 7818TIP3   OH244944   1.584   1.892  13.906  0.0698  0.0362  0.1752
 7818TIP3    H144945   1.606   1.977  13.943 -2.5177  0.0248  1.9228
 7818TIP3    H244946   1.571   1.909  13.812  3.0474  0.8223 -0.1209
 7819TIP3   OH244947   5.276   0.004  13.809  0.1965 -0.2067 -0.2983
 7819TIP3    H144948   5.248   0.031  13.896  1.0416  0.0009 -0.0847
 7819TIP3    H244949   5.351  -0.054  13.824  0.5765  0.1186 -0.8944
 7820TIP3   OH244950   5.210   6.610   5.994  0.3448  0.1903  0.0699
 7820TIP3    H144951   5.273   6.541   5.972  1.5582  0.9569  1.0158
 7820TIP3    H244952   5.133   6.563   6.025  0.5779 -0.7708 -0.7720
 7821TIP3   OH244953   2.288   3.187  15.350  0.5198 -0.0088 -0.3542
 7821TIP3    H144954   2.281   3.272  15.395  0.4834 -0.1007 -0.1854
 7821TIP3    H244955   2.199   3.170  15.318  0.1980 -0.6574  0.8435
 7822TIP3   OH244956   2.299   0.546   5.300 -0.2517 -0.4113 -0.3207
 7822TIP3    H144957   2.302   0.598   5.220  0.2006 -0.4425 -0.3282
 7822TIP3    H244958   2.323   0.607   5.369 -0.1490 -0.5060 -0.2738
 7823TIP3   OH244959   6.043   1.887  15.001  0.2165  0.9480  0.5376
 7823TIP3    H144960   6.041   1.935  15.083  0.0546  1.4377  0.2499
 7823TIP3    H244961   6.020   1.952  14.934 -2.6578 -0.1012  0.4212
 7824TIP3   OH244962   3.888   4.884  13.807 -0.0762  0.0933  0.0277
 7824TIP3    H144963   3.822   4.904  13.873 -0.4246 -1.4837  0.1846
 7824TIP3    H244964   3.838   4.852  13.732  0.5375 -2.5794  0.6947
 7825TIP3   OH244965   3.112   6.082   2.364  0.3754  0.1741  0.6125
 7825TIP3    H144966   3.061   6.023   2.420 -0.1872  0.2292  0.1676
 7825TIP3    H244967   3.200   6.043   2.362  0.4195  0.2277  1.6022
 7826TIP3   OH244968   6.173   5.032  12.896  0.3313 -0.5611 -0.3663
 7826TIP3    H144969   6.083   5.062  12.911  0.4174 -1.0654  1.1335
 7826TIP3    H244970   6.163   4.953  12.843 -0.1107 -0.6071 -0.2177
 7827TIP3   OH244971   2.767   2.695   0.856 -0.0906 -0.6617  0.5900
 7827TIP3    H144972   2.676   2.701   0.883 -0.9632 -2.5839 -1.8132
 7827TIP3    H244973   2.788   2.781   0.821 -1.5808 -0.7977 -0.6612
 7828TIP3   OH244974   5.951   1.131   6.318 -0.1130 -0.0546  0.1666
 7828TIP3    H144975   5.941   1.184   6.397 -0.0562 -1.4834  1.1592
 7828TIP3    H244976   5.895   1.173   6.253  0.7480  1.8249  0.6059
 7829TIP3   OH244977   5.952   4.626  15.670 -0.6379 -0.3939  0.3422
 7829TIP3    H144978   6.018   4.651  15.606  2.6098  0.2861  3.8447
 7829TIP3    H244979   5.887   4.697  15.667  1.3004  1.4105  0.3176
 7830TIP3   OH244980   3.434   2.824   0.283 -0.4960  0.2069 -0.2127
 7830TIP3    H144981   3.514   2.859   0.244 -0.3468 -2.0068 -1.9926
 7830TIP3    H244982   3.371   2.896   0.279  1.3361  1.9509  1.1413
 7831TIP3   OH244983   4.968   5.187   0.874 -0.0566 -0.3743  0.5336
 7831TIP3    H144984   5.024   5.195   0.797 -0.2600  1.0570  0.5204
 7831TIP3    H244985   4.880   5.206   0.841 -0.3492 -1.1901  0.8405
 7832TIP3   OH244986   0.430   0.060  11.143 -0.5309 -0.2156 -0.2129
 7832TIP3    H144987   0.338   0.074  11.125 -0.4434  0.0384 -0.4587
 7832TIP3    H244988   0.436  -0.033  11.165 -0.8999 -0.1497  0.1630
 7833TIP3   OH244989   1.032   1.218   0.913  0.7511  0.5000 -0.5917
 7833TIP3    H144990   1.051   1.131   0.877  1.6945  1.0142 -1.3705
 7833TIP3    H244991   1.111   1.241   0.962  1.2697  1.7133 -1.9686
 7834TIP3   OH244992   5.192   4.540  12.632 -0.3905 -0.6088 -0.0452
 7834TIP3    H144993   5.152   4.551  12.546 -0.5309 -0.2012  0.0714
 7834TIP3    H244994   5.270   4.594  12.630 -0.5445 -0.3714  0.1793
 7835TIP3   OH244995   1.484   2.876   2.223 -0.2080 -0.0548  0.8737
 7835TIP3    H144996   1.486   2.906   2.132  1.2047  1.9463  1.4950
 7835TIP3    H244997   1.408   2.920   2.261 -0.7295 -0.7983  0.6989
 7836TIP3   OH244998   0.271   3.192   5.671  0.5821 -0.7626 -0.5031
 7836TIP3    H144999   0.298   3.210   5.761 -1.4649 -2.6988  0.5572
 7836TIP3    H245000   0.211   3.118   5.679 -1.3185  0.4061 -3.2421
 7837TIP3   OH245001   4.002   1.490   0.574 -0.0906  0.0267  0.4673
 7837TIP3    H145002   3.999   1.574   0.621 -2.0749 -0.1566  0.7356
 7837TIP3    H245003   3.936   1.436   0.619 -1.3480 -0.4759 -1.9059
 7838TIP3   OH245004   5.329   0.642  12.355  0.6008 -0.3904 -0.6954
 7838TIP3    H145005   5.367   0.592  12.428 -1.2982  0.1148  0.7015
 7838TIP3    H245006   5.346   0.734  12.378 -1.9740 -0.1274  0.3018
 7839TIP3   OH245007   5.793   5.528   1.938  0.8125 -0.2426  0.1393
 7839TIP3    H145008   5.804   5.497   1.848  0.8409  0.2877 -0.0432
 7839TIP3    H245009   5.823   5.619   1.936 -1.2710  0.4793  0.1701
 7840TIP3   OH245010   4.421   0.872  14.112 -0.4893 -0.1151 -0.6111
 7840TIP3    H145011   4.372   0.926  14.174 -1.3294 -0.4887 -0.9430
 7840TIP3    H245012   4.371   0.878  14.031 -1.0355 -2.0265 -0.4415
 7841TIP3   OH245013   6.636   4.385  15.996 -0.2127 -0.2753  0.6500
 7841TIP3    H145014   6.547   4.411  16.018  0.1777  1.5700  0.1668
 7841TIP3    H245015   6.681   4.380  16.080 -0.3391  0.5053  0.7689
 7842TIP3   OH245016   2.395   6.152   0.946 -0.3480 -0.0407 -0.1788
 7842TIP3    H145017   2.402   6.119   0.856 -0.2393 -0.2801 -0.0838
 7842TIP3    H245018   2.416   6.245   0.939 -1.2944  0.1501 -0.5504
 7843TIP3   OH245019   5.130   1.535   1.715 -0.5807  0.4203 -0.2573
 7843TIP3    H145020   5.092   1.542   1.627 -2.7535  2.0992  0.7587
 7843TIP3    H245021   5.088   1.458   1.753 -1.4693  1.0817  0.1308
 7844TIP3   OH245022   3.703   6.526  13.724 -0.2607 -0.0146 -0.8027
 7844TIP3    H145023   3.790   6.489  13.738 -0.6403 -0.1716  1.3877
 7844TIP3    H245024   3.718   6.608  13.677  1.1542  0.3868  0.3086
 7845TIP3   OH245025   1.819   2.487  12.039  0.1661  0.5455 -0.3533
 7845TIP3    H145026   1.905   2.449  12.026  0.0310 -0.2527  0.9602
 7845TIP3    H245027   1.820   2.568  11.988  1.2184 -0.1156 -1.3949
 7846TIP3   OH245028   4.605   3.874  17.269  0.6445  0.4564  0.3051
 7846TIP3    H145029   4.685   3.824  17.288  1.9112  1.7704 -1.3606
 7846TIP3    H245030   4.623   3.961  17.304  0.2596  0.9844 -0.8038
 7847TIP3   OH245031   4.168   0.519  15.921  0.2735  0.0833 -0.1640
 7847TIP3    H145032   4.102   0.460  15.957 -0.0680  1.5619  1.7115
 7847TIP3    H245033   4.243   0.510  15.980 -0.0423  2.0155  0.5649
 7848TIP3   OH245034   3.138   3.980  16.242 -0.2399  0.5955  0.1202
 7848TIP3    H145035   3.151   4.072  16.263 -1.2138  0.2762  2.3787
 7848TIP3    H245036   3.066   3.953  16.300  1.2291 -2.0109  0.8271
 7849TIP3   OH245037   6.507   4.775  15.106  0.0487  0.0633 -0.4556
 7849TIP3    H145038   6.566   4.806  15.174  0.2136  0.2141 -0.6635
 7849TIP3    H245039   6.449   4.849  15.089  0.6669  0.3885 -1.2016
 7850TIP3   OH245040   1.653   4.418  11.685 -0.4998 -0.3225 -0.1739
 7850TIP3    H145041   1.581   4.380  11.635  0.1184 -1.2549 -0.3827
 7850TIP3    H245042   1.731   4.374  11.651  0.0552 -0.0541  0.7354
 7851TIP3   OH245043   4.625   4.197   5.784  0.5676  0.3224  0.0688
 7851TIP3    H145044   4.685   4.145   5.837 -0.0583  0.6927  1.1587
 7851TIP3    H245045   4.570   4.243   5.848 -1.1586 -0.3327 -0.9057
 7852TIP3   OH245046   1.247   3.214   2.549 -0.0764 -0.2214 -0.1611
 7852TIP3    H145047   1.186   3.235   2.478  0.3583 -0.2391 -0.5401
 7852TIP3    H245048   1.289   3.298   2.570 -2.2078  0.3706  1.9841
 7853TIP3   OH245049   2.928   0.922   1.226  0.4563 -0.6682 -0.2952
 7853TIP3    H145050   2.896   0.975   1.299 -0.0675  0.2129 -1.1343
 7853TIP3    H245051   2.984   0.982   1.176  1.2131 -1.4048 -0.3484
 7854TIP3   OH245052   3.197   5.404   6.125 -0.6701 -0.3806 -0.2139
 7854TIP3    H145053   3.165   5.316   6.106 -1.4943  0.0388 -0.8136
 7854TIP3    H245054   3.190   5.413   6.220  1.8530 -1.8915  0.1529
 7855TIP3   OH245055   4.174   1.984  17.244  0.1273 -0.1708  0.0660
 7855TIP3    H145056   4.186   1.906  17.189 -0.0567 -0.3669  0.3000
 7855TIP3    H245057   4.085   1.973  17.280 -1.1902  1.7511 -2.4492
 7856TIP3   OH245058   2.183   3.537  10.900  0.2848 -0.2067  0.8616
 7856TIP3    H145059   2.174   3.467  10.835 -1.4685 -1.2171  2.1776
 7856TIP3    H245060   2.196   3.616  10.848 -4.0216 -0.5168 -0.8833
 7857TIP3   OH245061   2.060   0.249   0.271  0.1643  0.1533 -0.5841
 7857TIP3    H145062   1.999   0.308   0.226  0.2910 -1.8133 -3.5321
 7857TIP3    H245063   2.011   0.218   0.347 -1.4881  0.7623 -1.3572
 7858TIP3   OH245064   1.599   3.305  13.095 -0.6068 -0.4622  0.4658
 7858TIP3    H145065   1.596   3.268  13.183 -2.1331 -0.3469  0.4768
 7858TIP3    H245066   1.511   3.338  13.080 -0.4229 -0.6721 -1.1977
 7859TIP3   OH245067   2.634   6.786   5.428 -0.3431  0.4771  0.5484
 7859TIP3    H145068   2.715   6.836   5.442 -0.1827 -0.3408  2.7644
 7859TIP3    H245069   2.619   6.792   5.334  2.0551  1.0264  0.1477
 7860TIP3   OH245070   4.179   4.384   1.007  0.2239  0.4211  0.4031
 7860TIP3    H145071   4.164   4.306   0.953  1.7742  0.2371  0.1853
 7860TIP3    H245072   4.234   4.440   0.952  1.9222  0.1880  1.8218
 7861TIP3   OH245073   2.628   2.927  15.642 -0.3012  0.1770  0.1110
 7861TIP3    H145074   2.547   2.974  15.624 -0.6014 -0.2868  0.2173
 7861TIP3    H245075   2.697   2.994  15.640 -0.3391  0.1732 -2.5125
 7862TIP3   OH245076   0.685   5.213  15.116  0.4227 -0.6375  0.6349
 7862TIP3    H145077   0.744   5.231  15.189  1.8409 -0.4692 -0.5233
 7862TIP3    H245078   0.614   5.162  15.155  0.9798 -0.2603  2.1938
 7863TIP3   OH245079   4.945   4.580  16.239  0.3125 -0.7587  0.6151
 7863TIP3    H145080   4.926   4.637  16.165  0.3340 -0.5330  0.7798
 7863TIP3    H245081   5.028   4.613  16.273 -0.0311 -0.4360  1.1477
 7864TIP3   OH245082   1.128   0.180  11.285 -0.1787 -0.3676 -0.7400
 7864TIP3    H145083   1.037   0.156  11.268  0.2160 -1.6434 -1.0982
 7864TIP3    H245084   1.122   0.245  11.355 -1.2914 -1.4313  0.1904
 7865TIP3   OH245085   6.154   2.166   8.153 -0.5927 -0.9597  0.5331
 7865TIP3    H145086   6.240   2.132   8.175  0.4641  0.5167 -1.2032
 7865TIP3    H245087   6.157   2.181   8.058 -1.7925  1.6769  0.8602
 7866TIP3   OH245088   1.180   0.270  12.811 -0.0887 -0.2046 -0.3402
 7866TIP3    H145089   1.237   0.333  12.765  0.3136 -0.9624 -0.8919
 7866TIP3    H245090   1.117   0.243  12.744 -0.4706 -0.1248 -0.0083
 7867TIP3   OH245091   5.164   2.535   1.384 -0.2497 -0.3789 -0.1047
 7867TIP3    H145092   5.224   2.583   1.441 -0.6092  0.1454 -0.1657
 7867TIP3    H245093   5.198   2.550   1.295 -0.2296 -0.4279 -0.1056
 7868TIP3   OH245094   5.973   0.506  13.859 -0.2012 -0.2330  0.3930
 7868TIP3    H145095   6.001   0.418  13.835 -0.7478 -0.2316 -0.2655
 7868TIP3    H245096   5.914   0.532  13.788  1.2997  1.3365 -0.2972
 7869TIP3   OH245097   1.438   0.156  16.527 -0.7718 -0.2300 -0.2544
 7869TIP3    H145098   1.449   0.100  16.604 -1.1595  0.0341 -0.0049
 7869TIP3    H245099   1.438   0.245  16.562 -1.0584 -0.1153 -0.5426
 7870TIP3   OH245100   2.655   6.141   6.958 -0.1496  0.4503  0.1419
 7870TIP3    H145101   2.623   6.051   6.959  1.7877 -0.2659  1.0702
 7870TIP3    H245102   2.590   6.190   7.008 -0.8101 -0.5900  0.3171
 7871TIP3   OH245103   4.788   4.533  14.900  0.4390  0.3989 -0.0210
 7871TIP3    H145104   4.731   4.473  14.852 -0.0288  0.7389  0.1052
 7871TIP3    H245105   4.758   4.527  14.991  0.6738  0.5048  0.0650
 7872TIP3   OH245106   4.634   4.907   5.339 -0.4248  0.1180  0.0173
 7872TIP3    H145107   4.614   4.904   5.246  0.9899  1.2803 -0.3335
 7872TIP3    H245108   4.729   4.894   5.344 -0.3129  1.2476  1.1992
 7873TIP3   OH245109   0.802   4.061   5.437  0.0558 -0.3674 -0.1145
 7873TIP3    H145110   0.823   4.121   5.508  0.8749  0.7754 -1.2971
 7873TIP3    H245111   0.709   4.040   5.449  0.3697 -0.7436  1.6886
 7874TIP3   OH245112   0.803   5.963   1.868 -0.0167  0.2843 -0.0171
 7874TIP3    H145113   0.843   5.908   1.801 -0.6050  1.2106 -1.1405
 7874TIP3    H245114   0.814   5.913   1.950  1.0984 -0.6449 -0.7182
 7875TIP3   OH245115   6.062   0.285   3.990 -0.1039  0.6245 -0.0785
 7875TIP3    H145116   5.970   0.261   3.982 -0.1550  0.5797  0.6007
 7875TIP3    H245117   6.061   0.362   4.047  0.0413  2.3558 -2.3325
 7876TIP3   OH245118   3.660   3.907  16.092 -0.5774 -0.3424  0.3089
 7876TIP3    H145119   3.660   3.816  16.123 -0.4034 -0.3919  0.1653
 7876TIP3    H245120   3.574   3.941  16.116 -0.3076 -0.2645  1.1817
 7877TIP3   OH245121   6.448   5.874  11.909 -0.6727 -0.3483  0.3426
 7877TIP3    H145122   6.514   5.911  11.968 -0.1600 -2.4031  1.0901
 7877TIP3    H245123   6.467   5.915  11.824  0.6451  0.1844  0.8798
 7878TIP3   OH245124   3.562   1.161  12.331 -0.3219  0.8369  0.2578
 7878TIP3    H145125   3.612   1.242  12.322  0.3073  0.3116 -1.1726
 7878TIP3    H245126   3.602   1.116  12.406  0.5633  0.9816 -0.1246
 7879TIP3   OH245127   3.607   3.850  12.506  0.3623 -0.6419 -0.4311
 7879TIP3    H145128   3.547   3.907  12.459  0.4001 -0.4449 -0.2448
 7879TIP3    H245129   3.555   3.774  12.530  0.1749 -0.4581 -0.2417
 7880TIP3   OH245130   2.547   0.742   3.012 -0.2365 -0.4206  0.4587
 7880TIP3    H145131   2.606   0.696   2.952  0.4979  0.5064  0.4742
 7880TIP3    H245132   2.589   0.734   3.098  0.7141  1.6368  0.2148
 7881TIP3   OH245133   2.295   2.632   4.392 -0.4241  0.3183  0.0320
 7881TIP3    H145134   2.288   2.657   4.300 -0.4962 -0.4819 -0.1849
 7881TIP3    H245135   2.384   2.656   4.417 -0.8900  1.9543  0.1867
 7882TIP3   OH245136   4.166   3.205  13.802  0.4082 -0.2413  0.4377
 7882TIP3    H145137   4.148   3.253  13.721  1.6556 -2.1104 -0.9813
 7882TIP3    H245138   4.149   3.269  13.871 -2.6047  0.8270 -1.1792
 7883TIP3   OH245139   3.507   3.165  15.510  0.5020  0.3209  0.1764
 7883TIP3    H145140   3.541   3.128  15.591  0.8617 -0.1592 -0.1870
 7883TIP3    H245141   3.575   3.226  15.481 -1.1516  3.0890  2.0276
 7884TIP3   OH245142   4.921   2.397  16.061  0.1921 -0.2076 -0.5159
 7884TIP3    H145143   4.902   2.369  15.971  0.5627 -0.2682 -0.5780
 7884TIP3    H245144   4.914   2.492  16.058 -0.1000 -0.2291 -0.5381
 7885TIP3   OH245145   1.160   2.678  15.334  0.2495 -0.4993  0.0974
 7885TIP3    H145146   1.127   2.589  15.319 -1.1082 -0.3578  2.1154
 7885TIP3    H245147   1.107   2.712  15.406  0.7819  1.9499 -0.6129
 7886TIP3   OH245148   0.075   1.234  15.069  0.3696  0.8059 -0.5305
 7886TIP3    H145149   0.100   1.326  15.053 -3.8594  1.9547 -1.1113
 7886TIP3    H245150   0.008   1.216  15.003  0.3033 -2.3540  0.3441
 7887TIP3   OH245151   5.004   0.200  14.187  0.1606 -0.2909 -0.1193
 7887TIP3    H145152   4.992   0.235  14.098 -0.2783 -0.5091 -0.1473
 7887TIP3    H245153   4.968   0.111  14.182 -0.6162 -0.0173  0.4930
 7888TIP3   OH245154   3.256   2.085   6.087 -0.0612 -0.2787 -0.4946
 7888TIP3    H145155   3.324   2.034   6.042  0.7071  1.0552 -0.8592
 7888TIP3    H245156   3.261   2.172   6.048  0.9339  1.0481  2.4622
 7889TIP3   OH245157   1.649   1.902   2.965 -0.7596  0.4988  0.4497
 7889TIP3    H145158   1.715   1.865   2.907 -3.3023 -1.3304 -1.4235
 7889TIP3    H245159   1.673   1.995   2.973 -0.6737  0.9880 -4.1273
 7890TIP3   OH245160   5.116   4.939  12.996 -0.1555 -0.3101  0.0038
 7890TIP3    H145161   5.140   4.944  12.903 -0.0536 -0.1479  0.0397
 7890TIP3    H245162   5.200   4.933  13.042 -0.0589  2.5227  0.2813
 7891TIP3   OH245163   2.481   2.225   4.786 -0.0247 -0.0262  0.0785
 7891TIP3    H145164   2.470   2.224   4.881 -0.8604  0.4119 -0.0092
 7891TIP3    H245165   2.569   2.190   4.772  1.1177  2.3143  1.1446
 7892TIP3   OH245166   5.058   3.904  13.890 -0.0389  0.3401  0.2082
 7892TIP3    H145167   5.082   3.995  13.876 -0.9410  0.6434  0.5989
 7892TIP3    H245168   5.024   3.901  13.980  0.2432 -0.4324  0.3000
 7893TIP3   OH245169   3.251   5.027  12.843 -0.5441  0.5509  0.1731
 7893TIP3    H145170   3.327   5.016  12.787 -1.0979 -0.4748 -0.4032
 7893TIP3    H245171   3.284   5.071  12.921  0.8073 -0.6259  0.2863
 7894TIP3   OH245172   0.824   4.868   1.004  0.0837 -0.3887 -0.7501
 7894TIP3    H145173   0.858   4.826   0.925 -1.0818 -1.3810 -0.7315
 7894TIP3    H245174   0.764   4.935   0.972 -0.0741 -0.5161 -0.7233
 7895TIP3   OH245175   3.181   0.477  15.791  0.1589  0.2949  0.5240
 7895TIP3    H145176   3.204   0.394  15.833 -0.1691 -0.5592 -0.9277
 7895TIP3    H245177   3.183   0.541  15.861 -1.9609 -1.3605  2.1658
 7896TIP3   OH245178   0.915   3.790   4.283 -0.3486  0.0801 -0.3556
 7896TIP3    H145179   0.886   3.728   4.350  0.7180 -0.9290 -0.8017
 7896TIP3    H245180   0.837   3.839   4.260 -1.0591 -0.6168  0.5244
 7897TIP3   OH245181   6.596   3.721  13.217 -0.0703  0.3273 -0.0514
 7897TIP3    H145182   6.615   3.631  13.245  3.7863  1.4315  1.0728
 7897TIP3    H245183   6.636   3.727  13.130  0.7289  1.3385  0.3921
 7898TIP3   OH245184   0.507   3.901   5.631  0.0239 -0.6050  0.3632
 7898TIP3    H145185   0.518   3.975   5.572  0.9185 -0.1845  1.0434
 7898TIP3    H245186   0.422   3.916   5.673  0.6559  0.5823  1.2416
 7899TIP3   OH245187   3.362   2.190   3.788 -0.1373 -0.6632  0.2267
 7899TIP3    H145188   3.336   2.282   3.781 -0.9647 -0.8347  1.0416
 7899TIP3    H245189   3.347   2.167   3.880  1.2176 -1.2707  0.3026
 7900TIP3   OH245190   2.437   2.363  12.213 -0.5250 -0.0479  0.1362
 7900TIP3    H145191   2.470   2.308  12.143  0.5372 -1.3740  1.6460
 7900TIP3    H245192   2.467   2.451  12.191  2.9606 -1.0218  0.7841
 7901TIP3   OH245193   2.941   1.110  17.171  0.4385  0.1702 -0.3680
 7901TIP3    H145194   2.862   1.121  17.118 -0.0840 -1.8356 -0.0748
 7901TIP3    H245195   2.974   1.023  17.147  1.9017  0.5065  0.3673
 7902TIP3   OH245196   0.084   6.461  16.432 -0.4104  0.1154 -0.0045
 7902TIP3    H145197   0.161   6.477  16.377 -1.1552  0.8187 -0.8566
 7902TIP3    H245198   0.094   6.524  16.504  0.8467 -1.1811  0.9779
 7903TIP3   OH245199   1.296   3.189   0.739 -0.3645 -0.2554  0.3888
 7903TIP3    H145200   1.230   3.198   0.671 -0.6642  2.2198  0.9873
 7903TIP3    H245201   1.380   3.197   0.693 -0.4274 -3.0618 -0.3165
 7904TIP3   OH245202   2.273   5.618  12.010 -0.0164  0.6130  0.4091
 7904TIP3    H145203   2.210   5.546  12.018  0.5177  0.3204  2.1229
 7904TIP3    H245204   2.233   5.691  12.057  0.0453  1.0324 -0.1856
 7905TIP3   OH245205   5.583   4.504  14.037  0.0946 -0.3666  0.1887
 7905TIP3    H145206   5.611   4.555  14.113 -2.6589  0.6007  0.5983
 7905TIP3    H245207   5.532   4.432  14.073 -2.7200  1.0644 -0.7655
 7906TIP3   OH245208   4.923   2.600   1.523  0.2906  0.0578 -0.3007
 7906TIP3    H145209   5.010   2.591   1.484 -1.1949 -0.8497 -3.6685
 7906TIP3    H245210   4.889   2.510   1.525 -0.6742  0.4315  0.7624
 7907TIP3   OH245211   6.398   3.164   3.108  0.1999  0.2026  0.4790
 7907TIP3    H145212   6.443   3.184   3.190 -0.7736 -0.8813  1.2872
 7907TIP3    H245213   6.464   3.119   3.055  0.4057 -0.3756  1.2201
 7908TIP3   OH245214   6.062   4.224   2.298 -0.5615  0.5063 -0.7243
 7908TIP3    H145215   5.992   4.263   2.351 -0.9958  0.9065 -1.5833
 7908TIP3    H245216   6.018   4.151   2.253 -0.6039  1.1799 -1.7958
 7909TIP3   OH245217   1.636   1.299   3.293  0.6071 -0.4522  0.0928
 7909TIP3    H145218   1.642   1.215   3.339  0.0029 -1.4077 -1.5142
 7909TIP3    H245219   1.650   1.365   3.361  0.8373 -1.8456  1.4295
 7910TIP3   OH245220   4.972   6.486   6.056  0.1108 -0.0927  0.2801
 7910TIP3    H145221   4.937   6.402   6.028  0.3543 -0.0984 -0.0020
 7910TIP3    H245222   4.902   6.523   6.111 -1.3672  0.9818 -2.2556
 7911TIP3   OH245223   1.841   2.126   4.738 -0.4037  0.2145  0.3699
 7911TIP3    H145224   1.925   2.142   4.782  0.0769 -2.6420  0.6030
 7911TIP3    H245225   1.775   2.147   4.804  0.2199 -0.2848  1.1674
 7912TIP3   OH245226   5.349   5.960  15.498 -0.0229 -0.3170  0.3588
 7912TIP3    H145227   5.409   5.937  15.427 -0.5722 -1.8399  0.3649
 7912TIP3    H245228   5.306   5.877  15.520 -1.3204  0.5466  1.1011
 7913TIP3   OH245229   0.172   6.765   5.260 -0.0267  0.1091 -0.2369
 7913TIP3    H145230   0.175   6.860   5.252 -0.8670  0.3066  1.5360
 7913TIP3    H245231   0.263   6.740   5.280 -0.0678  0.6974  0.7361
 7914TIP3   OH245232   1.669   5.225  14.439  0.2425 -0.1397 -0.5345
 7914TIP3    H145233   1.599   5.189  14.384 -1.2876  0.2170  1.1432
 7914TIP3    H245234   1.635   5.221  14.528  2.6847 -0.7044  0.4244
 7915TIP3   OH245235   6.668   6.694  11.210  0.6386 -0.0325 -0.0043
 7915TIP3    H145236   6.617   6.615  11.228  0.0037  0.5382  0.7703
 7915TIP3    H245237   6.757   6.674  11.240  0.6293 -0.6786 -0.4179
 7916TIP3   OH245238   6.569   0.118   3.448 -0.0043 -0.1302  0.3025
 7916TIP3    H145239   6.568   0.214   3.449  2.2215 -0.0405 -1.2565
 7916TIP3    H245240   6.508   0.095   3.377 -0.1185  0.1569  0.3042
 7917TIP3   OH245241   4.660   1.144  14.543 -0.1414 -0.0807  0.3767
 7917TIP3    H145242   4.716   1.151  14.466 -0.5134  1.0832  0.2023
 7917TIP3    H245243   4.694   1.210  14.603  0.1665 -1.0051  1.2297
 7918TIP3   OH245244   5.184   0.373  10.422 -0.2719  0.0224  0.7411
 7918TIP3    H145245   5.148   0.348  10.507 -1.9856 -1.6908 -0.4510
 7918TIP3    H245246   5.150   0.461  10.407  0.3959  0.5044  2.0137
 7919TIP3   OH245247   0.763   5.673  11.580 -0.6714 -0.1042 -0.1260
 7919TIP3    H145248   0.686   5.720  11.546 -0.2763  0.2774 -0.4994
 7919TIP3    H245249   0.738   5.581  11.576 -1.2081  0.0320 -0.0083
 7920TIP3   OH245250   6.558   3.040  16.437 -0.3537  0.4756 -0.6550
 7920TIP3    H145251   6.649   3.009  16.429 -0.3992 -0.0963  0.8602
 7920TIP3    H245252   6.505   2.962  16.420 -0.5460  0.5462 -0.3639
 7921TIP3   OH245253   0.135   1.905   6.562 -0.4074  0.7393  0.0214
 7921TIP3    H145254   0.198   1.951   6.617  0.1440  2.3912 -1.9078
 7921TIP3    H245255   0.080   1.975   6.526  0.1139 -0.0998 -2.5665
 7922TIP3   OH245256   4.169   2.151  13.375  0.0743 -1.0734 -0.9386
 7922TIP3    H145257   4.262   2.171  13.367  0.2494 -1.3761  0.2991
 7922TIP3    H245258   4.165   2.057  13.394 -0.3161 -0.5870  1.6689
 7923TIP3   OH245259   0.667   3.444  12.325 -0.2398  0.1016 -0.2520
 7923TIP3    H145260   0.750   3.397  12.333  1.0104  2.0196 -1.5907
 7923TIP3    H245261   0.639   3.428  12.235 -0.8429  0.2458 -0.0949
 7924TIP3   OH245262   5.051   1.686   5.827 -0.1604 -0.1848  0.0844
 7924TIP3    H145263   5.104   1.764   5.840 -0.3283  0.0452 -0.6248
 7924TIP3    H245264   5.055   1.669   5.733 -1.7511  0.1269 -0.0539
 7925TIP3   OH245265   2.539   1.098  12.924  0.2953  0.1557  0.2631
 7925TIP3    H145266   2.544   1.049  13.007  0.2942  0.2102  0.2948
 7925TIP3    H245267   2.609   1.061  12.870  0.4150  0.2458  0.3556
 7926TIP3   OH245268   1.987   0.028  13.259  0.3091 -0.8470 -0.2651
 7926TIP3    H145269   1.912  -0.005  13.210  0.6026 -0.7811 -0.7623
 7926TIP3    H245270   1.959   0.113  13.293  0.1963 -0.7688 -0.5510
 7927TIP3   OH245271   4.527   5.640  16.099  0.2231 -0.2663  0.0607
 7927TIP3    H145272   4.619   5.626  16.075  0.4271 -1.7174  1.6360
 7927TIP3    H245273   4.512   5.581  16.172 -1.8717  0.2576  0.0750
 7928TIP3   OH245274   1.040   6.491  12.827 -0.2307 -0.0405  0.2318
 7928TIP3    H145275   1.090   6.572  12.813 -1.6529  0.5511 -1.5785
 7928TIP3    H245276   0.997   6.505  12.911 -1.9718  1.9142 -0.9471
 7929TIP3   OH245277   6.008   0.639   0.563 -0.3277 -0.0876  0.3234
 7929TIP3    H145278   6.006   0.543   0.569  0.1215 -0.1057  0.2134
 7929TIP3    H245279   6.101   0.661   0.568 -0.3788  0.2968 -0.3531
 7930TIP3   OH245280   2.860   1.047  11.257 -0.0707  0.1791  0.0777
 7930TIP3    H145281   2.841   1.112  11.190 -2.9199  0.7347  1.3679
 7930TIP3    H245282   2.879   0.967  11.208 -2.1484  0.5600 -1.4372
 7931TIP3   OH245283   2.378   5.657  10.481 -0.3472 -0.0537 -0.7526
 7931TIP3    H145284   2.423   5.588  10.530 -2.2096 -0.2070  0.8011
 7931TIP3    H245285   2.427   5.737  10.500  2.7617 -1.1118 -3.7710
 7932TIP3   OH245286   0.955   0.808  12.850  0.2681  0.6326 -0.0553
 7932TIP3    H145287   0.877   0.802  12.794  1.0602 -1.2472 -1.0071
 7932TIP3    H245288   1.009   0.875  12.809 -0.2162  0.9484 -0.1850
 7933TIP3   OH245289   0.359   4.363   3.104 -0.8303 -0.3151 -0.0248
 7933TIP3    H145290   0.370   4.406   3.189  1.4282 -1.0859  0.1153
 7933TIP3    H245291   0.365   4.269   3.125  1.0638 -0.4819 -1.1536
 7934TIP3   OH245292   6.590   5.637  16.177  0.0559 -0.3899  0.0936
 7934TIP3    H145293   6.641   5.556  16.169 -1.2681 -1.2665  0.2976
 7934TIP3    H245294   6.655   5.707  16.176  1.2040 -1.4477 -0.3228
 7935TIP3   OH245295   1.480   4.729   0.894  0.0516  0.6405  0.4040
 7935TIP3    H145296   1.459   4.807   0.843 -0.0102  0.1357 -0.3543
 7935TIP3    H245297   1.569   4.705   0.866 -0.0462  0.2687  0.4006
 7936TIP3   OH245298   4.723   6.140   2.270 -0.1889  0.1194  0.2796
 7936TIP3    H145299   4.731   6.107   2.181 -0.4324  1.7248 -0.3623
 7936TIP3    H245300   4.813   6.144   2.302 -0.1598 -1.1720  0.3849
 7937TIP3   OH245301   4.074   4.826   5.624  0.5644 -0.2350 -0.0662
 7937TIP3    H145302   4.141   4.760   5.609 -0.8889 -1.8543  0.4292
 7937TIP3    H245303   3.996   4.793   5.580  0.3823  2.2173 -1.6983
 7938TIP3   OH245304   0.806   3.160   0.434  0.1149 -0.0875 -0.3336
 7938TIP3    H145305   0.801   3.107   0.354 -1.3297 -0.8019  0.2062
 7938TIP3    H245306   0.778   3.101   0.504 -0.7171  1.1395  0.3986
 7939TIP3   OH245307   4.675   2.547  10.485 -0.1769 -0.6731 -0.1911
 7939TIP3    H145308   4.614   2.596  10.540 -0.8864 -1.1438 -0.5511
 7939TIP3    H245309   4.641   2.557  10.396  2.0742  1.7762 -0.8548
 7940TIP3   OH245310   5.480   4.070   3.960  0.4183  0.0195 -0.2600
 7940TIP3    H145311   5.541   4.004   3.928 -0.0597  0.2308 -1.6290
 7940TIP3    H245312   5.512   4.153   3.924 -0.4293  0.1879 -0.6450
 7941TIP3   OH245313   5.272   6.541   4.193  0.2383 -0.2001 -1.4881
 7941TIP3    H145314   5.189   6.573   4.230  2.1332  2.2879  0.7740
 7941TIP3    H245315   5.321   6.620   4.171  3.0512 -1.5646 -0.4170
 7942TIP3   OH245316   2.088   2.613  13.076  0.0504 -0.1437  0.0518
 7942TIP3    H145317   2.011   2.567  13.110 -1.4979  1.2943 -1.4131
 7942TIP3    H245318   2.155   2.545  13.068 -0.8726 -1.3149  1.8637
 7943TIP3   OH245319   3.883   2.619  13.273 -0.2893 -0.0063  0.5140
 7943TIP3    H145320   3.919   2.550  13.328  0.6960 -0.6766 -0.9397
 7943TIP3    H245321   3.944   2.692  13.282  1.1429 -0.9210 -1.4519
 7944TIP3   OH245322   2.668   0.843   1.258  0.8709  0.0213 -0.6694
 7944TIP3    H145323   2.760   0.842   1.233  0.4194  2.1762 -2.5739
 7944TIP3    H245324   2.640   0.933   1.244 -2.0690 -1.0619 -2.1295
 7945TIP3   OH245325   6.052   1.990  16.321  0.1692 -0.5225  0.1543
 7945TIP3    H145326   6.100   2.062  16.280 -1.3625  0.8686  0.7432
 7945TIP3    H245327   6.011   1.944  16.248  0.4483 -0.2891 -0.1495
 7946TIP3   OH245328   6.285   6.699  13.236 -0.1392  0.3570  0.3117
 7946TIP3    H145329   6.278   6.628  13.300  1.1856  0.5779  0.7131
 7946TIP3    H245330   6.359   6.675  13.181  0.1843  1.3141  0.3107
 7947TIP3   OH245331   5.944   5.365  12.995  0.4557  0.7600 -0.0802
 7947TIP3    H145332   5.957   5.270  12.999 -0.8011  0.4866 -1.8534
 7947TIP3    H245333   6.016   5.397  12.941  1.3926  0.9338  1.2631
 7948TIP3   OH245334   1.678   4.716   2.624 -0.5595  0.0961 -0.3349
 7948TIP3    H145335   1.766   4.694   2.654  0.7759  2.4883 -2.3120
 7948TIP3    H245336   1.661   4.655   2.552  0.0729  0.5456 -0.8750
 7949TIP3   OH245337   1.243   5.554   5.527 -0.5060 -0.0631 -0.0237
 7949TIP3    H145338   1.177   5.513   5.471 -1.5144  0.0471  1.0964
 7949TIP3    H245339   1.304   5.483   5.548 -1.8111 -0.8040  1.2574
 7950TIP3   OH245340   1.504   4.375  16.775  0.1976 -0.1321  0.3548
 7950TIP3    H145341   1.479   4.455  16.728 -0.6172 -1.0224 -0.7447
 7950TIP3    H245342   1.454   4.306  16.732  0.3720 -1.1377  1.7597
 7951TIP3   OH245343   4.548   0.042  11.856  0.2936 -0.1696  0.4769
 7951TIP3    H145344   4.611   0.112  11.876 -0.2871  0.5803 -0.2705
 7951TIP3    H245345   4.468   0.069  11.901 -0.5423  0.7107 -1.4613
 7952TIP3   OH245346   6.412   1.588   3.618 -0.0477 -0.1477 -0.1680
 7952TIP3    H145347   6.351   1.579   3.545 -1.4587 -1.0001  1.0759
 7952TIP3    H245348   6.403   1.506   3.667 -0.3502  1.0673  1.8588
 7953TIP3   OH245349   0.483   4.804   1.846  0.5780  0.2711 -0.7309
 7953TIP3    H145350   0.470   4.754   1.765  0.0479 -1.0575  0.1510
 7953TIP3    H245351   0.531   4.882   1.819  1.0164 -0.4993 -2.2145
 7954TIP3   OH245352   0.711   6.405  15.464  0.4235  0.2296 -0.0050
 7954TIP3    H145353   0.712   6.346  15.539 -0.6932 -0.0715 -0.2211
 7954TIP3    H245354   0.774   6.367  15.402  0.3560 -0.2396  0.2179
 7955TIP3   OH245355   4.429   0.658   4.974  0.7758  0.0975 -0.1763
 7955TIP3    H145356   4.473   0.735   5.008  0.8260 -0.4050  0.9082
 7955TIP3    H245357   4.356   0.643   5.034  0.8931 -0.8130 -0.2528
 7956TIP3   OH245358   5.820   0.596   3.880  0.6768 -0.4665 -0.5170
 7956TIP3    H145359   5.756   0.544   3.929 -0.6882  1.6988  0.0413
 7956TIP3    H245360   5.794   0.588   3.789 -0.2271  0.2101 -0.3136
 7957TIP3   OH245361   1.964   1.004   1.542  0.0977 -0.6545 -0.1649
 7957TIP3    H145362   1.920   1.088   1.554  1.0079 -0.4241  1.7161
 7957TIP3    H245363   1.904   0.953   1.488 -2.3266 -0.2248  2.0017
 7958TIP3   OH245364   2.531   1.500   4.167  0.3987 -0.5151  0.0388
 7958TIP3    H145365   2.531   1.416   4.213 -2.6876 -0.6309 -0.0661
 7958TIP3    H245366   2.451   1.498   4.115  0.8811  2.0436 -0.8484
 7959TIP3   OH245367   5.663   6.081   0.323 -0.1046  0.5689  0.1586
 7959TIP3    H145368   5.727   6.018   0.356 -2.1910 -0.7852  1.7744
 7959TIP3    H245369   5.650   6.055   0.232  1.9432  1.1520 -0.3268
 7960TIP3   OH245370   5.978   0.273   1.219  0.3111 -0.2611  0.0299
 7960TIP3    H145371   5.988   0.201   1.157  0.8468 -1.4507  1.4475
 7960TIP3    H245372   5.901   0.320   1.189  0.5551 -0.8203 -1.5229
 7961TIP3   OH245373   1.371   4.637   4.779 -0.1384  0.2488 -0.0051
 7961TIP3    H145374   1.334   4.554   4.750  0.8174 -0.4117  0.6557
 7961TIP3    H245375   1.450   4.648   4.727 -0.4997  0.9724 -0.4128
 7962TIP3   OH245376   3.473   0.204  15.512  0.6378  0.3202  0.4989
 7962TIP3    H145377   3.542   0.139  15.521  0.4639 -0.0727 -0.8157
 7962TIP3    H245378   3.478   0.232  15.420 -1.3256 -0.1752  0.2130
 7963TIP3   OH245379   1.892   5.380  10.617 -0.1648 -0.5707 -0.0691
 7963TIP3    H145380   1.906   5.433  10.539 -0.2361 -0.3627  0.0604
 7963TIP3    H245381   1.869   5.293  10.583  1.5073 -0.9315 -0.2765
 7964TIP3   OH245382   4.182   2.796   0.024  0.1086  0.1911  0.1772
 7964TIP3    H145383   4.188   2.780   0.118 -0.0145 -0.5829  0.0613
 7964TIP3    H245384   4.143   2.716  -0.012 -2.9306  1.7458 -0.1465
 7965TIP3   OH245385   1.381   6.666   1.009 -0.8282  0.1587  0.2021
 7965TIP3    H145386   1.372   6.704   1.096  1.5760  0.7558  0.2120
 7965TIP3    H245387   1.437   6.590   1.021 -1.0463 -0.1547 -0.7263
 7966TIP3   OH245388   0.427   0.874  16.945 -0.3868 -0.3219 -0.4967
 7966TIP3    H145389   0.477   0.945  16.905 -0.9062 -0.9047 -2.2427
 7966TIP3    H245390   0.490   0.802  16.952  0.1826  0.3299  1.4170
 7967TIP3   OH245391   4.383   4.726  12.316 -0.0513 -0.2720 -0.4174
 7967TIP3    H145392   4.468   4.741  12.358 -0.4197  2.4757 -0.5773
 7967TIP3    H245393   4.328   4.691  12.386  0.2644  1.1999  0.6018
 7968TIP3   OH245394   6.707   4.744  14.047  0.4286 -0.2037  0.2800
 7968TIP3    H145395   6.692   4.830  14.086  0.0808 -0.5021  0.8102
 7968TIP3    H245396   6.796   4.722  14.071  1.3884  1.0635 -1.8978
 7969TIP3   OH245397   5.311   3.736   4.066 -0.5059  0.0539  0.3871
 7969TIP3    H145398   5.231   3.752   4.017 -1.3472 -2.0886  1.0480
 7969TIP3    H245399   5.319   3.812   4.124 -0.0122  2.1464 -2.3120
 7970TIP3   OH245400   5.699   1.340  13.315 -0.1862  0.2047  0.0198
 7970TIP3    H145401   5.708   1.404  13.386 -2.6859 -0.4070  0.9259
 7970TIP3    H245402   5.663   1.262  13.357  0.5084 -0.9703 -1.5141
 7971TIP3   OH245403   3.060   5.329  11.786  0.7824  0.5628  0.2356
 7971TIP3    H145404   3.024   5.324  11.697 -0.4700  0.6147  0.7317
 7971TIP3    H245405   3.041   5.418  11.815 -1.0508 -0.2003  1.4779
 7972TIP3   OH245406   4.455   3.398  10.610  0.0433 -0.4260  0.7370
 7972TIP3    H145407   4.542   3.386  10.648 -0.2779  1.5516  2.1643
 7972TIP3    H245408   4.425   3.483  10.644 -1.9062 -0.4758 -0.7695
 7973TIP3   OH245409   3.824   3.881  12.331  0.6308  0.6746 -0.2174
 7973TIP3    H145410   3.760   3.861  12.399 -1.3891 -0.7168 -2.4674
 7973TIP3    H245411   3.905   3.897  12.379 -0.6730 -0.4974  2.4972
 7974TIP3   OH245412   1.268   1.198  12.419  0.2014  0.1862 -0.2096
 7974TIP3    H145413   1.287   1.238  12.335 -0.2512  0.6261 -0.1057
 7974TIP3    H245414   1.179   1.164  12.410  0.2563 -0.0133 -0.0033
 7975TIP3   OH245415   2.468   4.732   2.898 -0.3977  0.9390  0.3656
 7975TIP3    H145416   2.555   4.707   2.928 -0.9896 -0.0410  1.2962
 7975TIP3    H245417   2.481   4.815   2.853  1.2384  0.0891 -0.7694
 7976TIP3   OH245418   1.446   3.261  11.762 -0.1965 -0.4268 -0.0672
 7976TIP3    H145419   1.519   3.288  11.706 -0.3237  1.5503  0.6961
 7976TIP3    H245420   1.486   3.201  11.825  0.3414 -1.0433 -0.9742
 7977TIP3   OH245421   1.158   2.713   2.828  0.3317  0.6473  0.5280
 7977TIP3    H145422   1.064   2.722   2.841 -0.1753 -2.1267 -0.9226
 7977TIP3    H245423   1.183   2.638   2.882  1.7287  1.4014  0.9496
 7978TIP3   OH245424   2.495   3.814  15.272  0.1197 -0.0248 -0.1004
 7978TIP3    H145425   2.522   3.749  15.338  2.9398  2.6168  1.4701
 7978TIP3    H245426   2.407   3.840  15.300  1.1941  0.9232  2.6016
 7979TIP3   OH245427   2.485   3.714   1.338  0.1410  0.0161 -0.2121
 7979TIP3    H145428   2.467   3.799   1.298 -1.4140 -0.3738 -0.3860
 7979TIP3    H245429   2.511   3.658   1.264 -0.5223 -0.1119 -0.3480
 7980TIP3   OH245430   3.941   2.938  15.194 -0.1184 -0.0569 -0.6673
 7980TIP3    H145431   3.957   3.024  15.155  0.3001 -0.8172 -2.2201
 7980TIP3    H245432   3.959   2.876  15.123  0.3187 -1.4617  0.6397
 7981TIP3   OH245433   1.179   5.676  11.358  0.7480 -0.5089 -0.6835
 7981TIP3    H145434   1.180   5.630  11.442  1.3397 -1.9894 -1.4973
 7981TIP3    H245435   1.239   5.627  11.303  0.1896  0.3368 -2.0615
 7982TIP3   OH245436   2.587   0.916  13.124 -0.5650 -0.0031  0.5702
 7982TIP3    H145437   2.576   0.868  13.206  0.9048 -1.1080  0.1497
 7982TIP3    H245438   2.681   0.928  13.115 -0.6852 -0.0423 -1.0350
 7983TIP3   OH245439   6.744   6.025  16.830  0.7264 -0.2434 -0.0694
 7983TIP3    H145440   6.655   6.001  16.803  1.3476 -1.1311 -1.3956
 7983TIP3    H245441   6.736   6.115  16.861 -0.5362 -0.1210 -0.6950
 7984TIP3   OH245442   3.717   0.422  15.139 -0.1109 -0.5734 -0.0061
 7984TIP3    H145443   3.681   0.416  15.050  0.6664 -0.0541 -0.3622
 7984TIP3    H245444   3.716   0.516  15.158  1.4267 -0.5068 -0.1846
 7985TIP3   OH245445   6.323   3.630   2.551 -0.1314  0.3785 -0.4122
 7985TIP3    H145446   6.257   3.698   2.535 -1.3947 -0.8008 -0.3617
 7985TIP3    H245447   6.406   3.677   2.550 -0.8675  1.7335 -1.6548
 7986TIP3   OH245448   4.594   6.443  16.383  0.3686  0.2005 -0.6997
 7986TIP3    H145449   4.616   6.412  16.295  2.0670 -1.7055  0.3787
 7986TIP3    H245450   4.661   6.507  16.404  0.4820 -0.0052 -0.4333
 7987TIP3   OH245451   5.926   4.475  12.109 -0.2450 -0.3571 -0.1359
 7987TIP3    H145452   5.999   4.440  12.160  0.0596 -0.6852 -0.7997
 7987TIP3    H245453   5.957   4.560  12.078 -0.0103 -0.6391 -0.6945
 7988TIP3   OH245454   6.736   5.385  14.448  0.0143 -0.2301 -0.0214
 7988TIP3    H145455   6.806   5.406  14.385 -1.6462  1.5897 -1.3119
 7988TIP3    H245456   6.725   5.290  14.439  1.2836 -0.3203 -0.9076
 7989TIP3   OH245457   3.052   3.056  16.196  0.3671 -0.0787 -0.1087
 7989TIP3    H145458   3.076   3.032  16.286 -0.2503 -1.6866 -0.3407
 7989TIP3    H245459   2.974   3.003  16.178 -1.7927  3.0191 -0.2978
 7990TIP3   OH245460   3.527   5.531   4.360 -0.0578  0.6048  0.0633
 7990TIP3    H145461   3.556   5.461   4.418  1.3289  1.3798  0.3179
 7990TIP3    H245462   3.432   5.534   4.372  0.1906  0.6889  2.2177
 7991TIP3   OH245463   5.686   3.765   5.745 -0.1524  0.0534  0.0450
 7991TIP3    H145464   5.646   3.704   5.684  2.0852 -0.0151 -1.3705
 7991TIP3    H245465   5.712   3.840   5.691  2.0413 -0.1015  0.8563
 7992TIP3   OH245466   1.535   3.132   0.616 -0.6782 -0.0704 -0.1888
 7992TIP3    H145467   1.480   3.071   0.567 -1.3080  1.4196 -1.3794
 7992TIP3    H245468   1.599   3.163   0.552  0.5846 -0.5923  0.7885
 7993TIP3   OH245469   1.983   3.561   1.105 -0.1898 -0.0183  0.2771
 7993TIP3    H145470   2.041   3.487   1.090  0.8318  1.3001 -2.6582
 7993TIP3    H245471   2.041   3.634   1.125 -1.0993  0.3381  1.6838
 7994TIP3   OH245472   1.332   2.696   0.897 -0.0651 -0.5133  0.0115
 7994TIP3    H145473   1.411   2.669   0.945  0.0841 -0.7414 -0.3578
 7994TIP3    H245474   1.358   2.693   0.805 -0.6888 -1.1886 -0.1480
 7995TIP3   OH245475   4.286   0.845   3.375 -0.8450  0.1033 -0.0960
 7995TIP3    H145476   4.357   0.862   3.437  0.4929  0.7985 -1.7802
 7995TIP3    H245477   4.231   0.780   3.420  1.4939 -1.3689  0.7819
 7996TIP3   OH245478   0.184   2.230  10.814 -0.3959 -0.4004 -0.1115
 7996TIP3    H145479   0.221   2.315  10.794  0.7072 -0.9024 -0.2314
 7996TIP3    H245480   0.134   2.205  10.736  0.3209 -0.4271 -0.5590
 7997TIP3   OH245481   0.158   5.355  15.412 -0.6076  0.9403 -0.1115
 7997TIP3    H145482   0.092   5.420  15.434 -0.4485  1.0749 -0.0335
 7997TIP3    H245483   0.196   5.385  15.330  1.1979  2.2866  1.1629
 7998TIP3   OH245484   1.184   1.874   5.925  0.0824  0.1999 -0.0837
 7998TIP3    H145485   1.127   1.864   5.850 -0.5895 -0.0900  0.4639
 7998TIP3    H245486   1.145   1.820   5.993  1.1456 -0.2015  0.2197
 7999TIP3   OH245487   5.760   1.465  15.291 -0.4546  0.7281  0.2552
 7999TIP3    H145488   5.744   1.547  15.245  0.8018  2.1099  2.1721
 7999TIP3    H245489   5.802   1.409  15.227  1.4954  2.6914 -0.2500
 8000TIP3   OH245490   1.648   3.446   2.202 -0.6709 -0.4835  0.2210
 8000TIP3    H145491   1.662   3.358   2.167  0.3367 -0.5850  0.8724
 8000TIP3    H245492   1.707   3.502   2.151  0.6499 -0.5986  1.6092
 8001TIP3   OH245493   2.662   0.216  12.837 -0.3612  0.0173  0.8624
 8001TIP3    H145494   2.624   0.156  12.773  0.5837  0.7798 -0.4290
 8001TIP3    H245495   2.588   0.270  12.865 -0.8825 -0.6589  0.8003
 8002TIP3   OH245496   2.046   2.205  13.118  0.1509  0.2894 -0.0337
 8002TIP3    H145497   2.130   2.158  13.118 -0.2539 -0.4439 -0.9897
 8002TIP3    H245498   2.069   2.295  13.141  0.9799 -0.2916  1.5413
 8003TIP3   OH245499   6.773   0.727  12.852 -0.5794 -0.1959  0.9973
 8003TIP3    H145500   6.830   0.671  12.905 -1.2184 -0.5539  1.3051
 8003TIP3    H245501   6.782   0.693  12.763 -1.7490 -1.4485  1.3418
 8004TIP3   OH245502   4.986   0.920   3.452 -0.3569 -0.7969  0.1287
 8004TIP3    H145503   4.914   0.872   3.494 -1.1646  0.2736 -0.0183
 8004TIP3    H245504   5.045   0.942   3.524 -0.5579 -1.0149  0.3642
 8005TIP3   OH245505   1.736   0.546   1.233 -0.5722  0.1341 -0.6963
 8005TIP3    H145506   1.822   0.536   1.192 -0.1161  1.9181 -0.2080
 8005TIP3    H245507   1.675   0.552   1.159 -0.2111 -0.4906 -1.0525
 8006TIP3   OH245508   4.359   1.314  12.296 -0.4407  0.4316 -0.5863
 8006TIP3    H145509   4.391   1.344  12.380 -0.7757 -0.5201 -0.1125
 8006TIP3    H245510   4.402   1.371  12.232  1.8303 -0.4957  0.0505
 8007TIP3   OH245511   5.652   1.991   0.187  0.5099 -0.1291 -0.0310
 8007TIP3    H145512   5.629   2.013   0.277  0.5923  1.8490 -0.4859
 8007TIP3    H245513   5.748   1.990   0.187  0.5199 -2.2066  0.3726
 8008TIP3   OH245514   6.530   3.582   3.504  0.1608 -0.3778 -0.4284
 8008TIP3    H145515   6.439   3.608   3.521  0.4844 -0.2852  1.2257
 8008TIP3    H245516   6.523   3.500   3.457 -0.8050  0.2189 -1.3465
 8009TIP3   OH245517   4.904   5.320  12.189 -0.1548  0.5226  0.0624
 8009TIP3    H145518   4.988   5.280  12.165  0.5101  1.4562  0.8113
 8009TIP3    H245519   4.911   5.410  12.160 -1.0725  0.4920 -0.2591
 8010TIP3   OH245520   5.755   1.433   2.424  0.0355 -0.2668  0.2011
 8010TIP3    H145521   5.729   1.385   2.503 -2.3148 -1.5562 -1.3142
 8010TIP3    H245522   5.722   1.381   2.352  2.1290  0.9183 -1.6911
 8011TIP3   OH245523   6.678   6.263   5.094  0.2012 -0.6917 -0.5364
 8011TIP3    H145524   6.590   6.228   5.102  0.1026 -0.1927  0.6768
 8011TIP3    H245525   6.704   6.244   5.004 -0.9489 -1.2857 -0.7419
 8012TIP3   OH245526   6.630   0.107  12.853  0.1005 -0.6445 -0.7091
 8012TIP3    H145527   6.587   0.170  12.794  0.1952  0.1363  0.0398
 8012TIP3    H245528   6.618   0.022  12.811 -0.4303 -0.1771 -1.5107
 8013TIP3   OH245529   4.000   4.290   1.929  0.7882  0.2620  0.2641
 8013TIP3    H145530   4.037   4.241   1.856  1.5746  0.4664  0.5149
 8013TIP3    H245531   4.063   4.277   2.000 -0.0399 -0.0537  0.9496
 8014TIP3   OH245532   6.675   0.723  10.992  0.5312  0.0334 -0.0216
 8014TIP3    H145533   6.694   0.707  10.899 -0.8634 -0.4423 -0.2337
 8014TIP3    H245534   6.649   0.815  10.995 -0.1978 -0.1639 -0.2316
 8015TIP3   OH245535   0.146   3.589   3.269  0.7396  0.5172 -0.2700
 8015TIP3    H145536   0.193   3.618   3.191  0.7735  1.2604  0.0144
 8015TIP3    H245537   0.055   3.584   3.243  0.6002  1.8196 -0.0777
 8016TIP3   OH245538   3.391   1.421  15.275 -0.2437 -0.3334  0.0831
 8016TIP3    H145539   3.407   1.466  15.358 -0.7834 -0.1689  0.1031
 8016TIP3    H245540   3.472   1.431  15.226  0.5948 -1.6589  1.1523
 8017TIP3   OH245541   5.680   3.632  13.201  0.2028  0.1413  0.3778
 8017TIP3    H145542   5.596   3.677  13.215  1.3067  1.8479  1.7029
 8017TIP3    H245543   5.667   3.545  13.238 -1.8778 -0.6085 -1.9528
 8018TIP3   OH245544   5.462   1.966   1.194 -0.6122 -1.0805 -0.4814
 8018TIP3    H145545   5.417   1.969   1.278 -0.4902 -0.0187 -0.4419
 8018TIP3    H245546   5.397   1.998   1.131 -0.2512 -0.5098 -0.5740
 8019TIP3   OH245547   2.761   1.106  14.462 -0.5099 -0.5381 -0.5869
 8019TIP3    H145548   2.704   1.170  14.505 -1.0174 -1.3843  0.0072
 8019TIP3    H245549   2.841   1.155  14.441 -0.5350  0.0646  0.6757
 8020TIP3   OH245550   2.247   3.742   0.023 -0.2759  0.0930 -0.6365
 8020TIP3    H145551   2.298   3.673   0.065 -1.0504  0.0119  0.1811
 8020TIP3    H245552   2.300   3.821   0.034  0.5592 -0.3360 -1.4781
 8021TIP3   OH245553   4.219   4.137  15.429 -0.3385  0.4944  0.7665
 8021TIP3    H145554   4.215   4.138  15.524  0.7013  3.7850  0.8408
 8021TIP3    H245555   4.309   4.112  15.409 -0.2041  1.0585  0.6706
 8022TIP3   OH245556   2.044   4.933   5.320  0.2902  0.1367  0.3555
 8022TIP3    H145557   2.064   4.839   5.322 -0.9438 -0.1160  2.5419
 8022TIP3    H245558   1.964   4.939   5.266 -1.0108 -0.3780  2.1893
 8023TIP3   OH245559   5.292   2.830   5.381 -0.4087 -1.3199  0.0948
 8023TIP3    H145560   5.235   2.890   5.334  0.4229 -0.2861  0.3770
 8023TIP3    H245561   5.339   2.783   5.313  0.2956 -0.3109 -0.1250
 8024TIP3   OH245562   2.489   3.575  14.911  0.0026  0.2480 -0.3673
 8024TIP3    H145563   2.465   3.621  14.831  0.9662  0.3682 -0.5884
 8024TIP3    H245564   2.570   3.618  14.940 -0.5153  0.4270  0.8379
 8025TIP3   OH245565   0.044   5.984  15.867  0.3127  0.0671  0.4014
 8025TIP3    H145566   0.060   6.078  15.868 -1.3038  0.3530  0.9636
 8025TIP3    H245567  -0.038   5.974  15.820 -0.5939 -0.8729  2.1273
 8026TIP3   OH245568   3.781   5.617   1.680 -0.0796  0.4067 -0.1013
 8026TIP3    H145569   3.697   5.602   1.636 -0.1224  1.1965 -0.2938
 8026TIP3    H245570   3.819   5.530   1.689 -1.1165  0.0044  0.3822
 8027TIP3   OH245571   3.339   4.122   3.394  0.7007  0.1934  0.1386
 8027TIP3    H145572   3.430   4.153   3.390  0.7498 -0.2172 -2.5131
 8027TIP3    H245573   3.340   4.040   3.345 -1.2820  0.6325 -0.6649
 8028TIP3   OH245574   1.514   6.734  15.759  0.5888 -0.7498 -0.1806
 8028TIP3    H145575   1.556   6.649  15.774  3.1369  0.6228  0.7291
 8028TIP3    H245576   1.502   6.738  15.664  1.8578 -1.4789 -0.3835
 8029TIP3   OH245577   0.576   4.698   4.198  0.1115  0.1060 -0.3225
 8029TIP3    H145578   0.538   4.683   4.284  0.5725  2.5580  0.3625
 8029TIP3    H245579   0.515   4.759   4.156  0.8379  0.3567 -1.0222
 8030TIP3   OH245580   2.654   5.362  16.856  0.1796  0.0012  0.2007
 8030TIP3    H145581   2.625   5.451  16.874  1.7334  0.1401  2.2239
 8030TIP3    H245582   2.601   5.334  16.781 -1.7949  1.8669  0.8518
 8031TIP3   OH245583   0.793   6.701   5.356 -0.6301 -0.2730  0.3528
 8031TIP3    H145584   0.709   6.661   5.333 -0.7922  0.2970 -0.0790
 8031TIP3    H245585   0.782   6.727   5.448 -1.4211  0.9974 -0.0815
 8032TIP3   OH245586   1.038   1.324  14.638  0.0055 -0.1916 -0.1724
 8032TIP3    H145587   1.087   1.370  14.570  0.3947 -0.6473 -0.1995
 8032TIP3    H245588   1.069   1.234  14.633 -0.4984 -0.3828  0.1181
 8033TIP3   OH245589   2.808   6.518   0.852 -0.0737  0.4928  0.2900
 8033TIP3    H145590   2.836   6.602   0.816  0.4899 -0.1711 -0.8579
 8033TIP3    H245591   2.792   6.464   0.775  1.1928 -0.9726  1.0273
 8034TIP3   OH245592   3.305   3.646  16.117  0.4856 -0.1741 -0.3129
 8034TIP3    H145593   3.247   3.701  16.171  1.3935  0.1024  0.3927
 8034TIP3    H245594   3.245   3.591  16.066 -0.3939 -0.2877  0.8159
 8035TIP3   OH245595   1.557   6.172  13.451  0.1484  0.3984  0.8383
 8035TIP3    H145596   1.554   6.249  13.509 -0.0274  0.1954  1.1025
 8035TIP3    H245597   1.480   6.121  13.476  0.5198 -0.0962  0.9892
 8036TIP3   OH245598   6.677   2.460  17.264  0.1791 -0.5750  0.1961
 8036TIP3    H145599   6.739   2.431  17.331 -0.0030 -0.9576  0.1993
 8036TIP3    H245600   6.662   2.553  17.284  1.6154 -0.1943 -0.4839
 8037TIP3   OH245601   4.908   5.072   0.209 -0.2128  0.5988 -0.5525
 8037TIP3    H145602   4.989   5.077   0.259 -0.9787 -0.8686  0.9033
 8037TIP3    H245603   4.929   5.014   0.136 -0.1517 -0.4375  0.2694
 8038TIP3   OH245604   5.439   1.454  14.401  0.9201 -0.0802  0.2945
 8038TIP3    H145605   5.385   1.456  14.480  0.5538  3.9585  0.0685
 8038TIP3    H245606   5.525   1.487  14.429  0.5574  2.1581 -1.0643
 8039TIP3   OH245607   0.053   5.132   1.336 -0.3191  0.5956 -0.5833
 8039TIP3    H145608   0.076   5.194   1.406  0.3279 -0.7289  0.4032
 8039TIP3    H245609   0.134   5.083   1.322 -1.2823 -1.1083 -0.2275
 8040TIP3   OH245610   5.662   5.575   5.215  0.5276  0.3077 -0.0009
 8040TIP3    H145611   5.655   5.625   5.296  0.1193 -3.2821  2.2744
 8040TIP3    H245612   5.576   5.536   5.203  1.1393 -0.7181 -1.1529
 8041TIP3   OH245613   1.333   4.403   0.875 -0.2218 -0.0942  0.2117
 8041TIP3    H145614   1.320   4.324   0.823  1.8772 -0.0929 -0.3610
 8041TIP3    H245615   1.428   4.415   0.877 -0.4503  1.7099  1.3517
 8042TIP3   OH245616   3.585   5.612   1.491  0.5413 -0.0834 -0.7129
 8042TIP3    H145617   3.511   5.639   1.546  0.9123  1.5395 -0.9975
 8042TIP3    H245618   3.548   5.608   1.402 -0.6672 -4.9498 -0.1764
 8043TIP3   OH245619   4.695   1.029   2.727 -0.0757  0.4594 -0.3043
 8043TIP3    H145620   4.671   1.066   2.642 -2.3706 -0.7500 -0.2283
 8043TIP3    H245621   4.611   1.007   2.768  1.0970 -1.8444  0.9570
 8044TIP3   OH245622   3.107   5.863   2.675 -0.1341  0.0098  0.4346
 8044TIP3    H145623   3.158   5.802   2.622  0.8522  0.2598  1.0909
 8044TIP3    H245624   3.047   5.904   2.613  2.0735  1.4650 -0.7875
 8045TIP3   OH245625   3.242   0.300  16.002 -0.5617  0.2034 -0.3179
 8045TIP3    H145626   3.217   0.209  16.018 -0.0869  0.5026  2.3101
 8045TIP3    H245627   3.337   0.301  16.013 -0.5900  1.0709 -0.1137
 8046TIP3   OH245628   2.727   4.348   0.798 -0.2954 -0.8016 -0.5088
 8046TIP3    H145629   2.791   4.411   0.831  1.6073 -2.6961 -0.4338
 8046TIP3    H245630   2.651   4.400   0.775  1.1740  1.4894 -0.3162
 8047TIP3   OH245631   4.198   5.595  11.922 -0.1089 -0.3002 -0.1762
 8047TIP3    H145632   4.225   5.596  11.830 -0.4496 -0.4579 -0.2773
 8047TIP3    H245633   4.241   5.518  11.959  1.6780  0.8967  0.2983
 8048TIP3   OH245634   1.295   3.454  13.636  0.5100 -0.6036  0.6259
 8048TIP3    H145635   1.244   3.533  13.654 -0.1390 -1.5395  3.1730
 8048TIP3    H245636   1.230   3.384  13.629  1.1842 -1.1859  0.0107
 8049TIP3   OH245637   4.962   4.525   5.233  0.9844 -0.2393 -0.2320
 8049TIP3    H145638   4.923   4.437   5.232  1.2009 -0.3322 -0.9701
 8049TIP3    H245639   4.924   4.567   5.309 -2.1363  0.3467 -2.0150
 8050TIP3   OH245640   6.108   2.355   5.253 -0.4210  0.3427 -0.1076
 8050TIP3    H145641   6.114   2.261   5.237 -0.9536  0.0881  1.1500
 8050TIP3    H245642   6.119   2.364   5.348  1.1623  1.6835 -0.3837
 8051TIP3   OH245643   0.439   6.082   3.359  0.2925 -0.3545  0.3681
 8051TIP3    H145644   0.396   6.077   3.274 -0.9744 -1.7998  1.0842
 8051TIP3    H245645   0.394   6.154   3.404  0.6876  0.1393 -0.0192
 8052TIP3   OH245646   0.058   2.794  15.353  0.0800  0.0486  0.1061
 8052TIP3    H145647   0.111   2.865  15.317  2.0647 -2.0441 -1.2686
 8052TIP3    H245648   0.032   2.743  15.276 -1.1326 -0.8263  1.0791
 8053TIP3   OH245649   2.724   3.170  13.091 -0.0665 -0.0607 -0.1994
 8053TIP3    H145650   2.737   3.196  13.182 -0.7365  2.2101 -0.7375
 8053TIP3    H245651   2.811   3.176  13.051 -0.3318  2.0851 -0.4915
 8054TIP3   OH245652   6.059   4.690  14.969 -0.2496 -0.1488  0.6719
 8054TIP3    H145653   5.979   4.655  14.928 -0.0686  2.0058 -1.6765
 8054TIP3    H245654   6.129   4.634  14.936 -0.5955 -0.9904  1.3655
 8055TIP3   OH245655   3.071   0.167   4.963 -0.1957  0.5422 -0.0137
 8055TIP3    H145656   3.105   0.217   4.888 -1.1344  0.6869 -0.3413
 8055TIP3    H245657   3.009   0.106   4.925 -0.0729  0.0580  0.5609
 8056TIP3   OH245658   5.497   1.422   5.567 -0.4302  0.7359 -0.4389
 8056TIP3    H145659   5.437   1.351   5.593  1.2269 -0.6718 -0.3506
 8056TIP3    H245660   5.563   1.425   5.636  1.7905 -0.3859 -2.4143
 8057TIP3   OH245661   2.800   1.366  14.284 -0.7152  0.3274 -0.4242
 8057TIP3    H145662   2.878   1.311  14.296 -1.4724 -0.5739  0.4494
 8057TIP3    H245663   2.775   1.352  14.192 -1.0238 -0.9670 -0.1566
 8058TIP3   OH245664   1.887   3.826   3.744 -0.4797  0.3817  0.4438
 8058TIP3    H145665   1.840   3.901   3.781 -1.6950  0.8805 -1.9809
 8058TIP3    H245666   1.960   3.864   3.696 -2.0899  0.2030 -2.2503
 8059TIP3   OH245667   5.431   4.271  13.699  0.2891  0.3973 -0.2874
 8059TIP3    H145668   5.345   4.240  13.669 -0.4070  2.5231 -0.5494
 8059TIP3    H245669   5.416   4.302  13.788  0.7092  1.1103 -0.4621
 8060TIP3   OH245670   0.284   2.105  14.631 -0.5866 -0.0573  0.1078
 8060TIP3    H145671   0.271   2.010  14.628 -0.2785 -0.0866 -0.2791
 8060TIP3    H245672   0.283   2.126  14.725  1.8575 -0.8027  0.3520
 8061TIP3   OH245673   3.426   4.345   0.577  0.1436 -0.4123  0.7271
 8061TIP3    H145674   3.410   4.401   0.501  1.9617  0.4908  0.9727
 8061TIP3    H245675   3.496   4.286   0.550  1.2048  0.2909  1.8476
 8062TIP3   OH245676   4.093   3.011   3.881  0.0001  0.1596 -0.4431
 8062TIP3    H145677   4.068   2.986   3.792  0.3239 -1.5499 -0.0827
 8062TIP3    H245678   4.024   3.071   3.909 -0.8957 -0.4306 -1.3302
 8063TIP3   OH245679   5.669   3.283   2.426  0.1201 -0.5342  0.3230
 8063TIP3    H145680   5.715   3.320   2.351 -2.0648 -0.9541 -1.2780
 8063TIP3    H245681   5.696   3.338   2.500  0.3679  1.4799 -1.2105
 8064TIP3   OH245682   4.710   4.790   2.456  0.4288  0.3598 -0.1847
 8064TIP3    H145683   4.639   4.844   2.491 -0.9073 -1.0174 -0.7408
 8064TIP3    H245684   4.731   4.830   2.372 -0.8368 -0.2152 -0.7803
 8065TIP3   OH245685   3.491   3.571  11.637 -0.9116 -0.2185  0.1389
 8065TIP3    H145686   3.558   3.586  11.703  0.3706 -0.7468 -1.0169
 8065TIP3    H245687   3.454   3.486  11.659 -0.7712 -0.2135  0.4005
 8066TIP3   OH245688   3.362   4.474   4.626 -0.0899 -0.0053  0.7516
 8066TIP3    H145689   3.272   4.474   4.596  0.3994  0.0095 -0.7234
 8066TIP3    H245690   3.355   4.490   4.721 -1.6758 -1.1958  0.8529
 8067TIP3   OH245691   5.987   2.019  11.798  0.5426  0.4352  0.4682
 8067TIP3    H145692   5.969   2.093  11.856  0.7295  0.9299 -0.0964
 8067TIP3    H245693   5.954   1.943  11.845 -0.3444  0.9715  0.7398
 8068TIP3   OH245694   0.485   0.917  14.962  0.4907  0.4166 -0.0320
 8068TIP3    H145695   0.408   0.885  15.010  0.9097 -0.1748  0.2563
 8068TIP3    H245696   0.468   1.010  14.948  0.5781  0.7027  1.6918
 8069TIP3   OH245697   1.371   5.304  11.732 -0.5555  0.3776 -0.0528
 8069TIP3    H145698   1.422   5.226  11.711 -0.4290  0.6227 -0.6689
 8069TIP3    H245699   1.290   5.270  11.770  0.1948 -0.0060  1.2333
 8070TIP3   OH245700   2.127   3.172  16.081  0.1260  0.0176 -0.4676
 8070TIP3    H145701   2.067   3.172  16.156 -0.6300  2.9367 -1.0130
 8070TIP3    H245702   2.113   3.086  16.040 -0.7881 -0.8951  1.6386
 8071TIP3   OH245703   3.546   3.039   2.743 -0.1343 -0.3086  0.0315
 8071TIP3    H145704   3.553   2.944   2.732 -1.0028 -0.3146 -0.5548
 8071TIP3    H245705   3.500   3.050   2.826  2.5996 -0.3378  1.5980
 8072TIP3   OH245706   1.298   6.401  14.916  0.2281 -0.3900 -0.0006
 8072TIP3    H145707   1.338   6.476  14.870  0.7121 -0.6201  0.0420
 8072TIP3    H245708   1.237   6.441  14.978 -1.8978 -0.1295 -2.1759
 8073TIP3   OH245709   0.661   1.799  16.645  0.1797 -0.6499 -0.0825
 8073TIP3    H145710   0.624   1.717  16.676 -0.3586  0.0504  1.1522
 8073TIP3    H245711   0.586   1.851  16.618  0.2612  0.6291  2.0807
 8074TIP3   OH245712   2.935   4.260   1.190  0.0969 -0.0425  0.4297
 8074TIP3    H145713   3.006   4.297   1.136  1.7973 -1.1808  1.8370
 8074TIP3    H245714   2.855   4.288   1.146  1.4187  0.8444 -1.4932
 8075TIP3   OH245715   1.103   3.099   5.394 -0.1328 -0.1405  0.3193
 8075TIP3    H145716   1.175   3.093   5.456  0.4065  0.7506 -0.2121
 8075TIP3    H245717   1.061   3.013   5.398  0.4518 -0.3949  1.2323
 8076TIP3   OH245718   6.693   1.838  12.690  0.2787 -0.0729 -0.9290
 8076TIP3    H145719   6.714   1.747  12.669  0.2170  0.0711 -1.6120
 8076TIP3    H245720   6.656   1.874  12.610  2.5280  1.2522 -1.4429
 8077TIP3   OH245721   6.199   4.430   3.376  0.5693 -0.1830  0.0107
 8077TIP3    H145722   6.236   4.490   3.312  0.4246  0.1692  0.2543
 8077TIP3    H245723   6.189   4.483   3.456  0.7791 -0.6250  0.3314
 8078TIP3   OH245724   2.174   2.456   0.010  0.2117  0.1416 -0.6472
 8078TIP3    H145725   2.116   2.451  -0.066 -1.1409  0.7492  0.3261
 8078TIP3    H245726   2.200   2.548   0.014 -0.8991  0.4070  0.4903
 8079TIP3   OH245727   0.438   2.571  13.598  1.0325  0.5741  0.4626
 8079TIP3    H145728   0.365   2.622  13.634 -0.4896 -2.5831  2.0268
 8079TIP3    H245729   0.420   2.567  13.504 -0.0755  0.9299  0.6533
 8080TIP3   OH245730   5.438   3.174  13.141 -0.0649  0.0445 -0.0413
 8080TIP3    H145731   5.506   3.106  13.136 -0.4859 -0.5309  1.6283
 8080TIP3    H245732   5.486   3.256  13.130  1.3418 -0.1888  3.5070
 8081TIP3   OH245733   6.338   2.729   5.955 -0.1415 -0.1103  0.3629
 8081TIP3    H145734   6.254   2.755   5.918 -0.9695 -1.8595  0.9434
 8081TIP3    H245735   6.404   2.761   5.893 -1.3660 -0.7619 -1.3064
 8082TIP3   OH245736   2.026   5.519   0.110 -0.4370  0.4196  0.0586
 8082TIP3    H145737   2.083   5.562   0.174  2.0818 -0.0132 -1.8141
 8082TIP3    H245738   2.021   5.428   0.139  2.3138 -0.2428 -1.3466
 8083TIP3   OH245739   3.652   4.714  15.612  0.7586 -0.4010  0.3165
 8083TIP3    H145740   3.604   4.733  15.531 -0.7220 -0.5567  1.1238
 8083TIP3    H245741   3.737   4.755  15.601 -0.3129  1.7191 -0.3164
 8084TIP3   OH245742   5.988   0.363   1.692 -0.1569 -0.1860 -0.2362
 8084TIP3    H145743   6.010   0.325   1.606 -2.0878  1.0752 -1.3137
 8084TIP3    H245744   6.024   0.451   1.689 -1.9646  0.5658 -0.5551
 8085TIP3   OH245745   0.669   3.999   3.047 -0.4088  0.0937  0.1370
 8085TIP3    H145746   0.630   4.078   3.008 -2.7024 -0.7619  0.5813
 8085TIP3    H245747   0.715   4.031   3.124 -2.3115  0.8751  0.9810
 8086TIP3   OH245748   1.480   0.583  13.693 -0.0925  0.2443 -0.0803
 8086TIP3    H145749   1.406   0.530  13.664 -0.0817 -0.6492  1.4216
 8086TIP3    H245750   1.528   0.525  13.754  1.7737  0.8448 -0.9389
 8087TIP3   OH245751   1.804   4.154   0.726  0.3456  0.0714 -0.1277
 8087TIP3    H145752   1.883   4.100   0.717  0.9477  1.1148 -1.1722
 8087TIP3    H245753   1.757   4.115   0.800  2.3022  0.0305  1.1184
 8088TIP3   OH245754   6.058   4.678   2.592 -0.6052 -0.1093 -0.3194
 8088TIP3    H145755   6.109   4.708   2.517  0.0731 -0.3746  0.0216
 8088TIP3    H245756   6.115   4.614   2.635 -1.5428 -0.9817 -0.3603
 8089TIP3   OH245757   3.503   4.098   3.119 -0.2875 -0.0056  0.0727
 8089TIP3    H145758   3.542   4.035   3.180 -1.1424  1.7375  2.4954
 8089TIP3    H245759   3.577   4.148   3.085  0.0097  0.3479  1.2333
 8090TIP3   OH245760   4.192   2.767  14.672 -0.2152 -0.3574 -1.2399
 8090TIP3    H145761   4.184   2.863  14.665 -1.3196 -0.4568 -1.5203
 8090TIP3    H245762   4.231   2.753  14.758 -1.1035  0.3176 -0.7065
 8091TIP3   OH245763   2.447   5.155  12.802  0.3564  0.0313  0.1725
 8091TIP3    H145764   2.388   5.220  12.840 -1.2920 -0.7076 -1.0223
 8091TIP3    H245765   2.398   5.120  12.727  2.4691 -0.3739 -1.0551
 8092TIP3   OH245766   6.020   6.777   1.336  0.0979  1.0926  0.6173
 8092TIP3    H145767   6.114   6.770   1.354  0.0682 -0.5329  0.2420
 8092TIP3    H245768   5.982   6.701   1.378 -0.5734 -0.2769 -2.3072
 8093TIP3   OH245769   2.502   1.181   4.850  0.2925 -0.0479  0.0790
 8093TIP3    H145770   2.435   1.119   4.821 -0.4321  0.7841 -0.0624
 8093TIP3    H245771   2.481   1.196   4.943  0.2104  0.3012  0.0047
 8094TIP3   OH245772   6.325   5.633   4.884  0.9985 -0.4961  0.3695
 8094TIP3    H145773   6.324   5.563   4.949  1.0656 -0.3597  0.5210
 8094TIP3    H245774   6.408   5.679   4.901  1.9456 -1.6371 -1.0801
 8095TIP3   OH245775   5.683   2.008  14.946  0.3505 -0.1907  0.0158
 8095TIP3    H145776   5.755   2.043  14.893  0.6799 -0.6697  0.1404
 8095TIP3    H245777   5.642   2.086  14.984  1.0055  0.0734  0.1990
 8096TIP3   OH245778   4.495   6.564   1.210  0.0081  0.0659 -0.3552
 8096TIP3    H145779   4.400   6.567   1.224  0.2465  0.2355  1.3940
 8096TIP3    H245780   4.514   6.643   1.160 -0.4412  1.4225  1.5735
 8097TIP3   OH245781   5.116   1.340  12.487  0.4561 -0.4328 -0.2328
 8097TIP3    H145782   5.121   1.303  12.575 -1.4865 -0.3975 -0.0838
 8097TIP3    H245783   5.161   1.277  12.431  1.3834 -0.6348  0.7306
 8098TIP3   OH245784   1.338   3.512  14.707 -0.1085 -0.2597  0.5782
 8098TIP3    H145785   1.431   3.514  14.730 -0.6702  0.7730  3.0154
 8098TIP3    H245786   1.326   3.588  14.650  0.6328 -0.7411 -0.2374
 8099TIP3   OH245787   4.085   6.372  11.663  0.1850  0.3356  0.2859
 8099TIP3    H145788   4.109   6.396  11.753 -0.3935  0.0324  0.5212
 8099TIP3    H245789   4.168   6.370  11.616  0.5121  0.2953  0.8607
 8100TIP3   OH245790   2.266   4.554   3.085 -0.2450  0.2752  0.0046
 8100TIP3    H145791   2.297   4.464   3.087 -1.4101 -0.1421 -0.2208
 8100TIP3    H245792   2.333   4.602   3.037  0.6311 -0.3721  0.5711
 8101TIP3   OH245793   3.111   4.729  16.345  0.0612 -0.6494 -0.0560
 8101TIP3    H145794   3.182   4.759  16.288 -0.8351 -0.2675 -0.9976
 8101TIP3    H245795   3.042   4.701  16.285 -0.5607 -1.0829  0.8429
 8102TIP3   OH245796   5.012   6.479  15.668  0.1519 -0.0605 -0.2833
 8102TIP3    H145797   4.977   6.521  15.746  0.2788  0.6402 -0.5976
 8102TIP3    H245798   5.007   6.546  15.600 -0.6647 -0.9036 -1.0687
 8103TIP3   OH245799   1.006   3.795  16.351  0.3078  0.5277 -0.0513
 8103TIP3    H145800   1.018   3.762  16.440 -0.5524 -0.7071 -0.3837
 8103TIP3    H245801   1.029   3.888  16.357  0.4362  0.4167  1.4164
 8104TIP3   OH245802   4.267   1.011  16.987  0.0163  0.3332 -0.2958
 8104TIP3    H145803   4.196   1.021  17.051  0.8572 -0.5939  0.7998
 8104TIP3    H245804   4.222   0.999  16.904 -1.0972  2.9614 -0.1225
 8105TIP3   OH245805   6.506   4.085   1.805  0.0240  0.2899  0.1875
 8105TIP3    H145806   6.479   4.144   1.735 -0.7525  1.0257  1.0881
 8105TIP3    H245807   6.427   4.072   1.858  0.9866  1.0446  1.8464
 8106TIP3   OH245808   6.497   2.433  14.212  0.1235 -0.2742 -0.4475
 8106TIP3    H145809   6.488   2.504  14.149  0.0428 -0.5112 -0.7022
 8106TIP3    H245810   6.589   2.436  14.239 -0.3969  1.4085  1.2907
 8107TIP3   OH245811   3.601   6.132  15.714  0.1987 -0.8131 -0.8699
 8107TIP3    H145812   3.584   6.101  15.625 -0.4169 -0.3106 -0.9369
 8107TIP3    H245813   3.617   6.053  15.765  2.4513 -1.0060 -1.8110
 8108TIP3   OH245814   3.701   1.129  13.079  0.1772 -0.3246 -0.1214
 8108TIP3    H145815   3.633   1.196  13.087  1.1531  0.4967  1.5159
 8108TIP3    H245816   3.767   1.154  13.143  1.9989 -1.1603 -1.6100
 8109TIP3   OH245817   5.482   3.653  12.478 -0.6664  0.3982 -0.1578
 8109TIP3    H145818   5.475   3.558  12.475  1.5174  0.1443  1.4961
 8109TIP3    H245819   5.394   3.683  12.500 -1.4345 -1.1992 -0.9390
 8110TIP3   OH245820   3.573   5.515  13.358 -0.9872 -0.1993  0.4714
 8110TIP3    H145821   3.539   5.495  13.445  0.9145 -2.7165  0.6912
 8110TIP3    H245822   3.658   5.556  13.374 -0.4984 -0.9435 -0.1987
 8111TIP3   OH245823   5.399   2.731   2.927 -0.1935  0.1977  0.3752
 8111TIP3    H145824   5.425   2.707   2.839 -1.8695  0.7063 -0.2729
 8111TIP3    H245825   5.330   2.668   2.950  0.0076  0.2682  1.1991
 8112TIP3   OH245826   2.884   3.091   3.215 -0.1966 -0.5812 -0.1505
 8112TIP3    H145827   2.952   3.030   3.185  0.2540  0.1106 -0.5506
 8112TIP3    H245828   2.890   3.087   3.311  0.4037 -0.5429 -0.1811
 8113TIP3   OH245829   2.487   3.552   5.581 -0.3475  0.4485 -0.2664
 8113TIP3    H145830   2.448   3.540   5.668 -0.5109  0.7623 -0.2987
 8113TIP3    H245831   2.571   3.594   5.598  1.1778 -2.5237  0.0319
 8114TIP3   OH245832   6.600   5.437  13.441  0.4929  0.0451  0.2834
 8114TIP3    H145833   6.528   5.374  13.434 -0.5424  0.8828  2.8668
 8114TIP3    H245834   6.610   5.451  13.535  3.1593  0.9790 -0.1026
 8115TIP3   OH245835   3.188   2.288   0.879  0.1873 -0.2806  0.0651
 8115TIP3    H145836   3.199   2.292   0.784 -0.7578  0.5257 -0.0112
 8115TIP3    H245837   3.270   2.323   0.913  1.3413 -2.3969 -0.4127
 8116TIP3   OH245838   2.563   1.590  12.432 -0.6162  0.4535  0.2169
 8116TIP3    H145839   2.478   1.584  12.476 -0.0116 -0.6925  1.2746
 8116TIP3    H245840   2.622   1.624  12.499  0.0675 -0.1758 -0.0561
 8117TIP3   OH245841   3.193   0.815  12.968  0.1741  0.4951 -0.3347
 8117TIP3    H145842   3.182   0.902  13.006  1.2151  2.0337 -3.4421
 8117TIP3    H245843   3.126   0.811  12.900  0.4305 -0.9905 -0.5039
 8118TIP3   OH245844   1.047   1.606  11.326  0.4905 -0.2085  0.4956
 8118TIP3    H145845   1.122   1.578  11.378  1.0321  0.7863  0.2633
 8118TIP3    H245846   0.979   1.624  11.391  0.8819  0.1711  0.8021
 8119TIP3   OH245847   1.283   4.871  17.276  0.1974 -0.2814 -0.3368
 8119TIP3    H145848   1.201   4.837  17.314 -0.1577 -0.3783 -1.1798
 8119TIP3    H245849   1.348   4.804  17.298  0.2051  0.1427  0.9650
 8120TIP3   OH245850   5.731   1.039   3.848 -0.0192  0.8236 -0.1122
 8120TIP3    H145851   5.823   1.032   3.823  0.6531 -1.9412  2.7835
 8120TIP3    H245852   5.687   0.974   3.793  0.0299  1.0342 -0.3985
 8121TIP3   OH245853   2.554   1.216  15.396 -0.0238  0.2309 -0.3678
 8121TIP3    H145854   2.466   1.240  15.368 -0.8468 -0.0241  1.9321
 8121TIP3    H245855   2.609   1.234  15.320 -2.0270  0.5301 -1.7846
 8122TIP3   OH245856   2.718   0.899   3.410  0.0285 -0.4654 -0.7396
 8122TIP3    H145857   2.781   0.928   3.476  1.1088  0.2727 -2.0659
 8122TIP3    H245858   2.658   0.973   3.400 -0.2163 -0.6292 -0.4962
 8123TIP3   OH245859   6.588   4.563  12.556  0.3069  0.0297 -0.2115
 8123TIP3    H145860   6.628   4.482  12.522 -0.4275 -0.6290  0.4723
 8123TIP3    H245861   6.497   4.539  12.573  0.1414  0.9462  0.2175
 8124TIP3   OH245862   2.413   0.907   1.702  0.0104  0.5125 -0.0572
 8124TIP3    H145863   2.464   0.826   1.706 -0.5751  0.1497  0.1629
 8124TIP3    H245864   2.411   0.938   1.792  0.1280  0.7088 -0.1215
 8125TIP3   OH245865   4.844   5.166  15.151 -0.2098 -0.0449  0.1570
 8125TIP3    H145866   4.857   5.072  15.153 -2.0363 -0.3177  0.6342
 8125TIP3    H245867   4.894   5.199  15.225 -0.2117 -0.7449  0.4755
 8126TIP3   OH245868   0.574   0.638   0.333  0.3209  0.0794  0.5797
 8126TIP3    H145869   0.528   0.600   0.259  0.9822  0.2367  0.0775
 8126TIP3    H245870   0.637   0.571   0.360  0.5713  0.2947  0.5405
 8127TIP3   OH245871   0.492   5.606  11.158 -0.4415 -0.3134 -0.1114
 8127TIP3    H145872   0.552   5.535  11.182 -0.0601 -0.3309 -1.1099
 8127TIP3    H245873   0.445   5.573  11.081 -2.0751 -0.4871  0.9183
 8128TIP3   OH245874   1.816   6.439  14.908  0.4315 -0.0400 -0.0029
 8128TIP3    H145875   1.823   6.480  14.822 -0.6813 -0.6907 -0.4185
 8128TIP3    H245876   1.773   6.505  14.962  0.2918  0.0254 -0.1913
 8129TIP3   OH245877   1.782   5.789  15.190  0.0534 -0.2194  0.1557
 8129TIP3    H145878   1.727   5.712  15.205 -2.4511  1.7954  1.8073
 8129TIP3    H245879   1.787   5.832  15.275  0.6752  1.8706 -0.9058
 8130TIP3   OH245880   3.533   2.896  14.598 -0.3027  0.4940  0.5536
 8130TIP3    H145881   3.471   2.854  14.538  1.2113 -1.0236  0.0069
 8130TIP3    H245882   3.616   2.896  14.550  0.3247  1.7283  1.6081
 8131TIP3   OH245883   2.296   3.584  11.456  0.4423 -0.1827  0.0775
 8131TIP3    H145884   2.334   3.671  11.465 -0.7111  0.1261  2.1791
 8131TIP3    H245885   2.356   3.537  11.398  1.0025  2.0301 -1.1951
 8132TIP3   OH245886   4.506   0.227   6.750 -0.0187 -0.1092 -0.4039
 8132TIP3    H145887   4.540   0.301   6.700 -1.4057 -0.4563 -1.9282
 8132TIP3    H245888   4.467   0.267   6.828 -0.9085  0.8080 -1.2930
 8133TIP3   OH245889   0.501   1.637   2.612 -0.0802  0.4781  0.0904
 8133TIP3    H145890   0.456   1.653   2.529  0.7720 -0.4057 -0.5609
 8133TIP3    H245891   0.432   1.613   2.673 -0.5828 -0.0466 -0.6828
 8134TIP3   OH245892   5.021   0.688   5.913  0.6053  0.1272 -0.2796
 8134TIP3    H145893   4.949   0.714   5.855  0.6448  0.3772 -0.2186
 8134TIP3    H245894   5.071   0.624   5.863  1.0277  0.8418 -0.7768
 8135TIP3   OH245895   6.608   4.750   5.091 -0.2118 -0.1192 -0.4358
 8135TIP3    H145896   6.677   4.814   5.074  0.3456 -0.8116 -0.8656
 8135TIP3    H245897   6.604   4.698   5.010 -1.8001  0.4290 -0.7221
 8136TIP3   OH245898   6.572   1.955   3.212 -0.0129 -0.7326  0.1626
 8136TIP3    H145899   6.640   2.016   3.240  1.8748 -2.6802 -0.0320
 8136TIP3    H245900   6.530   1.927   3.294  0.3349 -0.5536  0.4053
 8137TIP3   OH245901   5.449   6.621  13.885 -0.0333  0.2890 -0.1354
 8137TIP3    H145902   5.365   6.604  13.928 -0.3315 -1.5294 -1.3812
 8137TIP3    H245903   5.504   6.548  13.910  0.5321  0.4291 -0.9685
 8138TIP3   OH245904   3.930   4.133   4.380  0.1419 -0.4386 -0.6640
 8138TIP3    H145905   3.976   4.175   4.307  0.0594 -0.2097 -0.5855
 8138TIP3    H245906   3.868   4.200   4.410  1.3469  0.0817  0.7063
 8139TIP3   OH245907   3.103   0.682  16.249  0.0308 -0.7392  0.5065
 8139TIP3    H145908   3.087   0.589  16.235  1.0814 -0.9109  0.3642
 8139TIP3    H245909   3.016   0.721  16.256 -0.4495 -1.5245 -0.8103
 8140TIP3   OH245910   4.325   4.112  15.057  0.0468  0.2326  0.2903
 8140TIP3    H145911   4.416   4.139  15.045  0.9125 -1.4826  2.4632
 8140TIP3    H245912   4.329   4.016  15.060 -1.9014  0.1227 -0.1470
 8141TIP3   OH245913   0.653   4.571  16.708 -0.3955 -0.0572 -0.6053
 8141TIP3    H145914   0.662   4.543  16.617  0.6531  1.6917 -1.0577
 8141TIP3    H245915   0.623   4.661  16.703 -0.6772 -0.0597  0.7987
 8142TIP3   OH245916   3.932   6.225   1.738 -0.2735  0.0934  0.1539
 8142TIP3    H145917   3.884   6.228   1.655 -1.1804  0.4270  0.6888
 8142TIP3    H245918   3.941   6.317   1.764 -1.2047 -0.0838  1.1221
 8143TIP3   OH245919   5.413   4.692  12.654 -0.0489  0.2473  0.4787
 8143TIP3    H145920   5.378   4.704  12.743 -0.8817 -1.5539  0.4051
 8143TIP3    H245921   5.507   4.704  12.663 -0.0372 -0.7448  1.7659
 8144TIP3   OH245922   5.640   5.953   4.520  0.3718  0.0121 -0.2808
 8144TIP3    H145923   5.548   5.979   4.523  0.2109 -0.3963 -1.3649
 8144TIP3    H245924   5.689   6.032   4.544 -0.3131 -0.1558  1.7031
 8145TIP3   OH245925   5.133   2.309   1.169 -0.5217 -0.1287 -0.2879
 8145TIP3    H145926   5.069   2.304   1.240 -2.6089  0.6831 -2.0644
 8145TIP3    H245927   5.148   2.402   1.156  0.1578 -0.2846 -0.6514
 8146TIP3   OH245928   2.336   3.840  11.420 -0.0403  0.2900 -0.1328
 8146TIP3    H145929   2.359   3.872  11.333 -2.7266  0.0420 -0.9773
 8146TIP3    H245930   2.277   3.907  11.456 -2.5071 -1.6974 -0.3276
 8147TIP3   OH245931   4.775   1.045   0.299 -0.0253 -0.0064 -0.2899
 8147TIP3    H145932   4.719   0.977   0.261 -0.9591  0.3266  0.4745
 8147TIP3    H245933   4.786   1.109   0.228 -0.4718 -0.1587 -0.4985
 8148TIP3   OH245934   0.597   3.986  12.179  0.8282 -0.6790 -0.3489
 8148TIP3    H145935   0.603   3.954  12.269  0.9755  0.7502  0.1684
 8148TIP3    H245936   0.540   3.924  12.134 -2.4066  0.6522  1.7117
 8149TIP3   OH245937   2.027   5.153   3.928 -0.2663  0.0395  0.1768
 8149TIP3    H145938   1.993   5.078   3.977 -0.5325  0.4221  0.5910
 8149TIP3    H245939   2.035   5.122   3.838  0.3349 -0.7157  0.4863
 8150TIP3   OH245940   0.490   3.189  12.201 -0.2605 -0.0827 -0.0088
 8150TIP3    H145941   0.426   3.260  12.203 -1.8580 -1.5092 -0.0670
 8150TIP3    H245942   0.502   3.165  12.293 -0.8755 -0.7601 -0.1036
 8151TIP3   OH245943   4.730   2.481   4.732  0.3440  0.3225 -0.1650
 8151TIP3    H145944   4.711   2.569   4.700  0.7730  0.1136 -0.9894
 8151TIP3    H245945   4.644   2.438   4.733  0.1050  0.7915  0.4061
 8152TIP3   OH245946   2.641   5.118  13.999 -0.4748  0.0056  0.1140
 8152TIP3    H145947   2.714   5.144  13.943 -0.9848 -0.0799 -0.5908
 8152TIP3    H245948   2.642   5.022  13.998 -0.3291  0.0029  0.4524
 8153TIP3   OH245949   1.266   2.734  14.272 -0.0087  0.0139  0.2829
 8153TIP3    H145950   1.233   2.745  14.183  1.2590  0.3934 -0.1621
 8153TIP3    H245951   1.195   2.763  14.329 -0.3970  0.8851 -0.6472
 8154TIP3   OH245952   1.913   5.895   3.712  0.9911 -0.4022  0.1759
 8154TIP3    H145953   1.902   5.807   3.748 -2.3896  0.8766  2.5899
 8154TIP3    H245954   1.967   5.941   3.775 -1.0407  0.4894  1.3341
 8155TIP3   OH245955   4.905   0.161  13.713  0.6355  0.3877  0.1841
 8155TIP3    H145956   4.836   0.162  13.647 -0.4203 -0.1921  1.2721
 8155TIP3    H245957   4.982   0.127  13.666 -1.0595 -3.7222  0.1419
 8156TIP3   OH245958   4.236   1.295   3.856 -0.0632 -0.2245  0.1445
 8156TIP3    H145959   4.196   1.209   3.867 -2.7587  0.7576 -1.5509
 8156TIP3    H245960   4.307   1.280   3.793  0.0347 -1.3459  0.5043
 8157TIP3   OH245961   1.980   5.010   6.306  0.2449  0.6257 -0.1567
 8157TIP3    H145962   1.982   4.951   6.381  0.1759 -0.9960 -1.4013
 8157TIP3    H245963   1.941   5.090   6.340  1.3510  0.3600  1.8321
 8158TIP3   OH245964   6.077   2.201  10.862  0.5661 -0.4796  0.0026
 8158TIP3    H145965   6.170   2.180  10.869  0.7144 -0.1057 -0.7821
 8158TIP3    H245966   6.073   2.274  10.800 -0.1441  0.3035  0.9415
 8159TIP3   OH245967   5.610   4.570   2.101  0.0254  0.2244 -0.0349
 8159TIP3    H145968   5.646   4.658   2.111 -0.5665  0.4957 -0.2405
 8159TIP3    H245969   5.529   4.583   2.051  0.8298 -0.6220 -1.5839
 8160TIP3   OH245970   5.024   6.198   0.178  0.2260 -0.0082  0.2313
 8160TIP3    H145971   5.106   6.188   0.130 -0.2869 -0.6741 -0.5186
 8160TIP3    H245972   4.977   6.116   0.162 -0.4392  0.2334  0.9387
 8161TIP3   OH245973   0.164   1.270   4.779 -0.0815  0.4440 -0.2887
 8161TIP3    H145974   0.079   1.311   4.768  0.7040  2.3658  0.6158
 8161TIP3    H245975   0.178   1.267   4.873  1.6711  1.9653 -0.4613
 8162TIP3   OH245976   0.820   1.602  12.490 -0.9073  0.1368 -0.2683
 8162TIP3    H145977   0.887   1.657  12.530  0.0285 -1.1304 -0.0280
 8162TIP3    H245978   0.828   1.618  12.396 -0.4440  0.2033 -0.2214
 8163TIP3   OH245979   2.005   0.895  15.585  0.4391 -0.9792 -0.2383
 8163TIP3    H145980   2.076   0.933  15.636  1.0584 -0.4980 -1.4390
 8163TIP3    H245981   1.953   0.845  15.649  0.4620  0.6395  1.0765
 8164TIP3   OH245982   5.102   4.803   1.335  0.4231 -0.3399 -0.9300
 8164TIP3    H145983   5.113   4.898   1.328  1.3888 -0.4174 -0.5159
 8164TIP3    H245984   5.184   4.767   1.301 -0.2500 -1.0513 -1.8203
 8165TIP3   OH245985   5.386   2.265  10.835  0.0936 -0.3575 -0.2832
 8165TIP3    H145986   5.452   2.280  10.767  0.5525 -0.5746  0.1103
 8165TIP3    H245987   5.342   2.184  10.808 -1.2242  0.7287 -1.4901
 8166TIP3   OH245988   0.019   5.049  17.059  0.0834  0.0707 -0.2704
 8166TIP3    H145989   0.100   5.014  17.097  0.8935  1.9936 -0.1393
 8166TIP3    H245990  -0.022   5.097  17.131 -0.4507  0.2974 -0.7269
 8167TIP3   OH245991   3.546   2.636  16.988 -0.1630 -0.1729 -0.3096
 8167TIP3    H145992   3.457   2.601  16.985 -0.3098  0.0621  0.8873
 8167TIP3    H245993   3.541   2.707  17.053  0.6645  0.5016 -0.9792
 8168TIP3   OH245994   1.211   1.679  12.337 -0.0453  0.1429 -0.1352
 8168TIP3    H145995   1.287   1.735  12.352  0.1873 -0.4255  0.8725
 8168TIP3    H245996   1.194   1.686  12.244  0.5948  1.1068 -0.1888
 8169TIP3   OH245997   2.284   2.337  16.526  0.5624 -0.4989  0.1970
 8169TIP3    H145998   2.357   2.277  16.541  2.1521  1.1000 -0.8917
 8169TIP3    H245999   2.253   2.316  16.438  0.3019 -0.5382  0.2956
 8170TIP3   OH246000   6.309   4.641  12.905  0.3855  0.0861  0.1084
 8170TIP3    H146001   6.391   4.593  12.896  0.5642  0.0889  1.6894
 8170TIP3    H246002   6.281   4.627  12.996 -1.8985 -0.7618 -0.6762
 8171TIP3   OH246003   3.338   1.744   4.734 -0.0359 -0.2124 -0.1903
 8171TIP3    H146004   3.266   1.715   4.678 -0.4738 -1.3741  0.9739
 8171TIP3    H246005   3.344   1.678   4.803  1.9367  0.0421 -0.0906
 8172TIP3   OH246006   2.025   2.274   0.775  0.6164  0.5468 -0.6745
 8172TIP3    H146007   2.074   2.211   0.721  2.3373  1.4192 -0.1737
 8172TIP3    H246008   1.934   2.246   0.768  1.3598 -2.0446 -0.4231
 8173TIP3   OH246009   6.584   5.118   0.290  0.1627  0.3699  0.4132
 8173TIP3    H146010   6.637   5.196   0.273  1.1386 -0.5992 -1.0789
 8173TIP3    H246011   6.533   5.106   0.210 -0.8292  0.1089  1.0704
 8174TIP3   OH246012   4.461   3.142   3.128  0.4577 -0.2818  0.0748
 8174TIP3    H146013   4.421   3.075   3.073  1.3972  1.6799 -3.1551
 8174TIP3    H246014   4.401   3.216   3.125  0.5334 -0.1145  1.7339
 8175TIP3   OH246015   3.091   6.489   3.469 -0.1836 -0.4064 -0.0188
 8175TIP3    H146016   3.096   6.469   3.375  0.7142  1.2441 -0.3482
 8175TIP3    H246017   3.068   6.406   3.510  0.4422 -1.3983 -1.6064
 8176TIP3   OH246018   3.190   0.046  16.084 -0.1344  0.6040  0.0522
 8176TIP3    H146019   3.269   0.033  16.136 -0.5214  0.7638  0.6750
 8176TIP3    H246020   3.120   0.011  16.138 -0.4111 -0.1109 -0.7616
 8177TIP3   OH246021   1.593   1.766  11.944  0.8715 -0.5027 -0.1918
 8177TIP3    H146022   1.632   1.819  11.875  1.9734  0.6361  1.2736
 8177TIP3    H246023   1.655   1.771  12.017 -0.3401 -1.5358  0.9429
 8178TIP3   OH246024   4.580   1.753  11.232  0.2313  0.2062 -0.5465
 8178TIP3    H146025   4.578   1.804  11.151  1.1275  0.6245 -0.3156
 8178TIP3    H246026   4.638   1.679  11.213 -0.6904 -0.4747 -0.7309
 8179TIP3   OH246027   6.771   6.128  11.999 -0.3046 -0.1930  0.6171
 8179TIP3    H146028   6.759   6.040  12.036 -0.6239 -0.5334 -0.2776
 8179TIP3    H246029   6.687   6.172  12.014 -0.2806 -0.1759  0.7030
 8180TIP3   OH246030   6.304   2.238   1.059  0.2373  0.1183  0.3335
 8180TIP3    H146031   6.251   2.207   0.985  2.0999  1.1031 -1.4606
 8180TIP3    H246032   6.282   2.331   1.066  0.1470  0.0489  0.9684
 8181TIP3   OH246033   6.776   3.058   3.720  0.4239  0.1240  0.8523
 8181TIP3    H146034   6.772   2.980   3.775  1.6620 -0.8850 -0.4420
 8181TIP3    H246035   6.793   3.130   3.781  0.3621 -0.7653  1.9331
 8182TIP3   OH246036   2.649   3.381   5.946  0.5632  0.0759 -0.0817
 8182TIP3    H146037   2.723   3.418   5.994  0.5841 -1.9097  1.4930
 8182TIP3    H246038   2.688   3.346   5.866  1.3357 -0.9272  0.7230
 8183TIP3   OH246039   4.813   0.934  17.246  0.2263 -0.4501 -0.2774
 8183TIP3    H146040   4.789   1.013  17.199  0.2517  0.2707  0.8899
 8183TIP3    H246041   4.898   0.955  17.286  0.2299 -1.0585  0.0393
 8184TIP3   OH246042   6.741   1.160   0.683  0.1345  0.2874  0.8110
 8184TIP3    H146043   6.788   1.078   0.679  0.7412  0.6363  0.7443
 8184TIP3    H246044   6.809   1.227   0.694 -0.3445  0.7826  0.8122
 8185TIP3   OH246045   4.717   3.823  14.457  0.5490 -0.1063  0.0726
 8185TIP3    H146046   4.632   3.807  14.414  1.0035  0.8533 -1.2081
 8185TIP3    H246047   4.721   3.918  14.468  0.3796 -0.3398  2.4360
 8186TIP3   OH246048   4.257   3.901  14.128  0.0695 -0.2877  0.2877
 8186TIP3    H146049   4.242   3.842  14.054 -0.0081 -1.6998  1.3981
 8186TIP3    H246050   4.311   3.971  14.092  1.2647 -1.7082 -0.7776
 8187TIP3   OH246051   0.620   2.816   5.139  0.9238 -0.2093 -0.0589
 8187TIP3    H146052   0.593   2.787   5.226  1.3908 -2.4078 -0.6184
 8187TIP3    H246053   0.712   2.841   5.151  0.5207  1.0861  0.4263
 8188TIP3   OH246054   2.309   6.785  11.341 -0.3135  0.0256 -0.1219
 8188TIP3    H146055   2.387   6.825  11.380 -0.0614 -1.4276  0.9001
 8188TIP3    H246056   2.342   6.711  11.291 -1.0434 -0.6574  0.3938
 8189TIP3   OH246057   3.522   2.658   1.402 -0.7437  0.1875  0.1709
 8189TIP3    H146058   3.480   2.744   1.401 -1.7349 -0.2854 -0.6877
 8189TIP3    H246059   3.460   2.601   1.355 -0.5601 -1.2113  1.5966
 8190TIP3   OH246060   6.618   2.637   2.591 -0.4500 -0.2630 -0.1362
 8190TIP3    H146061   6.679   2.581   2.542 -1.8490 -0.4173 -1.7265
 8190TIP3    H246062   6.675   2.703   2.631  0.8485 -0.8197 -1.0042
 8191TIP3   OH246063   5.686   4.751  12.616  0.1584 -0.7014 -0.6283
 8191TIP3    H146064   5.684   4.755  12.712 -0.6731 -1.6847 -0.5888
 8191TIP3    H246065   5.760   4.694  12.596  0.7363  0.0414 -0.5894
 8192TIP3   OH246066   4.174   3.064   3.105  0.4233 -0.4038 -0.0229
 8192TIP3    H146067   4.103   3.061   3.169 -0.2226 -1.7328 -0.7768
 8192TIP3    H246068   4.234   3.131   3.138  0.2976 -1.3517  2.1628
 8193TIP3   OH246069   6.346   4.410  15.916 -0.2189 -0.2238  0.2949
 8193TIP3    H146070   6.256   4.377  15.905 -1.2275  2.5290 -0.0140
 8193TIP3    H246071   6.361   4.462  15.837  1.4693 -0.1892  0.6352
 8194TIP3   OH246072   1.530   5.318   6.017  0.0741 -0.2956  0.4353
 8194TIP3    H146073   1.486   5.389   5.970  0.6195 -0.9559 -1.1113
 8194TIP3    H246074   1.491   5.319   6.104 -0.2032  1.6444  0.3178
 8195TIP3   OH246075   4.574   2.464   5.414 -0.8871 -0.5388 -0.0924
 8195TIP3    H146076   4.641   2.437   5.351 -1.5924 -1.4705 -0.4588
 8195TIP3    H246077   4.493   2.465   5.363 -1.1579  0.5759  0.3466
 8196TIP3   OH246078   1.921   4.954   4.358 -0.0508  0.0668  0.2984
 8196TIP3    H146079   1.981   4.881   4.374  0.9279  0.2709 -2.2220
 8196TIP3    H246080   1.958   5.027   4.407  0.1349 -0.5526  1.1019
 8197TIP3   OH246081   5.977   5.240  12.281  0.0248 -0.0909 -0.3660
 8197TIP3    H146082   6.037   5.313  12.296 -0.5282  0.6305 -1.5552
 8197TIP3    H246083   5.890   5.280  12.276 -0.2994 -0.8355 -0.9293
 8198TIP3   OH246084   4.257   4.664  16.403  0.1367  0.5229 -0.0983
 8198TIP3    H146085   4.245   4.570  16.412  0.2575  0.5672  0.5209
 8198TIP3    H246086   4.290   4.693  16.488  2.0872  0.8241 -0.9273
 8199TIP3   OH246087   2.662   1.497  15.941  0.4387  0.0427  0.2383
 8199TIP3    H146088   2.624   1.566  15.995 -0.1470  1.4775 -1.9324
 8199TIP3    H246089   2.728   1.541  15.888 -0.1643 -1.0015 -1.4046
 8200TIP3   OH246090   1.764   5.132  11.874  0.6983  0.0081  0.5285
 8200TIP3    H146091   1.830   5.160  11.937  0.2484  2.4662 -0.0537
 8200TIP3    H246092   1.791   5.172  11.792  0.1671 -1.5205 -0.4050
 8201TIP3   OH246093   2.013   2.548  13.772 -0.4276  0.0144  0.4133
 8201TIP3    H146094   1.918   2.541  13.765 -0.3747  0.3718 -0.6771
 8201TIP3    H246095   2.045   2.459  13.762 -0.5016  0.1995 -1.6717
 8202TIP3   OH246096   6.024   4.461  16.488  0.2021  0.1108  0.2311
 8202TIP3    H146097   6.043   4.376  16.448 -0.0169  0.1193  0.1082
 8202TIP3    H246098   5.997   4.517  16.415 -0.9207 -0.0819  0.4773
 8203TIP3   OH246099   4.780   1.817   4.145 -0.5704 -0.0124  0.3283
 8203TIP3    H146100   4.846   1.861   4.199 -0.8074  2.0851 -1.0235
 8203TIP3    H246101   4.697   1.853   4.176 -0.9239 -0.9792  0.5170
 8204TIP3   OH246102   1.914   4.399  14.249 -0.0635  0.2532  0.2294
 8204TIP3    H146103   1.997   4.394  14.201 -0.2634 -0.7005 -0.0086
 8204TIP3    H246104   1.912   4.489  14.283  1.7195 -0.1431  1.4239
 8205TIP3   OH246105   0.109   2.271  17.282 -0.2952 -0.0529  0.7817
 8205TIP3    H146106   0.070   2.217  17.350 -3.3128  2.4780  1.1666
 8205TIP3    H246107   0.064   2.246  17.201  0.7395 -0.5228  0.3379
 8206TIP3   OH246108   1.398   3.673   0.600  0.2505 -0.1800 -0.0899
 8206TIP3    H146109   1.418   3.766   0.612 -2.8654  0.7119 -1.3102
 8206TIP3    H246110   1.364   3.667   0.511  1.5371 -2.7217 -0.4447
 8207TIP3   OH246111   5.747   6.171   3.807 -0.2456 -0.4461  0.7192
 8207TIP3    H146112   5.732   6.190   3.900  0.2216  2.0770  0.3112
 8207TIP3    H246113   5.659   6.167   3.769 -0.3606  0.8527  0.8408
 8208TIP3   OH246114   1.086   2.952  11.396 -0.0672 -1.0078 -0.3595
 8208TIP3    H146115   1.083   3.042  11.429  1.0879 -0.5566 -1.4680
 8208TIP3    H246116   1.066   2.898  11.473  0.1498  0.1441  0.5213
 8209TIP3   OH246117   1.874   6.227   2.585  0.1243 -0.2574 -0.2450
 8209TIP3    H146118   1.825   6.174   2.522 -1.4146 -1.3306  1.7794
 8209TIP3    H246119   1.832   6.208   2.669  1.2769  2.1432  0.9127
 8210TIP3   OH246120   1.616   1.002   5.095 -0.5331  0.0394  0.0862
 8210TIP3    H146121   1.662   0.935   5.045 -0.7924  0.0614 -0.1803
 8210TIP3    H246122   1.524   0.990   5.072 -0.7777 -0.6387  1.3695
 8211TIP3   OH246123   6.807   1.692   3.115 -0.8939 -0.4791 -0.2279
 8211TIP3    H146124   6.799   1.722   3.205  0.2199 -1.9330  0.3601
 8211TIP3    H246125   6.773   1.603   3.115  0.6976 -1.1073 -0.8765
 8212TIP3   OH246126   6.544   6.586   4.627 -0.1743 -0.3091 -0.0737
 8212TIP3    H146127   6.485   6.532   4.680  1.6331 -0.8103  1.5229
 8212TIP3    H246128   6.628   6.580   4.673  0.7061  1.7109 -1.3782
 8213TIP3   OH246129   1.280   3.917   3.558  0.3614 -0.2044 -0.3268
 8213TIP3    H146130   1.370   3.947   3.544  0.6782 -0.0123  1.8276
 8213TIP3    H246131   1.290   3.829   3.594 -0.1956  0.6575  2.0392
 8214TIP3   OH246132   5.625   6.498  12.861  0.4362  0.1460  0.3126
 8214TIP3    H146133   5.552   6.534  12.912 -0.6230  0.3691 -1.3431
 8214TIP3    H246134   5.586   6.472  12.778  2.6757  2.5213 -1.5469
 8215TIP3   OH246135   1.843   1.667  12.116  0.2806  0.1333 -0.0079
 8215TIP3    H146136   1.799   1.598  12.166 -0.7889  0.7570 -0.0846
 8215TIP3    H246137   1.930   1.631  12.097 -0.6225 -1.6241 -0.9290
 8216TIP3   OH246138   3.883   1.245  17.125  0.0363  0.5654 -0.5407
 8216TIP3    H146139   3.792   1.270  17.113 -0.0274  1.0223  0.7756
 8216TIP3    H246140   3.931   1.298  17.061 -0.8233 -1.3564 -2.8315
 8217TIP3   OH246141   1.013   5.185   2.521 -0.2202  0.4646 -0.2137
 8217TIP3    H146142   1.085   5.244   2.495  0.2988 -0.0591  0.0225
 8217TIP3    H246143   1.013   5.188   2.617 -1.1151  1.1751 -0.2332
 8218TIP3   OH246144   4.455   1.943  15.052  0.3067 -0.1927  0.0845
 8218TIP3    H146145   4.527   1.884  15.030 -1.1528 -1.5570 -1.1585
 8218TIP3    H246146   4.424   1.974  14.967 -1.3863 -0.6309  0.5318
 8219TIP3   OH246147   3.546   1.773   3.091  0.2938 -0.2148 -0.2692
 8219TIP3    H146148   3.504   1.807   3.170  1.2085 -0.4622  0.3299
 8219TIP3    H246149   3.483   1.790   3.021  0.2789  1.7135  0.1869
 8220TIP3   OH246150   4.744   3.019  11.499  0.2085  0.0911 -0.5553
 8220TIP3    H146151   4.769   3.101  11.541  2.9393 -0.0159 -1.8438
 8220TIP3    H246152   4.676   3.044  11.436  0.6594  1.2736 -0.5779
 8221TIP3   OH246153   2.585   6.229   4.209  0.0656 -0.1620 -0.7080
 8221TIP3    H146154   2.529   6.232   4.131 -0.5639  1.1874 -0.2282
 8221TIP3    H246155   2.668   6.194   4.178 -0.4849 -0.5249 -1.7980
 8222TIP3   OH246156   3.195   4.320   0.337  0.5104 -0.0539 -0.0673
 8222TIP3    H146157   3.154   4.340   0.253  0.7543  1.5462  0.1816
 8222TIP3    H246158   3.288   4.342   0.324  0.4484  0.7499  0.7868
 8223TIP3   OH246159   3.762   2.012   1.123  0.3036 -0.0112  0.4933
 8223TIP3    H146160   3.801   1.930   1.151  0.1727 -0.7158 -1.3032
 8223TIP3    H246161   3.836   2.068   1.101  0.3663 -0.1887  0.2528
 8224TIP3   OH246162   2.539   5.477  13.425  0.3369  0.4929 -0.0973
 8224TIP3    H146163   2.597   5.429  13.484  0.0745 -1.9220 -1.7430
 8224TIP3    H246164   2.584   5.561  13.409  1.9611 -0.1671  0.9265
 8225TIP3   OH246165   0.770   4.014  17.136 -0.3381 -0.0705  0.2653
 8225TIP3    H146166   0.690   3.965  17.154  0.0454 -0.2943  1.3809
 8225TIP3    H246167   0.740   4.100  17.108 -0.9918 -0.5710 -0.6081
 8226TIP3   OH246168   4.851   3.416   0.925 -0.3874 -0.1821 -0.0218
 8226TIP3    H146169   4.811   3.371   0.850 -1.2232 -1.3315  1.0966
 8226TIP3    H246170   4.857   3.349   0.993  3.2438 -0.0157 -0.0508
 8227TIP3   OH246171   1.123   2.386  16.743  0.5216 -0.0113  0.6423
 8227TIP3    H146172   1.038   2.410  16.707  2.5510  4.0229 -1.7179
 8227TIP3    H246173   1.157   2.321  16.682 -1.2645 -2.5268  2.2286
 8228TIP3   OH246174   6.579   5.975  14.188 -0.0344 -0.0463 -0.9819
 8228TIP3    H146175   6.644   5.959  14.256 -2.0971  0.3583  1.1862
 8228TIP3    H246176   6.589   5.901  14.127  1.3969 -0.7907  0.1267
 8229TIP3   OH246177   6.052   3.493   3.693 -0.0834 -0.2129  0.3925
 8229TIP3    H146178   6.013   3.447   3.619 -0.5806 -0.6478  0.9085
 8229TIP3    H246179   5.998   3.465   3.768 -0.3192  1.1241  0.7231
 8230TIP3   OH246180   6.230   3.723  16.450  0.0831  0.2480 -0.8685
 8230TIP3    H146181   6.205   3.640  16.491 -1.3475  0.8377 -0.5136
 8230TIP3    H246182   6.197   3.715  16.360  0.9241 -0.0076 -1.1549
 8231TIP3   OH246183   2.883   3.798  17.054  0.3409  0.3716  0.4787
 8231TIP3    H146184   2.869   3.740  17.129 -0.9862  1.0911  0.8123
 8231TIP3    H246185   2.920   3.742  16.986  0.7103 -0.4828  1.3782
 8232TIP3   OH246186   4.158   2.852  10.935  0.6597 -0.2838  0.1145
 8232TIP3    H146187   4.206   2.794  10.994  0.0741 -0.3107  0.5701
 8232TIP3    H246188   4.222   2.876  10.867  1.2229 -0.5611  0.5432
 8233TIP3   OH246189   6.351   4.390  16.672  0.3341  0.0078  0.2373
 8233TIP3    H146190   6.351   4.434  16.587 -1.5428  1.7148  1.0768
 8233TIP3    H246191   6.340   4.297  16.651  1.5544  0.2159 -1.4387
 8234TIP3   OH246192   5.085   0.006  11.091 -0.2128  0.4925  0.3582
 8234TIP3    H146193   5.083  -0.048  11.170 -0.7630 -0.1195 -0.0714
 8234TIP3    H246194   5.124  -0.051  11.024  1.4414  1.4341  0.5019
 8235TIP3   OH246195   0.841   2.979   2.531  0.7207 -0.4534  0.0673
 8235TIP3    H146196   0.856   2.993   2.437  3.1280 -0.0901  0.4734
 8235TIP3    H246197   0.755   3.019   2.547  0.1022 -0.8541 -2.0382
 8236TIP3   OH246198   5.493   5.093  12.569 -0.0937 -0.1855  0.5374
 8236TIP3    H146199   5.477   5.088  12.663 -0.3546 -0.1933  0.4930
 8236TIP3    H246200   5.576   5.140  12.561 -0.7618  1.0624  0.7293
 8237TIP3   OH246201   0.008   6.805   1.471 -0.0547  0.3107 -0.3461
 8237TIP3    H146202   0.009   6.898   1.447 -0.0302  0.3466 -0.2086
 8237TIP3    H246203  -0.020   6.760   1.391  0.6280  0.3770 -0.6346
 8238TIP3   OH246204   2.377   2.895  11.897  0.1106  0.2545  0.1203
 8238TIP3    H146205   2.458   2.881  11.848  0.0232 -1.5782  0.4361
 8238TIP3    H246206   2.400   2.959  11.964  1.3203 -0.3162  0.2601
 8239TIP3   OH246207   2.332   4.391  16.037  0.1256 -0.6337 -0.0822
 8239TIP3    H146208   2.339   4.366  15.945 -1.3429  0.2538 -0.4546
 8239TIP3    H246209   2.413   4.360  16.077 -0.4400 -3.5495 -1.0773
 8240TIP3   OH246210   0.015   5.627  13.959 -0.2668  0.0186 -0.0189
 8240TIP3    H146211   0.012   5.549  13.905 -0.9016 -0.1756  0.2916
 8240TIP3    H246212   0.069   5.689  13.910 -0.5721 -0.2689 -0.7111
 8241TIP3   OH246213   6.650   0.982  14.319  0.1166  0.4586 -0.2743
 8241TIP3    H146214   6.632   0.963  14.227  0.2989  0.0922 -0.2331
 8241TIP3    H246215   6.650   1.078  14.324  1.3653  0.4971 -0.9038
 8242TIP3   OH246216   0.167   2.738  13.383 -0.0716  0.2062  0.1201
 8242TIP3    H146217   0.263   2.732  13.383 -0.1246 -0.6960 -0.3564
 8242TIP3    H246218   0.142   2.716  13.294 -0.7740 -0.2951  0.4447
 8243TIP3   OH246219   0.681   1.457   4.917  0.1462  0.5172  0.0796
 8243TIP3    H146220   0.704   1.547   4.896  0.7126  0.2607 -0.4176
 8243TIP3    H246221   0.590   1.448   4.890  0.4674  0.5813 -1.0234
 8244TIP3   OH246222   4.532   4.415  17.062  0.0423  0.4700  0.5490
 8244TIP3    H146223   4.611   4.375  17.026  0.4108  0.2568  1.5903
 8244TIP3    H246224   4.462   4.384  17.005  0.7331  0.8502 -0.5200
 8245TIP3   OH246225   0.336   1.291   2.932  0.3003  0.6046  0.4627
 8245TIP3    H146226   0.357   1.256   3.019  3.2669  0.4130 -0.2599
 8245TIP3    H246227   0.275   1.362   2.949 -2.2025 -1.8505  2.3600
 8246TIP3   OH246228   5.361   2.677   4.503 -0.4041  0.0825 -0.0943
 8246TIP3    H146229   5.443   2.635   4.476 -1.2626 -1.9961  0.4379
 8246TIP3    H246230   5.347   2.646   4.592 -0.2961  2.7414  0.8918
 8247TIP3   OH246231   4.198   2.925  17.081  0.3113  0.2141 -0.2697
 8247TIP3    H146232   4.173   2.881  17.163 -1.2019 -1.2284 -1.4730
 8247TIP3    H246233   4.125   2.984  17.062  1.3485  1.6777  0.1879
 8248TIP3   OH246234   1.596   4.082   5.567 -0.1416 -0.0140  0.3596
 8248TIP3    H146235   1.636   4.011   5.617 -1.0841 -1.5406 -0.9878
 8248TIP3    H246236   1.666   4.147   5.558  1.1963 -1.4046  0.4150
 8249TIP3   OH246237   1.511   5.233  14.667 -0.1381  0.4520  0.0666
 8249TIP3    H146238   1.502   5.218  14.761 -0.2922 -0.5350 -0.1006
 8249TIP3    H246239   1.421   5.238  14.634 -0.0985 -0.4341 -0.2069
 8250TIP3   OH246240   0.821   6.508   0.622  0.0904  0.2044  0.0260
 8250TIP3    H146241   0.840   6.419   0.650 -0.9231 -0.3503 -1.0018
 8250TIP3    H246242   0.904   6.555   0.630  0.8589 -1.0776 -0.3727
 8251TIP3   OH246243   1.356   1.291  15.992  0.0871 -0.0523 -0.2456
 8251TIP3    H146244   1.388   1.346  15.920 -1.6727  1.5470  0.1305
 8251TIP3    H246245   1.433   1.242  16.021  1.1047  0.2244 -2.3762
 8252TIP3   OH246246   2.071   5.872   6.019  0.0055  0.0421  0.7013
 8252TIP3    H146247   2.145   5.901   5.965  1.4359  1.1592  3.1676
 8252TIP3    H246248   2.057   5.944   6.081  0.6466 -2.5593  4.0185
 8253TIP3   OH246249   5.990   0.738  16.471  0.0053  0.0241 -0.9004
 8253TIP3    H146250   6.062   0.679  16.490 -1.0652 -0.7915  0.8173
 8253TIP3    H246251   5.927   0.722  16.541 -0.2972  3.2401 -0.3393
 8254TIP3   OH246252   3.046   2.889  15.894  0.2309  0.7064 -0.2785
 8254TIP3    H146253   3.118   2.887  15.957 -0.4225  2.9944  0.6025
 8254TIP3    H246254   3.006   2.975  15.906 -1.2209  0.3709 -2.3671
 8255TIP3   OH246255   2.985   2.184   4.954  0.3408  0.4106  0.0885
 8255TIP3    H146256   3.013   2.225   4.872  1.4130 -0.3785  0.0479
 8255TIP3    H246257   3.061   2.133   4.983 -0.3975 -0.1940  1.0089
 8256TIP3   OH246258   3.606   4.750  14.353  0.0517 -0.0799 -0.1772
 8256TIP3    H146259   3.543   4.714  14.415 -0.0031 -0.7661 -0.6355
 8256TIP3    H246260   3.597   4.845  14.364 -0.4992 -0.1820  0.3155
 8257TIP3   OH246261   2.454   0.028  12.164  0.8295  0.4112 -0.3261
 8257TIP3    H146262   2.489  -0.013  12.084  1.1555 -0.7481  0.4064
 8257TIP3    H246263   2.413   0.109  12.133  0.3911 -0.3493 -1.7571
 8258TIP3   OH246264   2.058   1.528  12.322  0.0572  0.0569  0.1623
 8258TIP3    H146265   2.005   1.492  12.392 -1.2040 -0.5388 -1.0635
 8258TIP3    H246266   2.055   1.623  12.335  1.2429 -0.1270  1.8761
 8259TIP3   OH246267   6.609   5.825   6.360  0.0615 -0.2638 -0.0122
 8259TIP3    H146268   6.687   5.771   6.347  0.7097  0.5622  0.3916
 8259TIP3    H246269   6.536   5.767   6.339  0.7763 -1.0948 -0.2351
 8260TIP3   OH246270   0.690   3.281   5.955  0.0514  0.1471 -0.3767
 8260TIP3    H146271   0.617   3.317   5.906 -0.0403 -0.7618 -0.9224
 8260TIP3    H246272   0.741   3.357   5.983 -0.1710  0.6913 -1.4570
 8261TIP3   OH246273   4.104   1.332   4.483  0.4706  0.3422  0.0431
 8261TIP3    H146274   4.065   1.418   4.468  0.1757  0.1990  0.0010
 8261TIP3    H246275   4.030   1.273   4.496  0.6915  0.3368  1.3884
 8262TIP3   OH246276   1.843   3.254   4.877 -0.7351  0.0057 -0.4594
 8262TIP3    H146277   1.774   3.195   4.845 -2.2507  1.0553  0.8358
 8262TIP3    H246278   1.852   3.320   4.808  0.7052 -1.4971 -1.7452
 8263TIP3   OH246279   3.769   6.129   3.595 -0.3111  0.2726 -0.3435
 8263TIP3    H146280   3.676   6.119   3.615 -0.0021 -1.4778  0.2371
 8263TIP3    H246281   3.798   6.042   3.568  1.1289  0.8351 -0.6635
 8264TIP3   OH246282   3.773   6.238  13.035 -0.2433 -0.3306  0.0450
 8264TIP3    H146283   3.831   6.314  13.038  0.4587 -0.9069  2.5294
 8264TIP3    H246284   3.807   6.185  12.962 -1.1859  2.0212 -2.1762
 8265TIP3   OH246285   5.932   5.163   1.370  0.1706 -0.1287 -0.0069
 8265TIP3    H146286   5.839   5.172   1.348 -0.0836 -2.8559 -0.2325
 8265TIP3    H246287   5.978   5.211   1.301 -1.1138  3.2493  1.3987
 8266TIP3   OH246288   6.197   5.086  15.592  0.8207  0.0979 -0.3640
 8266TIP3    H146289   6.234   5.019  15.650  1.4860 -0.0084 -0.9043
 8266TIP3    H246290   6.137   5.039  15.535  0.4490  0.1429 -0.0142
 8267TIP3   OH246291   2.802   2.597  14.720  0.1350  0.1313  0.3724
 8267TIP3    H146292   2.760   2.641  14.647  1.4378  0.5430 -0.1266
 8267TIP3    H246293   2.789   2.504  14.702  0.7601  0.2219 -0.5581
 8268TIP3   OH246294   3.063   5.274  15.338 -0.6125 -0.3475  0.1150
 8268TIP3    H146295   3.089   5.183  15.324  1.7346  0.3281 -0.2086
 8268TIP3    H246296   3.046   5.280  15.432 -3.4671 -1.7400 -0.2636
 8269TIP3   OH246297   0.341   6.462  16.316 -0.0980  0.3055  0.0748
 8269TIP3    H146298   0.352   6.499  16.229  0.5304  1.7265  0.7424
 8269TIP3    H246299   0.381   6.525  16.375  1.4151 -1.6642  1.2282
 8270TIP3   OH246300   2.172   4.977  17.070 -0.0421 -0.0435  0.1065
 8270TIP3    H146301   2.237   4.909  17.055  0.6754  0.8236 -0.7390
 8270TIP3    H246302   2.202   5.023  17.148  0.1806  0.1494 -0.0941
 8271TIP3   OH246303   4.959   2.822  10.309  0.1374 -0.0448 -0.6245
 8271TIP3    H146304   4.875   2.786  10.282 -0.1017 -1.0656  1.3834
 8271TIP3    H246305   4.937   2.904  10.353  0.0571 -0.8750  0.9274
 8272TIP3   OH246306   3.699   3.411   2.408 -0.5024  0.0084  0.2070
 8272TIP3    H146307   3.682   3.368   2.492  1.9594 -1.2015  0.1332
 8272TIP3    H246308   3.781   3.459   2.421 -1.7197  2.3732 -0.5958
 8273TIP3   OH246309   1.974   4.109  14.518 -0.2861  0.3769  0.9225
 8273TIP3    H146310   1.907   4.105  14.450  0.2620 -1.3163  0.4561
 8273TIP3    H246311   1.945   4.179  14.577 -3.6176 -1.7422  1.9441
 8274TIP3   OH246312   1.723   0.108   5.321  0.5305 -0.4908 -0.2924
 8274TIP3    H146313   1.643   0.107   5.375  1.4659 -0.9440  1.1151
 8274TIP3    H246314   1.705   0.044   5.252  0.4439 -2.1793  1.2250
 8275TIP3   OH246315   0.474   2.966  13.489  0.4359 -0.3732 -0.3706
 8275TIP3    H146316   0.554   3.017  13.501  1.2562 -0.9584 -3.0932
 8275TIP3    H246317   0.469   2.910  13.567 -0.5008  3.7765  2.7109
 8276TIP3   OH246318   4.869   0.023   1.003  0.2685 -0.0714 -0.2095
 8276TIP3    H146319   4.850  -0.070   1.019 -0.4594 -0.1285 -1.3272
 8276TIP3    H246320   4.864   0.032   0.908  0.8430  1.0129 -0.1433
 8277TIP3   OH246321   5.505   2.331   3.256 -0.1594  0.2859 -0.0130
 8277TIP3    H146322   5.585   2.278   3.252  0.2386  0.7636  1.2605
 8277TIP3    H246323   5.535   2.420   3.238 -0.0874  0.7453  2.2507
 8278TIP3   OH246324   3.816   1.088  14.861 -0.4343  0.0760  0.5310
 8278TIP3    H146325   3.767   1.170  14.854  0.4539  0.5444 -0.2968
 8278TIP3    H246326   3.827   1.075  14.956  0.8985  1.8184  0.6447
 8279TIP3   OH246327   4.275   4.510  15.083  0.0184 -0.0724  0.2567
 8279TIP3    H146328   4.365   4.481  15.100  0.6591  1.6901 -0.0624
 8279TIP3    H246329   4.242   4.537  15.169 -0.4151 -1.2707  0.4728
 8280TIP3   OH246330   5.027   5.163  15.356 -0.1625  0.0401 -0.0039
 8280TIP3    H146331   5.064   5.210  15.431 -0.2663  0.7686 -0.4027
 8280TIP3    H246332   5.024   5.072  15.384  1.1922  0.0924  0.3288
 8281TIP3   OH246333   1.080   1.503   3.460 -0.0125 -0.1740  0.1858
 8281TIP3    H146334   1.125   1.486   3.543  1.9684  0.2894 -0.7556
 8281TIP3    H246335   1.148   1.491   3.394 -1.9539 -2.2065 -1.5284
 8282TIP3   OH246336   5.877   1.516   3.114  0.2889 -0.3581 -0.4332
 8282TIP3    H146337   5.812   1.512   3.044 -0.1304 -0.2064 -0.0495
 8282TIP3    H246338   5.880   1.608   3.140 -0.1070 -0.5392  0.2669
 8283TIP3   OH246339   1.880   3.667   5.496  0.3806  0.6335  0.1705
 8283TIP3    H146340   1.927   3.625   5.424  1.1101  2.0662 -0.2181
 8283TIP3    H246341   1.816   3.724   5.452 -1.0114 -0.5288  0.6885
 8284TIP3   OH246342   3.672   2.560   0.426  0.0807 -0.0042  0.5314
 8284TIP3    H146343   3.706   2.575   0.337 -2.1567  0.2198 -0.3210
 8284TIP3    H246344   3.643   2.647   0.455 -0.0726 -0.2434  1.0931
 8285TIP3   OH246345   3.253   6.219   1.276 -0.1288 -0.0031  0.6578
 8285TIP3    H146346   3.288   6.147   1.328 -0.9151 -1.2766 -0.5305
 8285TIP3    H246347   3.163   6.229   1.308 -0.5916 -0.7453 -0.4072
 8286TIP3   OH246348   0.923   4.426   3.806  0.0102  0.3782 -0.9498
 8286TIP3    H146349   0.858   4.384   3.862  1.0106 -0.7673 -0.6368
 8286TIP3    H246350   0.873   4.454   3.729 -0.7109 -1.3220 -1.1321
 8287TIP3   OH246351   2.537   5.926  12.321  0.2745  0.0057 -0.2846
 8287TIP3    H146352   2.515   5.883  12.238 -0.2509 -0.5634  0.1423
 8287TIP3    H246353   2.578   6.009  12.295  1.4260 -0.8015 -1.1253
 8288TIP3   OH246354   4.119   0.204   5.351 -0.7571 -0.1587 -0.7870
 8288TIP3    H146355   4.183   0.134   5.336  0.6018  1.2568 -1.8414
 8288TIP3    H246356   4.035   0.164   5.329  0.0022 -1.4532 -1.4397
 8289TIP3   OH246357   4.919   3.731  11.254 -0.4363 -0.2533  0.1092
 8289TIP3    H146358   5.003   3.700  11.288  0.4360  1.9711  0.0764
 8289TIP3    H246359   4.942   3.784  11.178 -2.0598 -1.4951 -1.2909
 8290TIP3   OH246360   4.000   3.690  13.195  0.2082  0.1887  0.1839
 8290TIP3    H146361   4.079   3.641  13.173  0.8836  0.7886  1.1877
 8290TIP3    H246362   3.998   3.762  13.132  0.4251  0.1193  0.0959
 8291TIP3   OH246363   6.341   6.555  14.549  0.4603  0.6758  0.1371
 8291TIP3    H146364   6.318   6.621  14.615 -0.0946  0.1008  0.5231
 8291TIP3    H246365   6.353   6.474  14.598 -0.6789  0.0726 -0.5281
 8292TIP3   OH246366   6.237   6.037   2.098 -0.3138  0.0394  0.3382
 8292TIP3    H146367   6.290   6.046   2.177  0.1273  0.5065 -0.0082
 8292TIP3    H246368   6.292   6.072   2.028 -1.9263  2.6460  0.3046
 8293TIP3   OH246369   0.907   0.648  14.238  0.2406  0.9613  0.4527
 8293TIP3    H146370   0.846   0.679  14.304  0.4445  0.9193  0.6618
 8293TIP3    H246371   0.854   0.640  14.158  0.2966  2.3356  0.2645
 8294TIP3   OH246372   3.964   5.288   3.209 -0.3393 -0.8824 -0.0169
 8294TIP3    H146373   3.969   5.307   3.303 -1.4948 -2.1483  0.3209
 8294TIP3    H246374   4.052   5.257   3.187  0.3400  0.7774  0.3282
 8295TIP3   OH246375   4.928   2.615   3.162  0.3570 -0.6073 -0.3506
 8295TIP3    H146376   4.944   2.521   3.172 -2.2647 -1.0471 -0.0782
 8295TIP3    H246377   4.854   2.621   3.102  1.0612  1.3342 -1.0671
 8296TIP3   OH246378   1.993   6.449  16.738  0.0957  0.3366 -0.4335
 8296TIP3    H146379   1.955   6.368  16.771  0.0672  0.1294 -0.9696
 8296TIP3    H246380   2.013   6.430  16.647  1.7389  0.3500 -0.0953
 8297TIP3   OH246381   3.833   6.678   4.468  0.2215  0.1545 -0.4116
 8297TIP3    H146382   3.750   6.658   4.512 -0.0243  0.2641 -0.8237
 8297TIP3    H246383   3.857   6.765   4.500 -0.3584  0.5657 -1.0983
 8298TIP3   OH246384   6.179   0.268  15.260 -0.5310 -0.8425  0.8631
 8298TIP3    H146385   6.225   0.289  15.342  1.2655  1.7397 -0.7410
 8298TIP3    H246386   6.090   0.302  15.273 -0.0638  0.1518  1.4961
 8299TIP3   OH246387   1.484   5.763   0.717  0.4507  0.1671 -0.0235
 8299TIP3    H146388   1.455   5.672   0.724  0.7091  0.0260 -0.8213
 8299TIP3    H246389   1.470   5.799   0.805  1.2394 -0.9043  0.5606
 8300TIP3   OH246390   0.737   4.809  16.512  0.1563 -0.1922  0.2028
 8300TIP3    H146391   0.738   4.904  16.523  0.1563 -0.2731  0.9195
 8300TIP3    H246392   0.647   4.788  16.488 -0.1023 -0.1278  1.1146
 8301TIP3   OH246393   5.176   2.924  13.155  0.4483  0.0633 -0.1695
 8301TIP3    H146394   5.143   3.004  13.115  3.5047  1.8742  0.7477
 8301TIP3    H246395   5.180   2.944  13.249  0.9245 -1.2716  0.1018
 8302TIP3   OH246396   4.120   6.810  16.439  0.4063  0.0514  0.1246
 8302TIP3    H146397   4.129   6.858  16.357 -0.4639  0.3575  0.1978
 8302TIP3    H246398   4.175   6.732  16.427 -0.4467 -0.3890 -1.1259
 8303TIP3   OH246399   1.459   1.259  11.483  0.2331  0.1863 -0.2145
 8303TIP3    H146400   1.485   1.211  11.404 -0.4417  0.7353 -0.7822
 8303TIP3    H246401   1.390   1.206  11.522  0.0953  0.2536 -0.3660
 8304TIP3   OH246402   4.259   4.767   1.637  0.1289 -0.4199  0.5096
 8304TIP3    H146403   4.249   4.790   1.545 -1.4865 -2.8748  0.0086
 8304TIP3    H246404   4.229   4.845   1.684 -0.3072  0.3861 -1.0569
 8305TIP3   OH246405   1.999   3.768  12.337  0.1090  0.0062  0.4967
 8305TIP3    H146406   1.918   3.771  12.388  0.8219 -0.5810  1.6895
 8305TIP3    H246407   1.971   3.749  12.248 -1.2320  1.7597  0.5120
 8306TIP3   OH246408   5.584   2.780  15.045 -0.0034 -0.6530 -0.1151
 8306TIP3    H146409   5.496   2.777  15.085  0.1045 -0.8172  0.1121
 8306TIP3    H246410   5.639   2.820  15.112  0.2018 -1.0344 -0.0528
 8307TIP3   OH246411   2.929   0.312  11.140 -0.1662 -0.3981 -0.1881
 8307TIP3    H146412   2.944   0.364  11.061 -0.5568  0.0372  0.0210
 8307TIP3    H246413   3.013   0.272  11.159 -0.0521 -0.4409 -0.7852
 8308TIP3   OH246414   2.867   4.059   1.354  0.5503 -0.2722  0.5671
 8308TIP3    H146415   2.929   4.105   1.297  1.2266 -0.8873  0.7931
 8308TIP3    H246416   2.903   4.068   1.442 -0.0822  0.0136  0.8005
 8309TIP3   OH246417   5.662   3.967  13.217  0.1827  0.0543 -0.7269
 8309TIP3    H146418   5.740   3.983  13.165 -1.0826  1.0603 -2.3821
 8309TIP3    H246419   5.589   3.986  13.157 -1.3232  0.5144  1.1948
 8310TIP3   OH246420   6.094   3.443  16.507  0.5965 -0.7161 -0.8925
 8310TIP3    H146421   6.126   3.391  16.581 -0.6036  0.9221  0.8227
 8310TIP3    H246422   6.103   3.385  16.431  2.5929 -2.1517  0.3911
 8311TIP3   OH246423   6.769   0.929  12.413 -0.3889  0.1522 -0.3467
 8311TIP3    H146424   6.828   0.884  12.474  1.1469  0.2896 -1.7017
 8311TIP3    H246425   6.725   0.995  12.467  0.6262 -0.0032  0.6961
 8312TIP3   OH246426   0.719   0.457   0.469  0.6067  0.0396 -0.2671
 8312TIP3    H146427   0.716   0.371   0.511  0.1089 -0.5925 -1.5777
 8312TIP3    H246428   0.794   0.453   0.410  0.3500  0.3556 -0.6262
 8313TIP3   OH246429   1.633   5.586  13.589  0.3441 -0.2700  0.0279
 8313TIP3    H146430   1.639   5.522  13.517 -0.5156 -2.2740  1.6711
 8313TIP3    H246431   1.543   5.616  13.588  0.3923 -0.1202  0.1295
 8314TIP3   OH246432   3.638   6.524   1.595 -0.2277 -0.0037  0.0499
 8314TIP3    H146433   3.646   6.455   1.661 -1.3311  0.5682  0.7971
 8314TIP3    H246434   3.664   6.482   1.513  4.0102  0.0415  1.2649
 8315TIP3   OH246435   3.210   5.145  16.605  0.3009 -0.2461 -0.6186
 8315TIP3    H146436   3.279   5.142  16.671  1.5215 -1.5229 -1.9026
 8315TIP3    H246437   3.143   5.084  16.637  0.7974 -0.7151 -0.4706
 8316TIP3   OH246438   3.398   0.805   5.664 -0.4455 -0.3143 -0.0770
 8316TIP3    H146439   3.427   0.717   5.690 -0.1560 -0.2261 -0.1005
 8316TIP3    H246440   3.305   0.806   5.685 -0.1773 -0.1681  1.2101
 8317TIP3   OH246441   4.660   1.149   3.133  0.5470  0.1919  0.0579
 8317TIP3    H146442   4.735   1.112   3.180  0.6604  0.3574  0.0081
 8317TIP3    H246443   4.633   1.224   3.186  0.6996  0.4011 -0.1592
 8318TIP3   OH246444   6.210   2.851   2.134 -0.6547  1.0952  1.0037
 8318TIP3    H146445   6.221   2.946   2.133  0.9116  0.9399  1.0288
 8318TIP3    H246446   6.256   2.823   2.213  2.3968 -0.0137 -1.0632
 8319TIP3   OH246447   5.816   1.299   5.370  0.3773  0.3658 -0.2036
 8319TIP3    H146448   5.803   1.371   5.308  0.3158 -0.0008 -0.6208
 8319TIP3    H246449   5.878   1.333   5.434 -0.1624  1.0188 -0.0286
 8320TIP3   OH246450   2.666   3.872  13.353  0.3149 -0.1686  0.5641
 8320TIP3    H146451   2.663   3.780  13.378  0.4996 -0.4528 -0.4375
 8320TIP3    H246452   2.714   3.873  13.270 -1.1379  0.6287 -0.2873
 8321TIP3   OH246453   1.155   4.913  11.360 -0.2648  0.2649 -0.1360
 8321TIP3    H146454   1.182   4.854  11.430  0.0891 -0.8866 -1.2364
 8321TIP3    H246455   1.214   4.988  11.369  0.3657 -0.2703  0.2417
 8322TIP3   OH246456   6.407   2.274   5.242  0.3091 -0.0909  0.0899
 8322TIP3    H146457   6.322   2.310   5.219  0.7354 -0.0198 -1.4062
 8322TIP3    H246458   6.470   2.329   5.196  1.2375  0.5644  2.0855
 8323TIP3   OH246459   1.889   0.691   2.010 -0.5982  0.0749 -0.3107
 8323TIP3    H146460   1.955   0.731   1.953 -0.5923 -0.6755 -0.8387
 8323TIP3    H246461   1.937   0.665   2.088 -1.0215  3.2381  1.0900
 8324TIP3   OH246462   6.051   2.668  16.269  0.1895  0.2680 -0.2163
 8324TIP3    H146463   6.056   2.574  16.285  0.9646  0.3802  0.2466
 8324TIP3    H246464   5.974   2.679  16.213 -1.2108 -0.3873  1.5438
 8325TIP3   OH246465   0.878   0.607  11.559 -0.0563 -0.4208 -0.2552
 8325TIP3    H146466   0.836   0.616  11.473  0.6938  0.2182 -0.5650
 8325TIP3    H246467   0.968   0.583  11.539  0.3631  0.6520  0.3233
 8326TIP3   OH246468   6.005   6.143   3.692 -0.3542  0.1152  0.1458
 8326TIP3    H146469   6.049   6.136   3.777  0.0609  1.2443  0.0329
 8326TIP3    H246470   5.912   6.150   3.714 -0.4568 -1.6628  0.4073
 8327TIP3   OH246471   3.354   1.845  16.976 -0.3645  0.2600  0.1369
 8327TIP3    H146472   3.353   1.844  17.072  0.2966  1.6816  0.1768
 8327TIP3    H246473   3.431   1.897  16.954  0.0278 -0.8663 -1.1809
 8328TIP3   OH246474   6.087   4.840   3.394  0.2818 -0.3974 -0.1862
 8328TIP3    H146475   6.002   4.810   3.427 -0.1844  0.4617 -0.5774
 8328TIP3    H246476   6.113   4.909   3.456 -0.5378  1.1366 -1.5061
 8329TIP3   OH246477   5.778   1.150   2.014  0.3145 -0.2233 -0.2100
 8329TIP3    H146478   5.842   1.157   1.943 -0.1308  1.5712 -0.4501
 8329TIP3    H246479   5.810   1.211   2.081 -0.9388  0.4102 -0.1769
 8330TIP3   OH246480   1.808   3.859  11.924 -0.3208  0.0328 -0.5039
 8330TIP3    H146481   1.859   3.927  11.879 -1.4586  1.1801 -0.0964
 8330TIP3    H246482   1.731   3.847  11.868 -0.5769 -0.2604 -0.0863
 8331TIP3   OH246483   5.424   3.556  15.980 -0.2634 -0.3935 -0.1833
 8331TIP3    H146484   5.409   3.635  16.031  0.3178  1.0085 -2.1468
 8331TIP3    H246485   5.516   3.561  15.954 -0.3462 -1.4920 -0.7387
 8332TIP3   OH246486   6.595   1.862   0.981 -0.0326  0.2976 -0.5414
 8332TIP3    H146487   6.646   1.783   0.963  0.2874  0.1437  0.9716
 8332TIP3    H246488   6.659   1.933   0.983 -0.2304  0.4983 -1.2383
 8333TIP3   OH246489   5.577   5.802  16.826  0.3062  0.4518  0.1180
 8333TIP3    H146490   5.645   5.782  16.761  0.0538  0.9237 -0.2889
 8333TIP3    H246491   5.564   5.896  16.819 -0.7651  0.2876 -0.1674
 8334TIP3   OH246492   0.821   5.546   4.825  0.0501 -0.2483  0.0181
 8334TIP3    H146493   0.858   5.461   4.849 -3.2775 -1.4352  1.2130
 8334TIP3    H246494   0.840   5.602   4.901  1.1413 -0.2633 -0.2387
 8335TIP3   OH246495   0.469   3.769  11.751 -0.4305 -0.1194 -0.0901
 8335TIP3    H146496   0.473   3.742  11.659 -0.0201 -1.7613  0.3803
 8335TIP3    H246497   0.442   3.689  11.798  0.8697  0.2828  1.3863
 8336TIP3   OH246498   3.303   5.841  11.272 -0.9200  0.4244 -0.1247
 8336TIP3    H146499   3.262   5.873  11.352 -0.3986  0.7013  0.0392
 8336TIP3    H246500   3.386   5.804  11.301 -1.1057 -0.2296 -0.4378
 8337TIP3   OH246501   2.295   3.791   5.006  0.2570  0.5840 -0.1473
 8337TIP3    H146502   2.201   3.784   5.023  0.5844  0.1858  1.6198
 8337TIP3    H246503   2.317   3.710   4.958 -0.2461  0.5498 -0.3228
 8338TIP3   OH246504   2.967   3.691  16.777  0.6335 -0.0358  0.8068
 8338TIP3    H146505   3.054   3.694  16.737  0.5744 -0.4437  0.6378
 8338TIP3    H246506   2.915   3.635  16.718 -0.1905  1.4934  0.0551
 8339TIP3   OH246507   2.705   5.409  13.649  0.0970 -0.0806 -0.1948
 8339TIP3    H146508   2.767   5.473  13.684 -0.3087 -0.2397  0.8089
 8339TIP3    H246509   2.748   5.324  13.664  0.8815 -0.0305 -2.0111
 8340TIP3   OH246510   3.986   4.610   2.006 -0.4495 -0.7611  0.2102
 8340TIP3    H146511   3.899   4.574   2.022  0.1744 -1.7719  1.3656
 8340TIP3    H246512   4.009   4.580   1.919 -1.0273 -0.9312  0.1123
 8341TIP3   OH246513   0.499   1.929   1.014 -0.1336 -0.5096 -0.2967
 8341TIP3    H146514   0.558   1.948   0.941  0.9998  1.4641  1.0954
 8341TIP3    H246515   0.414   1.962   0.985  0.2153 -0.1157 -0.8990
 8342TIP3   OH246516   3.205   3.033  16.871  0.0435 -0.5521  0.0405
 8342TIP3    H146517   3.217   3.081  16.789 -1.0868 -2.1670 -1.0887
 8342TIP3    H246518   3.229   3.096  16.939  0.3979  1.0046 -1.4886
 8343TIP3   OH246519   0.298   6.792   0.344 -0.4806  0.1142 -0.4704
 8343TIP3    H146520   0.308   6.868   0.401  0.7850 -0.9377  0.7437
 8343TIP3    H246521   0.223   6.745   0.381 -0.6098  0.2297 -0.5869
 8344TIP3   OH246522   6.350   1.810   0.152 -0.0400 -0.0480  0.0944
 8344TIP3    H146523   6.311   1.786   0.236  0.8558 -0.3523  0.4302
 8344TIP3    H246524   6.275   1.818   0.093 -0.6802  0.1456  0.9070
 8345TIP3   OH246525   2.994   5.992   4.835 -0.1662 -0.4591 -0.0814
 8345TIP3    H146526   3.014   6.041   4.756  0.6644 -1.4924 -0.5169
 8345TIP3    H246527   3.077   5.985   4.881 -1.0281  1.9972  1.9816
 8346TIP3   OH246528   6.216   2.843   4.881 -0.0550 -0.1899  0.5235
 8346TIP3    H146529   6.159   2.915   4.856 -0.4032 -0.5767  0.2059
 8346TIP3    H246530   6.294   2.854   4.827  0.2070  0.3805  1.0117
 8347TIP3   OH246531   2.384   0.677  16.615 -0.0484 -0.2335  0.5021
 8347TIP3    H146532   2.445   0.737  16.573 -0.5127  0.6092  1.0036
 8347TIP3    H246533   2.419   0.590  16.598  1.3663  0.2479  0.8969
 8348TIP3   OH246534   3.426   6.252   1.051 -0.0687 -0.2555  0.6137
 8348TIP3    H146535   3.368   6.301   0.993  1.0637  1.2150  0.6808
 8348TIP3    H246536   3.370   6.223   1.123 -0.9564  0.0968  0.0729
 8349TIP3   OH246537   4.167   1.449  15.535 -0.0943  0.1858  0.4714
 8349TIP3    H146538   4.161   1.367  15.485 -1.3157  0.2027  0.5739
 8349TIP3    H246539   4.206   1.512  15.474  0.2463 -0.3062  0.1840
 8350TIP3   OH246540   4.975   1.672  13.415  0.2800  0.6765 -0.1770
 8350TIP3    H146541   5.011   1.617  13.346 -0.7893  1.5813 -1.4737
 8350TIP3    H246542   4.915   1.614  13.462 -1.4946  0.9375 -2.0715
 8351TIP3   OH246543   4.071   1.535   5.093 -0.2006  0.3443 -0.3132
 8351TIP3    H146544   4.085   1.454   5.045 -0.5388  0.5897 -0.8301
 8351TIP3    H246545   4.045   1.508   5.181 -0.8594 -0.1015 -0.6455
 8352TIP3   OH246546   2.351   0.432   0.606 -0.0773  0.1521  0.3109
 8352TIP3    H146547   2.350   0.475   0.521  0.2945 -0.7601 -0.1614
 8352TIP3    H246548   2.351   0.504   0.669  1.3429  0.8679 -0.4633
 8353TIP3   OH246549   1.268   4.612  13.695 -0.1219  0.0157  0.0825
 8353TIP3    H146550   1.306   4.605  13.782  1.2875 -0.4607 -0.5694
 8353TIP3    H246551   1.174   4.627  13.712  0.1701  0.1917  1.6668
 8354TIP3   OH246552   0.321   1.394   4.180  0.0993 -0.0345  0.5895
 8354TIP3    H146553   0.244   1.368   4.230  0.3617 -1.5184  0.2689
 8354TIP3    H246554   0.382   1.429   4.244 -0.0627 -0.7337  1.1250
 8355TIP3   OH246555   3.566   3.887   6.673 -0.5411 -0.6428 -0.4750
 8355TIP3    H146556   3.637   3.897   6.610 -0.9499 -1.2939 -1.0493
 8355TIP3    H246557   3.605   3.910   6.758  0.2460 -0.6208 -0.8441
 8356TIP3   OH246558   1.029   6.088   2.887 -0.1186  0.3088 -0.4860
 8356TIP3    H146559   1.082   6.079   2.967 -0.1209  0.2541 -0.4905
 8356TIP3    H246560   0.941   6.065   2.914 -0.1900  0.6545 -0.4178
 8357TIP3   OH246561   0.393   0.297   3.167  0.1525  0.3655  0.4687
 8357TIP3    H146562   0.447   0.356   3.219  0.0950  1.2580 -0.4686
 8357TIP3    H246563   0.455   0.231   3.134  0.4266  0.5923  0.5302
 8358TIP3   OH246564   4.791   1.612   5.367 -0.1741 -0.2155 -0.1397
 8358TIP3    H146565   4.704   1.649   5.380 -0.0220  0.4109 -0.8630
 8358TIP3    H246566   4.780   1.548   5.298  0.4497  1.8576 -2.2377
 8359TIP3   OH246567   4.936   2.472  13.944  0.8691 -0.1859 -0.2558
 8359TIP3    H146568   4.971   2.421  13.871 -0.0341  0.5702 -1.2425
 8359TIP3    H246569   5.010   2.482  14.004  1.6466 -0.7764 -1.0978
 8360TIP3   OH246570   6.057   3.431   6.310 -0.6775 -0.9738  0.7256
 8360TIP3    H146571   6.051   3.422   6.405 -4.0118 -1.3625  0.5378
 8360TIP3    H246572   5.970   3.459   6.283 -0.3288 -2.6951 -2.4195
 8361TIP3   OH246573   3.475   6.223   6.166 -0.3489 -0.2782  0.1416
 8361TIP3    H146574   3.415   6.261   6.103 -0.4674  0.4684  0.6937
 8361TIP3    H246575   3.561   6.227   6.124 -0.4950 -0.1918 -0.1464
 8362TIP3   OH246576   3.712   0.184  12.228  0.3651 -0.2122  0.3754
 8362TIP3    H146577   3.679   0.229  12.150 -2.0149 -0.9888  0.9051
 8362TIP3    H246578   3.758   0.107  12.194  0.4554  0.1434 -0.3174
 8363TIP3   OH246579   3.762   2.029   6.012 -0.6180 -0.2430 -0.1075
 8363TIP3    H146580   3.793   2.073   5.933  0.0123 -0.3443  0.0786
 8363TIP3    H246581   3.832   1.968   6.034 -2.0040 -2.2642 -1.0829
 8364TIP3   OH246582   0.661   1.765   2.945  0.0353 -0.4039 -0.0328
 8364TIP3    H146583   0.602   1.839   2.962 -1.1092 -1.0659 -0.9852
 8364TIP3    H246584   0.602   1.694   2.918  1.3046 -0.9505 -1.4196
 8365TIP3   OH246585   0.721   1.420  11.250  0.3896 -0.1102  0.2411
 8365TIP3    H146586   0.663   1.404  11.176  1.0696  0.2293 -0.3773
 8365TIP3    H246587   0.705   1.511  11.273  0.0724 -0.2597  0.5999
 8366TIP3   OH246588   3.139   4.836   4.576  0.2399 -0.4379 -0.0039
 8366TIP3    H146589   3.117   4.889   4.652 -0.7151  1.4499 -1.5516
 8366TIP3    H246590   3.089   4.875   4.504  2.5430 -1.0128 -1.9846
 8367TIP3   OH246591   2.200   0.748   5.485  0.2195 -0.3611  0.1652
 8367TIP3    H146592   2.214   0.834   5.445  2.8153 -1.3851 -1.2746
 8367TIP3    H246593   2.223   0.760   5.577  0.4650  0.5195 -0.0063
 8368TIP3   OH246594   0.392   2.551   0.652 -0.4424 -0.0597  0.4384
 8368TIP3    H146595   0.422   2.586   0.736 -0.3530 -0.9368  0.7711
 8368TIP3    H246596   0.448   2.593   0.587 -1.8135  2.1739  0.6254
 8369TIP3   OH246597   3.289   5.655  14.023 -0.4822  0.3098 -0.3623
 8369TIP3    H146598   3.381   5.659  14.047 -0.3268 -1.4109 -0.6177
 8369TIP3    H246599   3.244   5.709  14.089  0.3516 -1.3411  1.6175
 8370TIP3   OH246600   1.786   2.559  14.113 -0.3339  0.5184  0.6377
 8370TIP3    H146601   1.725   2.486  14.099  0.2712 -0.1016  1.2465
 8370TIP3    H246602   1.745   2.633  14.066 -1.2720 -0.0329  0.5712
 8371TIP3   OH246603   4.393   0.808   6.198  0.8031 -0.2682 -0.7340
 8371TIP3    H146604   4.298   0.810   6.187  0.6232  2.6361  0.9618
 8371TIP3    H246605   4.408   0.744   6.267  0.2680 -2.1626 -2.3286
 8372TIP3   OH246606   1.674   2.810   4.152 -0.5559  0.1083  0.3754
 8372TIP3    H146607   1.661   2.717   4.170 -0.5689  0.4459  2.2584
 8372TIP3    H246608   1.731   2.812   4.076  0.5662 -1.4699  1.1404
 8373TIP3   OH246609   0.260   6.674   0.017  0.7857  0.0492 -0.6282
 8373TIP3    H146610   0.228   6.626   0.093  1.7765  0.1525 -0.1328
 8373TIP3    H246611   0.242   6.766   0.038  1.7818  0.1486 -0.1404
 8374TIP3   OH246612   0.612   5.588   2.120 -0.0928 -0.0208  0.0379
 8374TIP3    H146613   0.574   5.520   2.176  1.4640 -1.0523 -0.1320
 8374TIP3    H246614   0.597   5.557   2.031  1.2074 -0.4861 -0.0312
 8375TIP3   OH246615   2.237   5.160  16.764  0.1100  0.4623  0.0748
 8375TIP3    H146616   2.157   5.151  16.816 -0.5423  1.3402 -0.7446
 8375TIP3    H246617   2.208   5.146  16.673  1.4948 -2.5577  0.0443
 8376TIP3   OH246618   5.671   6.697  12.116  0.3094 -0.7017 -0.1975
 8376TIP3    H146619   5.632   6.631  12.058  2.7986 -0.9185 -1.7116
 8376TIP3    H246620   5.692   6.770  12.058 -0.1085  0.3984  1.0215
 8377TIP3   OH246621   2.955   0.683  16.486 -0.3397 -0.0145 -0.0667
 8377TIP3    H146622   2.893   0.728  16.428 -1.6231 -1.3049  0.2664
 8377TIP3    H246623   2.997   0.753  16.536 -1.5940  0.8799 -0.2409
 8378TIP3   OH246624   3.653   4.750   3.976  0.2655  0.5125 -0.0822
 8378TIP3    H146625   3.660   4.665   4.020  0.6858  0.5812 -0.0189
 8378TIP3    H246626   3.595   4.732   3.901  1.0720 -0.0465 -0.5842
 8379TIP3   OH246627   5.543   0.849  11.849  0.1124 -0.3377  0.0315
 8379TIP3    H146628   5.477   0.919  11.845 -0.2717 -0.7465 -1.3745
 8379TIP3    H246629   5.626   0.894  11.863 -0.3944  0.2357  1.1718
 8380TIP3   OH246630   3.413   3.535  14.042 -0.3901  0.2690 -0.5911
 8380TIP3    H146631   3.433   3.459  13.987  1.1062  0.1267  0.1457
 8380TIP3    H246632   3.421   3.610  13.982  0.7628  0.0738 -0.6889
 8381TIP3   OH246633   0.395   4.852   4.040  0.3366 -0.1668 -0.0628
 8381TIP3    H146634   0.339   4.928   4.022  1.7929  1.2485  1.2126
 8381TIP3    H246635   0.414   4.816   3.953 -0.6625  0.6992 -0.6622
 8382TIP3   OH246636   5.440   3.034   0.857  0.5174 -0.3990 -0.0199
 8382TIP3    H146637   5.382   3.059   0.929  1.5723 -0.5776  0.8895
 8382TIP3    H246638   5.391   2.966   0.810 -0.6810  0.5502 -0.1864
 8383TIP3   OH246639   5.410   3.362  15.180 -0.0148  0.2744  0.2257
 8383TIP3    H146640   5.435   3.270  15.174  0.1608  0.3392 -0.0209
 8383TIP3    H246641   5.331   3.368  15.126 -0.4441  0.1151  0.8341
 8384TIP3   OH246642   1.266   3.368   5.327 -0.1254  0.0960  0.1251
 8384TIP3    H146643   1.276   3.293   5.268  0.5721  0.5350 -0.3261
 8384TIP3    H246644   1.217   3.432   5.275 -0.8856 -0.1121  0.5759
 8385TIP3   OH246645   2.621   5.493   2.631 -0.1910 -0.2856 -0.4173
 8385TIP3    H146646   2.626   5.536   2.545  0.8688 -0.7932 -0.6234
 8385TIP3    H246647   2.564   5.417   2.616 -1.6490  0.7496 -0.1753
 8386TIP3   OH246648   6.161   0.874   1.877 -0.4655  0.2654 -0.5441
 8386TIP3    H146649   6.219   0.804   1.848 -2.6078 -2.3615  1.2584
 8386TIP3    H246650   6.172   0.877   1.972 -1.2196  1.6383 -0.4811
 8387TIP3   OH246651   3.337   1.942  14.099  0.0346  0.3613  0.8390
 8387TIP3    H146652   3.394   1.989  14.038  2.4598 -1.9934  1.2207
 8387TIP3    H246653   3.384   1.946  14.182 -0.4786 -1.3990  1.2190
 8388TIP3   OH246654   0.813   0.179  15.366 -0.3088 -0.3057  0.1729
 8388TIP3    H146655   0.837   0.208  15.454 -1.2078 -0.8526  0.6084
 8388TIP3    H246656   0.731   0.225  15.348 -0.6538 -0.9667  0.0374
 8389TIP3   OH246657   0.276   0.506   0.621  0.2317  1.0999 -0.0570
 8389TIP3    H146658   0.293   0.482   0.530  0.4060  3.8532 -0.8166
 8389TIP3    H246659   0.359   0.492   0.666 -0.0703 -1.0384 -0.1107
 8390TIP3   OH246660   5.012   6.319  11.736 -0.1719 -0.2202  0.1428
 8390TIP3    H146661   5.087   6.262  11.725 -0.1554 -0.3052  0.6966
 8390TIP3    H246662   5.048   6.403  11.765 -0.5355 -1.2300  3.6691
 8391TIP3   OH246663   1.723   3.514   5.196 -0.0393  0.1686 -0.5583
 8391TIP3    H146664   1.793   3.575   5.219 -1.6638  1.1393  2.0462
 8391TIP3    H246665   1.768   3.429   5.185  1.9944  1.4385 -2.5142
 8392TIP3   OH246666   0.556   0.837   1.779  0.7399  0.0813  0.3033
 8392TIP3    H146667   0.570   0.778   1.852  0.1571  0.3437  0.6252
 8392TIP3    H246668   0.468   0.817   1.748  1.1142 -0.2706 -0.5474
 8393TIP3   OH246669   4.115   2.315   3.993  0.0415  0.1545 -0.4370
 8393TIP3    H146670   4.166   2.242   3.958  1.9771  2.1281 -1.9181
 8393TIP3    H246671   4.111   2.299   4.087  0.3594 -1.8950 -0.7636
 8394TIP3   OH246672   1.739   1.555  14.948 -0.3738  0.0484  0.0718
 8394TIP3    H146673   1.778   1.483  14.898 -0.2507 -1.5364  2.3575
 8394TIP3    H246674   1.814   1.601  14.986 -0.5312  0.0734  0.3537
 8395TIP3   OH246675   0.536   4.780  14.479  0.3019 -0.0093  0.3449
 8395TIP3    H146676   0.618   4.741  14.448  2.1000  1.6294  2.8518
 8395TIP3    H246677   0.555   4.873  14.488 -1.6111  0.3037  1.5996
 8396TIP3   OH246678   2.405   5.787  17.089 -0.3950 -0.0605  0.6112
 8396TIP3    H146679   2.384   5.725  17.019 -1.7276  0.8211  0.2220
 8396TIP3    H246680   2.348   5.761  17.161 -1.4278  1.1096  0.2271
 8397TIP3   OH246681   2.319   6.206  11.189 -0.5744  0.0890  0.4225
 8397TIP3    H146682   2.256   6.258  11.139  1.0495 -0.3005 -2.1229
 8397TIP3    H246683   2.288   6.116  11.180  0.0491 -0.0439 -0.3678
 8398TIP3   OH246684   1.655   3.359   0.027  0.2000 -0.0638  0.1459
 8398TIP3    H146685   1.576   3.316   0.059  1.1085 -1.5169  0.4600
 8398TIP3    H246686   1.707   3.376   0.105  0.6937 -0.1061 -0.1725
 8399TIP3   OH246687   3.170   3.452  16.800  0.0896 -0.4139  0.1878
 8399TIP3    H146688   3.140   3.542  16.791  0.5124 -0.3050 -0.1158
 8399TIP3    H246689   3.212   3.449  16.887  1.0777 -0.0286 -0.2634
 8400TIP3   OH246690   5.605   3.245  11.868  0.3606 -0.6177 -0.2111
 8400TIP3    H146691   5.599   3.259  11.962  2.4356 -1.2697  0.0320
 8400TIP3    H246692   5.543   3.174  11.851  0.2617 -0.7562  0.7129
 8401TIP3   OH246693   0.975   5.517   0.382  0.3298 -0.1275  0.4108
 8401TIP3    H146694   1.033   5.517   0.307 -1.6076  1.7237 -1.1588
 8401TIP3    H246695   0.890   5.491   0.347 -0.2925 -0.6417  2.2243
 8402TIP3   OH246696   2.276   0.937   1.952  0.1891 -0.5078  0.0766
 8402TIP3    H146697   2.277   0.852   1.996 -0.4599 -0.6940 -0.2637
 8402TIP3    H246698   2.273   1.000   2.024 -3.2017 -0.8501  0.3316
 8403TIP3   OH246699   3.676   4.145  11.290 -0.2505 -0.6593  0.3803
 8403TIP3    H146700   3.698   4.061  11.250  0.4445  0.0199 -0.6904
 8403TIP3    H246701   3.666   4.206  11.216  3.9685  1.3168  1.2889
 8404TIP3   OH246702   6.262   1.646  12.254  0.2235 -0.6723  0.6688
 8404TIP3    H146703   6.264   1.600  12.338  1.1181 -0.7667  0.5973
 8404TIP3    H246704   6.320   1.596  12.197 -1.2227 -1.2352 -0.3494
 8405TIP3   OH246705   2.371   5.414   1.787 -0.0498 -0.5690  0.1797
 8405TIP3    H146706   2.360   5.411   1.882  0.7939  0.2226  0.2997
 8405TIP3    H246707   2.382   5.322   1.762 -1.6370 -0.9175  0.6734
 8406TIP3   OH246708   2.205   4.593   2.286  0.1730 -0.3379  0.3534
 8406TIP3    H146709   2.256   4.557   2.213 -0.7429  0.5226 -0.7092
 8406TIP3    H246710   2.189   4.517   2.343  0.6257 -1.0719 -0.4848
 8407TIP3   OH246711   3.601   4.275  14.422  0.6594 -0.1970  0.3655
 8407TIP3    H146712   3.612   4.363  14.458  2.0794 -0.1780 -0.0981
 8407TIP3    H246713   3.677   4.226  14.454  0.6521 -0.8518 -0.6014
 8408TIP3   OH246714   1.558   3.391  16.580  0.1765  0.1064  0.7507
 8408TIP3    H146715   1.534   3.390  16.487 -1.2541 -1.8774  1.1169
 8408TIP3    H246716   1.639   3.341  16.585  1.0507  1.4795  0.3710
 8409TIP3   OH246717   0.519   1.834   4.696  0.2234  0.2132  0.1612
 8409TIP3    H146718   0.451   1.831   4.629  0.8215  1.7036 -0.5322
 8409TIP3    H246719   0.564   1.917   4.681  0.1898  0.6982  2.6055
 8410TIP3   OH246720   4.898   1.674  14.475  0.4432  0.1288 -0.2253
 8410TIP3    H146721   4.926   1.748  14.528  2.4506 -0.1156 -0.9102
 8410TIP3    H246722   4.881   1.604  14.538  0.5003  0.5506  0.2656
 8411TIP3   OH246723   5.599   1.793  11.862  0.5517 -0.4390 -0.3922
 8411TIP3    H146724   5.677   1.746  11.893 -0.1841 -1.9540 -0.7962
 8411TIP3    H246725   5.620   1.817  11.771  0.6710 -0.5834 -0.4026
 8412TIP3   OH246726   4.452   2.942  15.254  0.3784 -0.2246  0.1823
 8412TIP3    H146727   4.388   2.871  15.257  0.0526  0.1184  1.8290
 8412TIP3    H246728   4.409   3.011  15.203  0.0761 -0.6254 -0.1057
 8413TIP3   OH246729   5.736   5.892  15.645 -0.1468 -0.3251  0.5245
 8413TIP3    H146730   5.664   5.849  15.692 -0.6761  0.5144  0.5028
 8413TIP3    H246731   5.729   5.984  15.670 -0.5715  0.1763 -1.3664
 8414TIP3   OH246732   2.181   5.629   6.123 -0.1448 -0.3657  0.8185
 8414TIP3    H146733   2.129   5.706   6.099  2.2677  1.1829  0.4099
 8414TIP3    H246734   2.173   5.624   6.218  1.8728  2.0750  1.1848
 8415TIP3   OH246735   0.092   0.520  12.305 -0.5677 -0.0305  0.1776
 8415TIP3    H146736   0.182   0.550  12.287 -0.6093 -0.2776 -0.4580
 8415TIP3    H246737   0.104   0.435  12.347 -0.5051 -0.1001  0.0199
 8416TIP3   OH246738   2.836   2.508   0.554 -0.1741 -0.4844 -0.4953
 8416TIP3    H146739   2.742   2.518   0.537 -0.5137 -0.0997  1.5259
 8416TIP3    H246740   2.872   2.595   0.540 -0.5154 -0.0795  1.0480
 8417TIP3   OH246741   1.537   0.396  16.036  0.1545 -0.1347 -0.7470
 8417TIP3    H146742   1.533   0.300  16.030 -0.4757 -0.1649  0.1761
 8417TIP3    H246743   1.499   0.426  15.953 -1.7184 -0.6557 -0.1011
 8418TIP3   OH246744   0.960   3.742  11.277 -0.0536  0.0612 -0.0799
 8418TIP3    H146745   0.892   3.729  11.343 -0.1596  1.6069  0.1429
 8418TIP3    H246746   0.959   3.836  11.260  1.6399  0.0261 -0.4922
 8419TIP3   OH246747   0.977   6.697  11.935 -0.2892  0.8178  0.1616
 8419TIP3    H146748   1.032   6.661  11.866 -1.0307 -1.7819  0.8707
 8419TIP3    H246749   0.889   6.696  11.899 -1.1036 -3.0487  1.9631
 8420TIP3   OH246750   1.510   2.108   1.622  0.4875  0.4231 -0.0050
 8420TIP3    H146751   1.465   2.155   1.692  0.7761 -1.8904  1.8009
 8420TIP3    H246752   1.443   2.050   1.585  0.7933  0.3560 -0.4638
 8421TIP3   OH246753   3.002   5.682  16.339  0.6504  0.1467 -0.6331
 8421TIP3    H146754   3.041   5.599  16.311 -1.6238 -2.1312  2.6083
 8421TIP3    H246755   3.070   5.723  16.392  1.2410 -0.3718 -0.9802
 8422TIP3   OH246756   2.390   0.805  15.952 -0.2604  0.0206 -0.2230
 8422TIP3    H146757   2.475   0.760  15.957 -0.6802 -0.8068 -0.4952
 8422TIP3    H246758   2.329   0.738  15.921 -1.1131  0.4798  0.4318
 8423TIP3   OH246759   0.815   2.246   4.493  0.4285  0.0477 -0.8832
 8423TIP3    H146760   0.821   2.276   4.402 -1.9945  0.8739 -0.8101
 8423TIP3    H246761   0.748   2.178   4.491  1.3126 -0.8773  0.0859
 8424TIP3   OH246762   5.778   5.626  10.696  0.2534  0.4335  0.8443
 8424TIP3    H146763   5.756   5.694  10.759 -2.0543  0.6453 -0.1591
 8424TIP3    H246764   5.719   5.553  10.715  0.9118 -0.2900  0.2255
 8425TIP3   OH246765   3.304   3.647  16.959 -0.0991  0.2300  0.2932
 8425TIP3    H146766   3.383   3.654  17.012 -0.7184 -1.4722  1.4835
 8425TIP3    H246767   3.260   3.732  16.970  0.9382  0.7277  0.6268
 8426TIP3   OH246768   0.509   3.682  13.383 -0.3960  0.1053 -0.2514
 8426TIP3    H146769   0.461   3.608  13.421  1.2199 -0.5292  0.5923
 8426TIP3    H246770   0.600   3.653  13.383  0.0223  1.3849 -1.6293
 8427TIP3   OH246771   1.053   6.589   2.945 -0.8218 -0.2625 -0.0909
 8427TIP3    H146772   1.083   6.533   3.016  0.1553 -0.5411 -0.7074
 8427TIP3    H246773   1.007   6.529   2.886 -0.4345 -0.2856 -0.3726
 8428TIP3   OH246774   4.450   4.222   4.004 -0.6893 -0.0445 -0.1838
 8428TIP3    H146775   4.486   4.280   4.071  1.0652 -1.0900 -0.1711
 8428TIP3    H246776   4.440   4.137   4.047 -0.3818 -0.5016 -0.9839
 8429TIP3   OH246777   3.747   2.388  16.421 -0.4296 -1.3248 -0.1482
 8429TIP3    H146778   3.749   2.293  16.420  0.7711 -1.2888 -1.6059
 8429TIP3    H246779   3.786   2.415  16.338 -0.6153  0.4445  0.3030
 8430TIP3   OH246780   3.479   2.881   5.118  0.2863 -0.6293  0.0844
 8430TIP3    H146781   3.505   2.881   5.026  1.7609 -0.4035  0.4989
 8430TIP3    H246782   3.538   2.943   5.160 -1.1943  0.2220  0.9701
 8431TIP3   OH246783   0.259   2.144  14.077 -0.2723  0.3069 -0.0739
 8431TIP3    H146784   0.338   2.108  14.037 -0.6964 -0.4565 -0.2366
 8431TIP3    H246785   0.244   2.090  14.154 -0.6999  0.3763 -0.1060
 8432TIP3   OH246786   6.433   4.943  16.735 -0.4129 -0.3264 -0.6062
 8432TIP3    H146787   6.400   5.029  16.760  1.7774  1.1561 -2.5763
 8432TIP3    H246788   6.504   4.925  16.796  0.4248  0.1960 -1.4041
 8433TIP3   OH246789   5.950   5.773   5.174 -0.1274  0.1218  0.3542
 8433TIP3    H146790   6.038   5.781   5.136  1.2917 -1.8761  3.0168
 8433TIP3    H246791   5.933   5.679   5.175 -2.2171  0.4759  0.1389
 8434TIP3   OH246792   3.739   3.905  11.225  0.0591  0.1735 -0.7831
 8434TIP3    H146793   3.830   3.883  11.206  0.7932  2.7208 -0.4253
 8434TIP3    H246794   3.692   3.881  11.145  1.2570  0.1009 -1.4846
 8435TIP3   OH246795   3.392   2.172  15.673  0.1419  0.4161 -0.0280
 8435TIP3    H146796   3.407   2.149  15.764 -0.3366 -1.8531 -0.5010
 8435TIP3    H246797   3.297   2.168  15.662  0.2817 -0.7002 -0.9555
 8436TIP3   OH246798   3.778   3.866  14.335  0.0393  0.5601 -0.2199
 8436TIP3    H146799   3.775   3.774  14.307  0.6893  0.8460 -1.2665
 8436TIP3    H246800   3.871   3.882  14.354 -0.0018  1.1260 -0.4868
 8437TIP3   OH246801   2.122   1.728   5.685  0.0356 -0.0159  0.3228
 8437TIP3    H146802   2.116   1.663   5.755 -2.9370 -1.1854 -0.9364
 8437TIP3    H246803   2.216   1.735   5.666  0.3786 -4.6262 -0.1539
 8438TIP3   OH246804   1.576   3.445   2.880 -0.2018 -0.2567  0.0223
 8438TIP3    H146805   1.629   3.365   2.874  1.7418  0.9040  1.2545
 8438TIP3    H246806   1.487   3.413   2.893  0.5850 -2.2332  0.8440
 8439TIP3   OH246807   5.484   5.929  15.261 -0.3678  0.0078  0.2690
 8439TIP3    H146808   5.552   5.977  15.214 -0.0266 -0.3203  0.4283
 8439TIP3    H246809   5.504   5.837  15.246  0.4570 -0.1234  2.0695
 8440TIP3   OH246810   2.436   6.014  14.199 -0.1009  0.1222 -0.1409
 8440TIP3    H146811   2.413   5.923  14.218 -0.0120  0.0435 -0.4148
 8440TIP3    H246812   2.402   6.030  14.111 -0.3386  0.4310  0.0081
 8441TIP3   OH246813   0.234   2.209   5.236  0.0112 -0.5378 -0.4299
 8441TIP3    H146814   0.327   2.203   5.259 -0.2331 -0.3681  0.6471
 8441TIP3    H246815   0.234   2.231   5.143  1.0418 -1.1416 -0.5829
 8442TIP3   OH246816   2.606   0.992   3.763 -0.3287 -0.1116 -0.1757
 8442TIP3    H146817   2.667   0.996   3.837 -0.6618 -1.3637  0.1898
 8442TIP3    H246818   2.654   1.032   3.690 -0.9408  3.4754  1.3109
 8443TIP3   OH246819   5.013   6.340  14.457 -0.2474 -0.1919 -0.7720
 8443TIP3    H146820   5.061   6.392  14.521 -0.1411 -0.2290 -0.8204
 8443TIP3    H246821   4.927   6.327  14.496  0.5653 -2.2536  0.4369
 8444TIP3   OH246822   5.303   4.302   1.222 -0.1018 -0.0542  0.9328
 8444TIP3    H146823   5.314   4.382   1.274 -0.9114  0.8830 -0.3121
 8444TIP3    H246824   5.390   4.263   1.220 -0.1539 -0.4096  3.4385
 8445TIP3   OH246825   0.012   1.567  15.257  0.6291 -0.0502  0.0576
 8445TIP3    H146826   0.060   1.591  15.177 -0.5531  2.5587  0.0968
 8445TIP3    H246827   0.080   1.555  15.323  1.4831 -0.2215 -0.8412
 8446TIP3   OH246828   0.232   5.226  15.888 -0.3281  0.0245  0.6761
 8446TIP3    H146829   0.314   5.270  15.867 -0.9816  1.1714  0.5150
 8446TIP3    H246830   0.249   5.182  15.971  1.2056 -1.7383 -0.5324
 8447TIP3   OH246831   4.520   0.247  10.812  0.4621  0.0672 -0.2859
 8447TIP3    H146832   4.480   0.333  10.811  2.0009  0.8757  1.9173
 8447TIP3    H246833   4.597   0.255  10.755 -0.0478 -0.2074 -1.0203
 8448TIP3   OH246834   2.614   4.647   4.676  0.4638 -0.8192  0.1464
 8448TIP3    H146835   2.572   4.693   4.748  0.1665 -0.8589 -0.0036
 8448TIP3    H246836   2.693   4.608   4.715 -1.0342 -3.0468  1.0642
 8449TIP3   OH246837   3.126   1.797  14.656 -0.0096  0.0098 -0.5498
 8449TIP3    H146838   3.062   1.779  14.587 -0.6470  1.0438 -0.2277
 8449TIP3    H246839   3.090   1.753  14.733 -0.7681  1.3058 -0.1561
 8450TIP3   OH246840   1.844   5.907  15.428  0.0161  0.5354  0.0243
 8450TIP3    H146841   1.936   5.895  15.452  0.1387  1.1584 -0.1141
 8450TIP3    H246842   1.800   5.926  15.511 -0.1127 -0.4495  0.1895
 8451TIP3   OH246843   0.308   3.161  13.863 -0.4581  0.2560  0.2111
 8451TIP3    H146844   0.257   3.131  13.787 -0.6667  1.2372 -0.0425
 8451TIP3    H246845   0.280   3.104  13.934 -0.9910 -0.0325 -0.2257
 8452TIP3   OH246846   3.528   1.573   2.401  0.1403  0.0257 -0.3331
 8452TIP3    H146847   3.537   1.554   2.495  0.5642  1.2508 -0.1085
 8452TIP3    H246848   3.595   1.639   2.384 -0.7907  0.7554 -1.2081
 8453TIP3   OH246849   4.268   3.243   3.610 -0.1260 -0.4245  0.3577
 8453TIP3    H146850   4.240   3.272   3.697 -0.9046  1.2438 -0.4417
 8453TIP3    H246851   4.362   3.227   3.620  0.0969  1.2376  1.1342
 8454TIP3   OH246852   3.303   2.652   4.250 -0.3850 -0.1893  0.3383
 8454TIP3    H146853   3.342   2.726   4.297 -0.7747  0.6770 -0.6656
 8454TIP3    H246854   3.209   2.669   4.253 -0.3642  0.4765 -1.6651
 8455TIP3   OH246855   3.799   4.557  11.030  0.0882  0.1451  0.5811
 8455TIP3    H146856   3.892   4.566  11.047  0.0692  1.0625  0.2084
 8455TIP3    H246857   3.757   4.621  11.087 -0.1930  0.9439 -0.5071
 8456TIP3   OH246858   0.111   4.588   0.371 -0.5377  0.6869 -0.4013
 8456TIP3    H146859   0.129   4.552   0.285  0.7922 -0.1107  0.1912
 8456TIP3    H246860   0.161   4.671   0.373 -0.9190  0.9196 -0.5570
 8457TIP3   OH246861   6.072   1.224  17.032  0.0177  0.3204 -0.2401
 8457TIP3    H146862   6.071   1.208  17.126  3.1152 -1.9485 -0.4929
 8457TIP3    H246863   6.042   1.141  16.993 -0.3817  0.9309 -1.2425
 8458TIP3   OH246864   4.575   6.384   2.249 -0.1131  0.1125  0.4578
 8458TIP3    H146865   4.501   6.353   2.301  0.1389  0.5637  1.0956
 8458TIP3    H246866   4.640   6.314   2.256 -0.8368 -0.7200 -0.8980
 8459TIP3   OH246867   2.664   6.104  12.133 -0.0961 -0.4695 -0.4489
 8459TIP3    H146868   2.712   6.132  12.210 -1.0233  0.7493 -0.3118
 8459TIP3    H246869   2.712   6.026  12.102 -0.2962 -1.5574  1.9037
 8460TIP3   OH246870   1.956   5.600  12.170  0.1039 -0.3679  0.4599
 8460TIP3    H146871   2.030   5.561  12.218 -0.5427 -1.1798  0.8030
 8460TIP3    H246872   1.939   5.539  12.098  0.5082  0.4082 -0.3044
 8461TIP3   OH246873   5.851   6.799   3.888 -0.1250 -0.6179 -0.5240
 8461TIP3    H146874   5.904   6.768   3.961 -0.5921  0.2250  0.1812
 8461TIP3    H246875   5.795   6.867   3.926 -2.1642 -1.9094 -1.0898
 8462TIP3   OH246876   5.372   6.241   4.727 -0.0669 -0.6420  0.8318
 8462TIP3    H146877   5.278   6.253   4.742  0.7972  2.1314  4.8471
 8462TIP3    H246878   5.401   6.185   4.799  1.3923 -1.3946 -0.3172
 8463TIP3   OH246879   4.231   3.122  14.713  0.3482  0.6089 -0.2136
 8463TIP3    H146880   4.185   3.204  14.695  1.2762  1.2470  0.3197
 8463TIP3    H246881   4.314   3.148  14.752  0.8068 -0.5769 -0.3672
 8464TIP3   OH246882   1.678   2.696   5.727 -0.0922 -0.4623  0.6172
 8464TIP3    H146883   1.749   2.633   5.714  0.5730  0.3705  0.1593
 8464TIP3    H246884   1.693   2.733   5.814  1.8860  1.9933 -0.7065
 8465TIP3   OH246885   2.306   5.228  14.706  0.0594  0.3956 -0.2324
 8465TIP3    H146886   2.304   5.231  14.611 -0.6709 -1.5118 -0.3032
 8465TIP3    H246887   2.255   5.149  14.729 -0.1476  1.0656  1.7332
 8466TIP3   OH246888   2.812   1.811   6.396  0.2034 -0.4333 -0.3851
 8466TIP3    H146889   2.829   1.725   6.434  1.6708 -0.4034 -0.9277
 8466TIP3    H246890   2.742   1.795   6.332 -1.7867 -0.5981  1.7800
 8467TIP3   OH246891   5.714   4.834   2.000  0.0285  0.0312  0.0135
 8467TIP3    H146892   5.721   4.757   1.943 -1.1118 -0.7211  0.8751
 8467TIP3    H246893   5.800   4.876   1.993  0.6875 -1.3504 -0.4221
 8468TIP3   OH246894   5.022   0.194   3.029  0.1004 -0.2508  0.2784
 8468TIP3    H146895   4.988   0.123   3.084  0.1953  0.2329  0.9651
 8468TIP3    H246896   5.109   0.164   3.002  0.7401  0.2334  1.7631
 8469TIP3   OH246897   3.667   5.160  13.109  0.5924  0.1716 -0.3307
 8469TIP3    H146898   3.761   5.141  13.103  0.4372 -0.4646 -0.8260
 8469TIP3    H246899   3.625   5.085  13.066 -0.2507 -0.6968  1.9549
 8470TIP3   OH246900   2.656   0.795   5.178 -0.6530 -0.2460  0.1447
 8470TIP3    H146901   2.740   0.793   5.131  0.4904  2.3898  1.9751
 8470TIP3    H246902   2.662   0.723   5.240  0.9279  0.8871  1.3374
 8471TIP3   OH246903   2.024   0.501  15.698 -0.0754 -0.3791  0.8570
 8471TIP3    H146904   2.088   0.497  15.769  0.4215 -0.2063  0.4219
 8471TIP3    H246905   1.941   0.473  15.738 -0.3523  2.1129  2.1495
 8472TIP3   OH246906   6.357   2.295  12.111  0.5742  0.2972  0.3273
 8472TIP3    H146907   6.382   2.297  12.019  1.8801  0.1804  0.6567
 8472TIP3    H246908   6.348   2.388  12.135 -0.2590  0.3094 -0.0468
 8473TIP3   OH246909   0.492   1.518   4.445  0.6137  0.2035 -0.4008
 8473TIP3    H146910   0.530   1.441   4.487  3.1617  1.9569  0.6051
 8473TIP3    H246911   0.472   1.578   4.517 -0.0331  1.0613 -1.2761
 8474TIP3   OH246912   0.513   0.515   3.309  0.1257 -0.1176  0.5441
 8474TIP3    H146913   0.481   0.589   3.257  1.6246 -0.8086 -1.4323
 8474TIP3    H246914   0.538   0.553   3.393  0.5808  1.5865 -0.3459
 8475TIP3   OH246915   4.307   6.387  14.624 -0.2099  0.5313 -0.1453
 8475TIP3    H146916   4.367   6.359  14.555  0.5957 -0.6934  1.0484
 8475TIP3    H246917   4.314   6.320  14.691 -1.3447  1.4764  0.9316
 8476TIP3   OH246918   2.940   6.543   1.320  0.0773 -0.3277  0.0058
 8476TIP3    H146919   2.964   6.566   1.230  0.4282 -0.0869  0.1585
 8476TIP3    H246920   2.844   6.542   1.320  0.0837 -1.8863 -0.7520
 8477TIP3   OH246921   2.666   2.919  15.931  0.4107 -0.1232  0.0501
 8477TIP3    H146922   2.615   2.872  15.865 -1.6643 -0.0868  1.5692
 8477TIP3    H246923   2.652   3.011  15.911 -0.1261 -0.1130  0.4750
 8478TIP3   OH246924   2.125   1.470  13.905 -0.1781 -0.0930 -0.0158
 8478TIP3    H146925   2.164   1.420  13.833  0.5765  0.1727  0.2030
 8478TIP3    H246926   2.186   1.459  13.978 -1.1175 -0.6498  0.6993
 8479TIP3   OH246927   1.445   3.064  12.488  0.1936  0.1813 -0.0791
 8479TIP3    H146928   1.353   3.068  12.461 -0.0644 -1.8318  0.4121
 8479TIP3    H246929   1.484   3.144  12.452 -1.4648  0.4457 -1.3648
 8480TIP3   OH246930   4.795   0.512  15.815 -0.3294 -0.4122  0.2231
 8480TIP3    H146931   4.859   0.518  15.744 -0.2007  1.7650  0.4878
 8480TIP3    H246932   4.752   0.427  15.802  1.4304 -1.1498 -0.9573
 8481TIP3   OH246933   2.084   4.100  16.446  0.1083  0.3532  0.2866
 8481TIP3    H146934   2.168   4.124  16.487  0.7872 -0.6401 -0.5071
 8481TIP3    H246935   2.073   4.163  16.375  0.2638  0.3815  0.2893
 8482TIP3   OH246936   6.066   6.631  15.592  0.1900  0.6466  0.2355
 8482TIP3    H146937   6.083   6.544  15.556 -1.0970 -0.2718  1.8100
 8482TIP3    H246938   6.077   6.690  15.517  1.8803 -0.7623 -0.6697
 8483TIP3   OH246939   2.934   3.590  15.816  0.0625 -0.3219 -0.3594
 8483TIP3    H146940   2.968   3.582  15.727  0.8487 -0.1825 -0.0842
 8483TIP3    H246941   2.839   3.588  15.807  0.1340  0.2199 -1.2515
 8484TIP3   OH246942   6.684   5.272   3.889  0.4907  0.1471  0.1196
 8484TIP3    H146943   6.608   5.219   3.863 -0.7886  1.7802  0.3891
 8484TIP3    H246944   6.702   5.326   3.812 -1.4208  2.8712  1.4810
 8485TIP3   OH246945   6.603   6.618   1.717 -0.3615 -0.1750  0.0020
 8485TIP3    H146946   6.685   6.668   1.718  0.1590 -1.0092  1.5447
 8485TIP3    H246947   6.565   6.632   1.803 -1.8902  0.2419 -0.7202
 8486TIP3   OH246948   3.197   6.213   3.901 -0.4287  0.3533  0.0921
 8486TIP3    H146949   3.279   6.258   3.917 -1.0872  1.0320  1.7728
 8486TIP3    H246950   3.131   6.282   3.902 -1.3185 -0.4749  1.6154
 8487TIP3   OH246951   5.180   2.194   3.053  0.8690 -0.3017  0.6836
 8487TIP3    H146952   5.249   2.129   3.069  1.2311  0.2580  1.4123
 8487TIP3    H246953   5.212   2.274   3.095  0.1313  0.1753  0.3429
 8488TIP3   OH246954   2.158   2.901  14.335 -0.6907 -0.2039 -0.1095
 8488TIP3    H146955   2.246   2.899  14.370  0.3518 -2.0661 -2.6173
 8488TIP3    H246956   2.105   2.853  14.399  0.3345 -0.0485  0.8643
 8489TIP3   OH246957   3.463   4.161   5.702  0.6682 -0.0907  0.4601
 8489TIP3    H146958   3.432   4.129   5.618 -0.2749  0.0413  0.7453
 8489TIP3    H246959   3.402   4.233   5.723  0.5385 -0.5023  1.5162
 8490TIP3   OH246960   2.874   5.515  16.870  0.5841 -0.0946 -0.3935
 8490TIP3    H146961   2.897   5.540  16.781 -0.4041 -0.0784 -0.6478
 8490TIP3    H246962   2.814   5.441  16.860  0.2801  0.0582  0.2479
 8491TIP3   OH246963   2.522   4.554   5.951  0.5207  0.1294  0.0021
 8491TIP3    H146964   2.580   4.586   6.021  0.1852 -1.9713  1.2861
 8491TIP3    H246965   2.567   4.476   5.918  0.0019  0.3499 -1.2334
 8492TIP3   OH246966   0.274   0.197   6.130  0.4252 -1.1454 -0.1216
 8492TIP3    H146967   0.311   0.284   6.119  0.7805 -1.1596  0.8669
 8492TIP3    H246968   0.193   0.211   6.178 -0.2735 -1.2247 -1.2732
 8493TIP3   OH246969   3.882   5.041   0.842  0.0296  0.3029  0.6902
 8493TIP3    H146970   3.881   4.958   0.890  0.4021  0.6301  1.2729
 8493TIP3    H246971   3.973   5.052   0.815  0.0787  0.7444  1.0192
 8494TIP3   OH246972   3.395   6.398   3.667  0.4971 -0.3128 -0.3155
 8494TIP3    H146973   3.470   6.448   3.635  0.1529 -0.9489 -2.1398
 8494TIP3    H246974   3.394   6.318   3.614  0.1720 -1.6157  1.5806
 8495TIP3   OH246975   6.670   4.196  12.183  0.7275  0.2202  0.3127
 8495TIP3    H146976   6.638   4.276  12.226 -2.3445 -0.1169 -1.1855
 8495TIP3    H246977   6.746   4.226  12.132 -0.0001  2.0975  0.2623
 8496TIP3   OH246978   4.547   6.192   4.896 -0.7513  0.8338 -0.1690
 8496TIP3    H146979   4.639   6.183   4.868 -0.3356  0.3737  1.2921
 8496TIP3    H246980   4.544   6.150   4.982 -2.9828 -1.6806 -1.4286
 8497TIP3   OH246981   0.255   1.667   1.796 -0.0454  0.4042  0.3026
 8497TIP3    H146982   0.226   1.752   1.829 -1.0333  0.5645 -0.9357
 8497TIP3    H246983   0.193   1.646   1.726 -0.1757 -1.6196  1.0012
 8498TIP3   OH246984   0.841   3.902   1.482 -0.4671 -0.2422 -0.4196
 8498TIP3    H146985   0.772   3.935   1.539  0.1730  0.0262  0.2045
 8498TIP3    H246986   0.795   3.852   1.415 -1.1841 -0.9413  0.5859
 8499TIP3   OH246987   0.950   3.541  11.696  0.0171 -0.5709 -0.0323
 8499TIP3    H146988   1.010   3.510  11.629  1.1218  0.8114  0.3018
 8499TIP3    H246989   0.930   3.463  11.748  3.8244 -0.5738  1.6315
 8500TIP3   OH246990   3.628   0.047  12.618  0.0985 -0.1592 -0.1246
 8500TIP3    H146991   3.584  -0.026  12.574  1.5977 -1.8708  1.1289
 8500TIP3    H246992   3.620   0.025  12.711  1.2002  0.9174  0.2245
 8501TIP3   OH246993   1.564   0.073  15.068 -0.2655 -0.1890  0.2611
 8501TIP3    H146994   1.505   0.073  15.143  0.9961 -0.1656  1.2623
 8501TIP3    H246995   1.638   0.126  15.096  1.5152 -2.4847  0.0264
 8502TIP3   OH246996   1.670   3.658  16.853 -0.0999 -0.3510 -0.5702
 8502TIP3    H146997   1.621   3.709  16.918 -0.7295 -1.1285 -0.4226
 8502TIP3    H246998   1.745   3.713  16.832  0.4939 -0.3770  1.3269
 8503TIP3   OH246999   4.594   5.401   5.232 -0.3443 -0.1499 -0.0628
 8503TIP3    H147000   4.629   5.415   5.144  0.2356 -1.2863 -0.0105
 8503TIP3    H247001   4.628   5.475   5.283 -0.9328  0.6831 -0.8477
 8504TIP3   OH247002   5.871   4.165   2.981 -0.2737  0.3276  0.0653
 8504TIP3    H147003   5.775   4.171   2.972 -0.5932 -2.0869  1.2482
 8504TIP3    H247004   5.888   4.194   3.070  0.1523  1.2396 -0.3143
 8505TIP3   OH247005   2.858   1.363   3.003  0.0810  0.0207  0.5477
 8505TIP3    H147006   2.942   1.383   2.961 -0.3299 -1.2141 -0.9194
 8505TIP3    H247007   2.872   1.381   3.096  1.8298  0.2462  0.2509
 8506TIP3   OH247008   2.905   3.950   5.587  0.4424  0.0866 -0.2296
 8506TIP3    H147009   2.860   4.027   5.623 -1.1956 -0.5709 -0.8452
 8506TIP3    H247010   2.963   3.986   5.519  1.3718  1.0071  1.0142
 8507TIP3   OH247011   1.746   5.016  15.082 -0.0329 -0.1864 -0.3484
 8507TIP3    H147012   1.825   5.068  15.098  0.0529  0.0660 -1.5921
 8507TIP3    H247013   1.677   5.062  15.129  0.3930  0.0676  0.0298
 8508TIP3   OH247014   4.060   1.234   1.270  0.3909  0.5025 -0.2752
 8508TIP3    H147015   4.024   1.163   1.323 -1.1228  0.2243 -1.6427
 8508TIP3    H247016   4.005   1.310   1.291  1.0754  0.9130  0.0674
 8509TIP3   OH247017   1.819   2.543  10.596 -0.7428 -0.3642  0.1523
 8509TIP3    H147018   1.738   2.494  10.600 -0.3113 -1.0478  0.6459
 8509TIP3    H247019   1.834   2.574  10.686  1.0199 -2.6937  0.7129
 8510TIP3   OH247020   1.331   0.723  16.059 -0.7451  0.8660  0.1680
 8510TIP3    H147021   1.323   0.768  15.975 -1.8988  0.1217 -0.1498
 8510TIP3    H247022   1.299   0.634  16.041 -0.1878  0.4469  1.1907
 8511TIP3   OH247023   0.770   1.720  16.953 -0.5685 -0.0944 -0.3780
 8511TIP3    H147024   0.860   1.703  16.925 -1.1421 -0.6486 -1.9399
 8511TIP3    H247025   0.718   1.707  16.874 -2.0428  0.0815  0.5537
 8512TIP3   OH247026   3.718   3.573   1.480 -0.0195 -0.2522 -0.7833
 8512TIP3    H147027   3.729   3.655   1.431 -1.0838 -0.7668 -1.9062
 8512TIP3    H247028   3.798   3.524   1.461  0.0140 -0.0374 -1.2123
 8513TIP3   OH247029   2.754   0.137  13.916  0.3496 -0.2500 -0.3302
 8513TIP3    H147030   2.788   0.156  14.003 -1.2020 -0.3038  0.3087
 8513TIP3    H247031   2.805   0.193  13.857 -1.4011  2.9677  1.0717
 8514TIP3   OH247032   5.374   1.219   2.923  0.3258  0.3727  0.4292
 8514TIP3    H147033   5.465   1.207   2.949  0.4001  0.6871  0.3208
 8514TIP3    H247034   5.339   1.284   2.984 -0.1631 -0.6233  1.2147
 8515TIP3   OH247035   4.896   5.431   5.517  0.2703  0.3555  0.1454
 8515TIP3    H147036   4.849   5.456   5.437  0.8722  2.0006  0.2964
 8515TIP3    H247037   4.871   5.496   5.582 -1.9326 -2.1994  1.9814
 8516TIP3   OH247038   3.633   6.410   3.093  0.4067 -0.4503  0.0575
 8516TIP3    H147039   3.592   6.391   3.177 -0.8811 -1.6925 -0.8349
 8516TIP3    H247040   3.724   6.430   3.115 -0.2018  0.4388  1.8638
 8517TIP3   OH247041   2.308   5.017  15.906 -0.4407 -0.2120 -0.1670
 8517TIP3    H147042   2.350   4.998  15.990 -1.2641 -1.6700 -0.0612
 8517TIP3    H247043   2.229   5.067  15.929  0.1746  0.7866 -0.2082
 8518TIP3   OH247044   2.004   6.588   2.332  0.2627  0.0485  0.0548
 8518TIP3    H147045   2.000   6.667   2.279 -2.7917 -0.6319 -0.8172
 8518TIP3    H247046   2.056   6.527   2.280 -0.0535  0.4413 -0.7287
 8519TIP3   OH247047   2.532   3.083   0.710  0.3993 -0.4397 -0.0852
 8519TIP3    H147048   2.503   3.153   0.770 -2.1984 -0.7910 -0.8861
 8519TIP3    H247049   2.451   3.042   0.680  1.8448 -2.8997 -0.7320
 8520TIP3   OH247050   5.620   0.846   3.345  0.3501  0.2042 -0.6300
 8520TIP3    H147051   5.594   0.785   3.413  0.3047  1.0233  0.0948
 8520TIP3    H247052   5.556   0.833   3.275  0.6757 -0.9644 -0.7099
 8521TIP3   OH247053   5.530   2.785  12.328  0.3454 -0.1057  0.3184
 8521TIP3    H147054   5.494   2.696  12.336 -0.2989  0.3103  2.0775
 8521TIP3    H247055   5.623   2.775  12.347  0.0159 -0.1841  1.9123
 8522TIP3   OH247056   5.568   2.696  16.785  0.2111  0.2348  0.0531
 8522TIP3    H147057   5.634   2.633  16.755 -0.0114  0.1854 -0.3470
 8522TIP3    H247058   5.552   2.751  16.709 -0.3372  0.1318  0.0895
 8523TIP3   OH247059   3.707   3.033  10.303 -0.0088 -0.2690 -0.6515
 8523TIP3    H147060   3.801   3.026  10.317  0.1260  0.7027 -1.0302
 8523TIP3    H247061   3.667   3.000  10.384  0.6781  0.9351  0.1852
 8524TIP3   OH247062   6.359   4.565   3.186 -0.0827 -0.2775 -0.2852
 8524TIP3    H147063   6.382   4.657   3.200  0.7170 -0.3456 -1.0782
 8524TIP3    H247064   6.443   4.520   3.181 -0.4843 -1.2529  1.3215
 8525TIP3   OH247065   4.940   2.300   4.730 -0.4533  0.2183 -0.6203
 8525TIP3    H147066   5.014   2.354   4.702  0.4829 -0.6423  0.1358
 8525TIP3    H247067   4.866   2.360   4.734  0.8861  1.7867  1.6810
 8526TIP3   OH247068   4.485   2.354  13.959  0.2546 -0.2207 -0.6899
 8526TIP3    H147069   4.557   2.409  13.990  0.4302 -0.3230 -0.9143
 8526TIP3    H247070   4.412   2.376  14.017  0.7587 -0.8728  0.1930
 8527TIP3   OH247071   4.206   4.874  13.373  0.5240 -0.1629  0.6195
 8527TIP3    H147072   4.264   4.918  13.435  0.0502 -0.1876  1.0875
 8527TIP3    H247073   4.122   4.920  13.382  0.4167 -0.2585  0.0993
 8528TIP3   OH247074   5.557   2.891  16.501 -0.0677 -0.3450  0.2449
 8528TIP3    H147075   5.582   2.983  16.504 -1.7874  0.0940  1.9828
 8528TIP3    H247076   5.480   2.888  16.446 -0.2479 -0.6901  0.5115
 8529TIP3   OH247077   2.920   3.932  15.644 -0.2242 -0.7393  0.5984
 8529TIP3    H147078   2.999   3.934  15.700 -0.4104 -0.8111  0.8644
 8529TIP3    H247079   2.954   3.924  15.555  0.0848 -0.3179  0.6767
 8530TIP3   OH247080   5.426   3.282  14.538 -0.3858 -0.5666 -0.4949
 8530TIP3    H147081   5.463   3.193  14.535  0.5373 -0.2071  0.0429
 8530TIP3    H247082   5.491   3.333  14.586 -1.6144  0.0802  0.4895
 8531TIP3   OH247083   0.196   3.874  14.197 -0.0344 -0.4003 -0.3949
 8531TIP3    H147084   0.142   3.900  14.271 -0.8564  0.6132 -1.3333
 8531TIP3    H247085   0.167   3.785  14.175 -0.1139 -0.5153  0.1899
 8532TIP3   OH247086   4.265   3.576   2.442  0.0619 -0.1833 -0.0441
 8532TIP3    H147087   4.251   3.589   2.348  0.6796 -2.3962 -0.4702
 8532TIP3    H247088   4.356   3.546   2.449 -0.0036 -0.1033  1.2500
 8533TIP3   OH247089   1.327   6.109  13.868 -0.7078  0.5594  1.0831
 8533TIP3    H147090   1.361   6.123  13.956  0.1911 -0.0671  0.8413
 8533TIP3    H247091   1.387   6.047  13.828 -2.3958 -0.9541  0.8090
 8534TIP3   OH247092   3.202   0.225   4.734 -0.7683 -0.2396 -0.3291
 8534TIP3    H147093   3.174   0.229   4.643  0.5186 -1.8793 -0.8193
 8534TIP3    H247094   3.212   0.132   4.753 -1.8245  0.0276  1.7490
 8535TIP3   OH247095   4.931   3.252  11.792 -0.5214 -0.2577 -0.8434
 8535TIP3    H147096   4.853   3.235  11.844 -1.7435 -0.6802 -2.7521
 8535TIP3    H247097   4.899   3.260  11.702  1.3935  1.5375 -1.4076
 8536TIP3   OH247098   1.324   5.486  13.949  0.1355  0.6062 -0.3927
 8536TIP3    H147099   1.357   5.574  13.966  1.5471 -0.1056  0.5737
 8536TIP3    H247100   1.310   5.484  13.854  2.4429  1.0868 -0.7659
 8537TIP3   OH247101   0.823   2.940  11.846  0.2427  0.1822 -0.2791
 8537TIP3    H147102   0.742   2.960  11.892  0.5805 -0.3022  0.5426
 8537TIP3    H247103   0.848   3.021  11.802 -0.6782  0.3285 -0.5246
 8538TIP3   OH247104   6.689   4.845  10.701 -0.8034  0.4913 -0.0111
 8538TIP3    H147105   6.649   4.762  10.729 -0.2618  0.8828  2.0000
 8538TIP3    H247106   6.617   4.895  10.663 -1.6229  0.0133  0.8862
 8539TIP3   OH247107   2.123   3.309  11.527  0.1698 -0.4215  0.6848
 8539TIP3    H147108   2.066   3.338  11.456 -0.2807 -0.2354  1.1169
 8539TIP3    H247109   2.202   3.277  11.484  0.1937  0.3677  0.1423
 8540TIP3   OH247110   5.811   5.223  11.881  0.4259  0.5352 -0.0691
 8540TIP3    H147111   5.844   5.282  11.813  0.1242  2.2129  1.2141
 8540TIP3    H247112   5.870   5.235  11.955 -1.7432  2.0112  1.4991
 8541TIP3   OH247113   4.815   1.691   5.973 -0.1056 -0.2137  0.4327
 8541TIP3    H147114   4.884   1.688   5.907  0.6164 -0.3349  1.1785
 8541TIP3    H247115   4.854   1.741   6.045 -1.3863  1.1709  0.1948
 8542TIP3   OH247116   1.431   0.350   6.327 -0.1927 -0.7706 -0.7104
 8542TIP3    H147117   1.345   0.315   6.303 -0.9369  1.0673 -0.8771
 8542TIP3    H247118   1.411   0.428   6.379  1.3943 -0.9552  0.2043
 8543TIP3   OH247119   0.356   1.123   4.656  0.7334  0.2102  0.2351
 8543TIP3    H147120   0.320   1.127   4.567 -0.4209 -2.9005  0.4992
 8543TIP3    H247121   0.288   1.161   4.711  0.4243 -0.0575  0.0418
 8544TIP3   OH247122   0.174   6.682  13.100  0.1612 -0.1406 -0.6587
 8544TIP3    H147123   0.212   6.607  13.055  0.4620  0.8224 -2.0135
 8544TIP3    H247124   0.242   6.708  13.163 -1.3666 -3.2648  2.5125
 8545TIP3   OH247125   6.339   4.158   2.912 -0.1502 -0.5872  0.6626
 8545TIP3    H147126   6.373   4.241   2.877 -0.3377 -0.5662  0.5284
 8545TIP3    H247127   6.349   4.166   3.006  1.2016 -1.0156  0.5612
 8546TIP3   OH247128   2.533   3.738  15.849 -0.2042  0.3382  0.1079
 8546TIP3    H147129   2.488   3.782  15.921  0.4490 -1.0665  1.4174
 8546TIP3    H247130   2.482   3.659  15.833 -0.2263  0.5377 -0.8391
 8547TIP3   OH247131   6.544   0.620   1.893  0.1895 -0.1578  0.4618
 8547TIP3    H147132   6.615   0.565   1.926  0.9075 -0.2753 -1.1929
 8547TIP3    H247133   6.505   0.568   1.822  1.4551  1.7861 -1.7303
 8548TIP3   OH247134   3.194   1.988   3.699 -0.2654  0.4495 -0.1977
 8548TIP3    H147135   3.121   2.049   3.695  0.5487  1.3721 -1.3840
 8548TIP3    H247136   3.262   2.035   3.748  0.0213  0.1339 -0.2896
 8549TIP3   OH247137   3.297   4.627   4.222 -0.2903  0.0023  0.2504
 8549TIP3    H147138   3.361   4.623   4.151  0.3102 -4.2940  0.9349
 8549TIP3    H247139   3.342   4.674   4.292 -0.5516  3.4407 -1.7716
 8550TIP3   OH247140   3.634   0.554   1.191  0.0878  0.2347 -0.0733
 8550TIP3    H147141   3.688   0.622   1.231  0.4830  0.7379 -1.4280
 8550TIP3    H247142   3.665   0.549   1.101 -0.4087 -1.2623 -0.1740
 8551TIP3   OH247143   1.585   4.945   5.700 -0.0290 -0.6619  0.3937
 8551TIP3    H147144   1.585   5.036   5.730 -1.0487 -0.5852  0.1725
 8551TIP3    H247145   1.493   4.920   5.698  0.2760 -1.8760  0.9594
 8552TIP3   OH247146   2.505   5.203  16.180  0.2409  1.0476  0.1428
 8552TIP3    H147147   2.532   5.207  16.272 -0.2853  0.0630  0.3529
 8552TIP3    H247148   2.495   5.109  16.163  0.4771  1.2196 -0.9657
 8553TIP3   OH247149   1.320   6.445  15.707  0.1129  0.0387  0.4602
 8553TIP3    H147150   1.380   6.372  15.721  0.3211  0.6584  3.1525
 8553TIP3    H247151   1.252   6.434  15.774 -2.0149  0.1574 -1.6150
 8554TIP3   OH247152   2.129   1.576  12.054  0.2197  0.2810  0.6553
 8554TIP3    H147153   2.157   1.588  12.145  0.0936 -0.5257  0.8066
 8554TIP3    H247154   2.130   1.664  12.016  2.1260  0.3884  0.9103
 8555TIP3   OH247155   2.864   3.654  16.076  0.2530 -0.0298 -0.0887
 8555TIP3    H147156   2.816   3.587  16.126  0.4662 -0.5369 -0.5502
 8555TIP3    H247157   2.893   3.607  15.998  2.3035  0.0408  0.6195
 8556TIP3   OH247158   0.046   4.645  17.035 -0.4811 -0.3437  0.6689
 8556TIP3    H147159   0.093   4.727  17.054 -0.7155  0.5274 -2.1793
 8556TIP3    H247160   0.109   4.576  17.054  1.9592  0.7814 -2.7158
 8557TIP3   OH247161   1.565   4.277  16.464 -0.2310 -0.3526 -0.0895
 8557TIP3    H147162   1.535   4.187  16.457 -0.9253 -0.0342 -1.3291
 8557TIP3    H247163   1.486   4.330  16.454  0.1722  0.3961  0.6023
 8558TIP3   OH247164   3.807   2.207   4.380 -0.8636  0.0454  0.5115
 8558TIP3    H147165   3.861   2.279   4.348 -0.3849 -0.4075  0.2804
 8558TIP3    H247166   3.835   2.193   4.470 -0.5456 -0.2326  0.3708
 8559TIP3   OH247167   2.278   2.686   2.311  0.3563  0.4564  0.5003
 8559TIP3    H147168   2.272   2.770   2.356 -2.0003 -1.0149  3.1397
 8559TIP3    H247169   2.280   2.622   2.382 -1.8909 -1.9125 -1.4733
 8560TIP3   OH247170   0.907   3.673   4.015  0.6440  0.1113 -0.5125
 8560TIP3    H147171   0.819   3.704   3.993 -0.0991 -1.2548  0.5145
 8560TIP3    H247172   0.932   3.724   4.093  0.8724  0.6546 -0.9326
 8561TIP3   OH247173   1.853   2.106  12.930 -0.3192  0.1541  0.7984
 8561TIP3    H147174   1.860   2.011  12.922 -0.9912  0.0054  1.8477
 8561TIP3    H247175   1.876   2.125  13.021 -2.0520  0.7760  1.1354
 8562TIP3   OH247176   3.498   0.360  15.965  0.2788  0.1576 -0.0972
 8562TIP3    H147177   3.551   0.288  15.932  0.2848  0.6519 -1.1879
 8562TIP3    H247178   3.497   0.424  15.893  0.6434  1.4409  1.0294
 8563TIP3   OH247179   5.342   4.241   2.825  0.7861 -0.3975 -0.0034
 8563TIP3    H147180   5.283   4.316   2.835 -0.3868 -1.1519 -1.1570
 8563TIP3    H247181   5.353   4.208   2.914  0.2252  0.3387  0.3470
 8564TIP3   OH247182   3.046   4.580  15.515 -0.0743 -0.1947  0.4101
 8564TIP3    H147183   2.974   4.607  15.457  1.2690  1.1321 -0.6652
 8564TIP3    H247184   3.103   4.527  15.459  0.5952  0.0527  0.8617
 8565TIP3   OH247185   1.690   5.847  11.957 -0.2564  0.8361 -0.0703
 8565TIP3    H147186   1.783   5.861  11.977 -0.6959  0.7757  2.0936
 8565TIP3    H247187   1.680   5.752  11.954 -0.2617  0.8421 -0.2857
 8566TIP3   OH247188   3.216   6.546  17.241 -0.2335 -0.0069 -0.6050
 8566TIP3    H147189   3.303   6.583  17.227 -0.3978 -0.0453 -1.7679
 8566TIP3    H247190   3.196   6.499  17.159 -1.9184  1.1432 -0.8850
 8567TIP3   OH247191   3.888   2.021   3.379 -0.2366  0.5294  0.3417
 8567TIP3    H147192   3.811   2.075   3.359 -0.6494 -1.2754 -3.2536
 8567TIP3    H247193   3.961   2.069   3.341 -0.2236 -0.0533 -0.3733
 8568TIP3   OH247194   0.354   6.625  16.098  0.2233  0.0322 -0.7186
 8568TIP3    H147195   0.366   6.686  16.171 -0.1001 -0.7869  0.0171
 8568TIP3    H247196   0.440   6.587  16.083  0.6279  1.3021 -1.7538
 8569TIP3   OH247197   5.787   2.134   2.771 -0.2005 -0.0759 -0.3112
 8569TIP3    H147198   5.851   2.126   2.841 -1.0770 -1.3494  0.3719
 8569TIP3    H247199   5.705   2.104   2.810 -0.8043 -0.3600 -1.7439
 8570TIP3   OH247200   1.566   1.574  11.673  0.2403 -0.0436 -0.1821
 8570TIP3    H147201   1.475   1.597  11.688  1.0927  1.8195  2.4827
 8570TIP3    H247202   1.575   1.487  11.710 -0.4430 -0.2497 -0.4884
 8571TIP3   OH247203   4.848   0.369   2.072  0.4674 -0.2288  0.2059
 8571TIP3    H147204   4.939   0.390   2.094  0.9479 -1.0960 -0.9177
 8571TIP3    H247205   4.831   0.287   2.118  0.0936  0.1738  0.7951
 8572TIP3   OH247206   1.471   3.951  17.274 -0.4493 -0.0387 -0.1205
 8572TIP3    H147207   1.454   3.947  17.368 -2.2132 -2.5715 -0.5157
 8572TIP3    H247208   1.559   3.915  17.264 -0.3471  0.0245  0.5278
 8573TIP3   OH247209   4.615   2.631   2.425 -0.6771 -0.0775  0.1061
 8573TIP3    H147210   4.650   2.681   2.351  0.5513 -0.7222  0.2296
 8573TIP3    H247211   4.571   2.697   2.479  0.4890  0.7984  0.0103
 8574TIP3   OH247212   0.372   1.849  16.543 -0.6801  0.2118 -0.9587
 8574TIP3    H147213   0.412   1.860  16.456  0.5179 -0.7403 -0.5392
 8574TIP3    H247214   0.341   1.758  16.544 -0.3325  0.1011 -0.2391
 8575TIP3   OH247215   6.754   5.941  13.929  0.2849 -0.1407  0.1391
 8575TIP3    H147216   6.846   5.915  13.930  0.0643 -0.9518  2.4726
 8575TIP3    H247217   6.756   6.032  13.898  2.0903  0.5405  2.0846
 8576TIP3   OH247218   0.938   1.860   4.043  0.9782  0.0052  0.0567
 8576TIP3    H147219   1.004   1.791   4.052  0.5099 -0.2107  2.3604
 8576TIP3    H247220   0.965   1.927   4.106 -1.8001 -0.7884  2.2169
 8577TIP3   OH247221   0.585   2.519  11.781 -0.4644 -0.6123  0.3302
 8577TIP3    H147222   0.595   2.458  11.855  0.1060 -0.5576  0.3003
 8577TIP3    H247223   0.517   2.580  11.810 -1.1294 -1.3380  0.3129
 8578TIP3   OH247224   1.161   1.712   2.446  0.0601 -0.0209  0.1069
 8578TIP3    H147225   1.185   1.634   2.496 -2.5356 -0.9541 -0.0519
 8578TIP3    H247226   1.188   1.693   2.357  0.0396 -0.4667  0.1941
 8579TIP3   OH247227   1.843   3.479   4.689  0.1637 -0.0641  0.2785
 8579TIP3    H147228   1.794   3.452   4.611  2.0730 -0.0168 -0.9576
 8579TIP3    H247229   1.819   3.571   4.701  1.6650  0.6193 -1.6756
 8580TIP3   OH247230   1.053   2.006   1.153 -0.2442 -0.0479 -0.4860
 8580TIP3    H147231   1.075   2.029   1.244 -1.5826 -2.3118  0.4503
 8580TIP3    H247232   1.137   2.008   1.107  0.5932  0.2123  1.0090
 8581TIP3   OH247233   4.966   4.666  12.942 -1.2767 -0.1336 -0.1279
 8581TIP3    H147234   4.991   4.757  12.953 -2.1919  0.1966 -0.7724
 8581TIP3    H247235   4.913   4.646  13.019 -2.5294  0.3962 -0.8302
 8582TIP3   OH247236   3.564   4.115  15.560 -0.1763  0.4259 -0.0929
 8582TIP3    H147237   3.514   4.054  15.615 -1.7094  1.0617 -0.7358
 8582TIP3    H247238   3.647   4.127  15.606 -0.9276 -0.0378  1.4299
 8583TIP3   OH247239   1.052   4.745   0.437 -0.5428 -0.2841 -0.5333
 8583TIP3    H147240   1.065   4.664   0.487 -0.4518 -0.7975 -1.3597
 8583TIP3    H247241   0.982   4.723   0.375 -3.4406  1.5531  1.9553
 8584TIP3   OH247242   3.984   3.609   3.982 -0.1529 -0.4162  0.1476
 8584TIP3    H147243   3.906   3.664   3.976  0.6991  0.8078  0.0964
 8584TIP3    H247244   3.997   3.596   4.076  0.0993  0.1399  0.1922
 8585TIP3   OH247245   6.759   5.211  15.344 -0.4346 -0.1881  0.0802
 8585TIP3    H147246   6.832   5.258  15.385 -1.0735  0.8924  0.0076
 8585TIP3    H247247   6.749   5.252  15.258 -1.2314 -0.2308  0.1516
 8586TIP3   OH247248   3.622   6.235   6.595 -0.2796  0.6512 -0.2922
 8586TIP3    H147249   3.563   6.294   6.642  0.0887 -1.1644  2.6237
 8586TIP3    H247250   3.576   6.151   6.595  0.4523  0.2277 -1.8301
 8587TIP3   OH247251   3.327   0.963  11.605  0.0359  0.6216  0.2545
 8587TIP3    H147252   3.278   0.975  11.524 -0.0396  0.9115  0.3445
 8587TIP3    H247253   3.403   1.021  11.596 -0.9673  2.1092  1.2198
 8588TIP3   OH247254   2.633   4.621  15.718 -0.3215 -0.5510 -0.2545
 8588TIP3    H147255   2.679   4.656  15.641 -0.2464 -0.1701 -0.0398
 8588TIP3    H247256   2.611   4.699  15.769 -2.0323 -0.6318 -0.8110
 8589TIP3   OH247257   5.311   2.416  11.255 -0.1770 -0.5200  0.8636
 8589TIP3    H147258   5.230   2.377  11.224 -0.0713 -0.0764  0.0267
 8589TIP3    H247259   5.286   2.463  11.335 -1.0474  0.8612 -0.1917
 8590TIP3   OH247260   2.112   4.537   4.212 -0.3194  0.0880  0.1102
 8590TIP3    H147261   2.114   4.502   4.123 -1.9797  0.4391 -0.0769
 8590TIP3    H247262   2.050   4.481   4.259 -0.2925  0.5812  0.7490
 8591TIP3   OH247263   2.950   1.638   3.217  0.2881  0.2292 -0.0687
 8591TIP3    H147264   2.949   1.542   3.207  1.9026  0.3248 -1.4068
 8591TIP3    H247265   2.859   1.662   3.230  0.0034 -1.6336  1.5955
 8592TIP3   OH247266   0.783   2.229  12.916  0.2497 -0.1950  0.2939
 8592TIP3    H147267   0.806   2.141  12.888 -0.4831 -0.7266  1.3005
 8592TIP3    H247268   0.847   2.250  12.984  0.8790  0.3492 -0.4597
 8593TIP3   OH247269   0.225   5.248   3.116  0.9026  0.3387 -0.0447
 8593TIP3    H147270   0.246   5.155   3.125 -1.6698 -0.3072 -0.2598
 8593TIP3    H247271   0.206   5.276   3.206 -0.6344  0.0503 -0.2704
 8594TIP3   OH247272   6.069   1.521  15.152 -0.1403 -0.6560 -0.0133
 8594TIP3    H147273   6.112   1.551  15.072 -2.9834  0.1696 -1.2567
 8594TIP3    H247274   6.115   1.440  15.175  0.8497 -0.7828 -2.3320
 8595TIP3   OH247275   6.803   2.158   3.234  0.4524  0.5244  0.4865
 8595TIP3    H147276   6.791   2.178   3.327  0.1577  1.2780  0.2868
 8595TIP3    H247277   6.886   2.111   3.230  0.1271 -0.1336  1.2194
 8596TIP3   OH247278   5.764   4.740  14.644  0.3090 -0.0768 -0.3312
 8596TIP3    H147279   5.782   4.833  14.630 -0.8225  0.2823  0.5780
 8596TIP3    H247280   5.850   4.701  14.658  0.6823  1.0574  0.5890
 8597TIP3   OH247281   5.078   6.475   3.650 -0.0708 -0.0551  0.4545
 8597TIP3    H147282   4.997   6.479   3.700 -0.5025 -0.3451 -0.2179
 8597TIP3    H247283   5.127   6.403   3.690 -0.1505  0.1028  0.8427
 8598TIP3   OH247284   4.509   1.140  13.718  0.0333 -0.3492 -0.3436
 8598TIP3    H147285   4.472   1.227  13.730  0.1259 -0.5025  1.2240
 8598TIP3    H247286   4.434   1.083  13.703 -0.2119 -0.3356  0.7896
 8599TIP3   OH247287   3.835   5.819  14.910  0.0195  0.0023  0.3494
 8599TIP3    H147288   3.893   5.848  14.840  0.4192  1.3982  1.2454
 8599TIP3    H247289   3.766   5.885  14.914 -0.0227 -0.0833  1.2309
 8600TIP3   OH247290   3.781   6.733  12.092  0.1738  0.2399 -0.0202
 8600TIP3    H147291   3.816   6.700  12.009  1.6067 -1.3281  1.1667
 8600TIP3    H247292   3.771   6.654  12.146 -2.0240  1.0655  0.8545
 8601TIP3   OH247293   3.760   1.178   3.554  0.3654  0.3018 -0.1641
 8601TIP3    H147294   3.780   1.143   3.641  1.5651  0.9483 -0.1573
 8601TIP3    H247295   3.685   1.235   3.568 -1.2204 -1.7637 -0.0718
 8602TIP3   OH247296   6.329   1.198  10.911 -0.2083 -0.0494  0.3382
 8602TIP3    H147297   6.372   1.151  10.840 -0.8900  0.2556 -0.2844
 8602TIP3    H247298   6.364   1.287  10.906 -0.8142  0.1695 -0.0977
 8603TIP3   OH247299   3.390   1.395  11.583  0.1241 -0.1332  0.1047
 8603TIP3    H147300   3.451   1.322  11.591  0.5487  0.1489 -0.5381
 8603TIP3    H247301   3.435   1.459  11.528  0.0194  0.8889  1.1698
 8604TIP3   OH247302   3.583   5.117  16.201  0.1762  0.1010 -0.0045
 8604TIP3    H147303   3.513   5.070  16.157 -0.0276  0.2780  0.1237
 8604TIP3    H247304   3.637   5.049  16.241  0.4021 -0.0598 -0.5887
 8605TIP3   OH247305   0.984   0.684  15.985 -0.0902  0.0926 -0.2944
 8605TIP3    H147306   1.011   0.766  16.027  0.1107 -1.1841  2.1496
 8605TIP3    H247307   1.063   0.631  15.982 -0.5673 -0.6272 -0.3674
 8606TIP3   OH247308   3.673   5.927  16.728  0.6355  0.7209  0.7710
 8606TIP3    H147309   3.662   5.835  16.703  0.1450  0.9962 -0.0890
 8606TIP3    H247310   3.715   5.925  16.813  0.4161 -0.3083  0.8545
 8607TIP3   OH247311   1.842   2.914   6.790  0.4607 -0.1938  0.4290
 8607TIP3    H147312   1.854   2.926   6.696  1.0101 -0.1121  0.5033
 8607TIP3    H247313   1.904   2.976   6.829 -1.1003  1.1150  0.8516
 8608TIP3   OH247314   3.313   3.723  11.902 -0.3720  0.5674  0.5976
 8608TIP3    H147315   3.245   3.770  11.949 -1.3613 -0.2335 -0.0230
 8608TIP3    H247316   3.277   3.707  11.815  0.4604 -0.1760  0.3780
 8609TIP3   OH247317   4.416   6.431  12.892 -0.0804 -0.2160  0.3104
 8609TIP3    H147318   4.342   6.403  12.946 -0.8660 -1.9958 -1.5903
 8609TIP3    H247319   4.397   6.522  12.870 -1.8145 -0.6840 -0.2577
 8610TIP3   OH247320   0.489   6.038  14.781  0.8838 -0.1442  0.1260
 8610TIP3    H147321   0.449   6.125  14.779  0.8884 -0.0763  2.0322
 8610TIP3    H247322   0.558   6.041  14.713 -0.9590  0.3888 -1.7684
 8611TIP3   OH247323   6.320   0.521   3.469  0.0098  0.4148  0.4109
 8611TIP3    H147324   6.337   0.499   3.377  0.6548 -1.5125  0.9568
 8611TIP3    H247325   6.369   0.602   3.484 -0.7442  1.1796 -1.1512
 8612TIP3   OH247326   5.350   0.666  14.574 -0.7193  0.4063 -0.4790
 8612TIP3    H147327   5.380   0.751  14.607  0.0283 -0.2512  0.5433
 8612TIP3    H247328   5.414   0.642  14.507 -1.7997  1.3690 -1.8923
 8613TIP3   OH247329   1.952   4.520  12.079  0.4301  0.3323  0.2357
 8613TIP3    H147330   1.928   4.462  12.007  0.2745  1.7183 -0.8529
 8613TIP3    H247331   1.869   4.543  12.120  0.6625 -1.9574  2.0718
 8614TIP3   OH247332   0.190   3.065  13.644 -0.1285  0.0134  0.0905
 8614TIP3    H147333   0.269   3.011  13.637 -0.6915 -0.6075 -1.9976
 8614TIP3    H247334   0.118   3.003  13.642 -0.7246  0.6994 -0.0803
 8615TIP3   OH247335   3.683   1.567   0.082 -0.0627  0.5789  0.5288
 8615TIP3    H147336   3.705   1.474   0.071 -1.4098  0.1857  1.0018
 8615TIP3    H247337   3.645   1.592  -0.002  1.6760  1.1150 -0.1115
 8616TIP3   OH247338   6.362   6.155  15.396  0.1005  0.3877  0.0857
 8616TIP3    H147339   6.425   6.147  15.467  0.8137  0.1300 -0.5643
 8616TIP3    H247340   6.415   6.151  15.316 -0.4053  3.1617 -0.4467
 8617TIP3   OH247341   3.362   3.595   4.564 -0.4074 -0.0323  0.4892
 8617TIP3    H147342   3.271   3.594   4.534 -0.2516  0.9735 -0.0371
 8617TIP3    H247343   3.373   3.511   4.609 -1.7543  0.0671  1.0377
 8618TIP3   OH247344   0.725   6.184   3.405  0.1938 -0.2919  0.6890
 8618TIP3    H147345   0.655   6.122   3.425 -0.5136  0.1145 -0.4796
 8618TIP3    H247346   0.695   6.267   3.442  0.2017 -0.1933  0.4764
 8619TIP3   OH247347   6.357   0.718  15.332  0.2485  0.2453 -0.4284
 8619TIP3    H147348   6.373   0.764  15.414 -1.3671 -0.0227  0.0586
 8619TIP3    H247349   6.288   0.768  15.289 -0.8532 -1.1429 -0.3400
 8620TIP3   OH247350   2.553   5.559   5.541  0.0162 -0.4068  0.2155
 8620TIP3    H147351   2.619   5.586   5.477 -0.8447  2.1559  0.3174
 8620TIP3    H247352   2.546   5.634   5.600 -1.4707 -1.4883  1.4488
 8621TIP3   OH247353   1.420   6.439  17.177 -0.1334  0.1240  0.1153
 8621TIP3    H147354   1.358   6.374  17.145  0.3178  0.5228 -1.6537
 8621TIP3    H247355   1.489   6.440  17.111 -0.2380  2.5313  0.0099
 8622TIP3   OH247356   2.531   0.130   5.666 -0.1758  0.2129 -0.0883
 8622TIP3    H147357   2.569   0.043   5.654 -0.1225  0.4754 -1.8207
 8622TIP3    H247358   2.596   0.191   5.631 -0.0575  1.0065  1.4308
 8623TIP3   OH247359   5.875   2.845  14.183 -0.3367  0.3825  0.0783
 8623TIP3    H147360   5.822   2.916  14.219 -0.7949 -0.5341  1.2629
 8623TIP3    H247361   5.827   2.765  14.206  1.7535 -0.5038  1.5658
 8624TIP3   OH247362   0.527   6.630  12.267 -0.2153 -0.0430  0.2247
 8624TIP3    H147363   0.598   6.583  12.308  1.1113  0.8251 -1.0241
 8624TIP3    H247364   0.501   6.697  12.330  1.1418  0.6528  0.0483
 8625TIP3   OH247365   3.822   5.440   5.367 -0.4129 -0.1542  0.0939
 8625TIP3    H147366   3.770   5.519   5.384 -0.0007  0.4259 -1.3365
 8625TIP3    H247367   3.912   5.470   5.371 -0.1958 -0.9684  1.5802
 8626TIP3   OH247368   4.585   1.715  12.660  0.1898 -0.1757 -0.2358
 8626TIP3    H147369   4.603   1.695  12.751 -0.5370  0.9857  0.1724
 8626TIP3    H247370   4.664   1.761  12.630  0.3121 -0.3075 -0.1204
 8627TIP3   OH247371   5.706   5.896   0.662 -0.6033  0.0441 -0.3217
 8627TIP3    H147372   5.738   5.954   0.593 -3.6129  0.0004 -1.8179
 8627TIP3    H247373   5.650   5.951   0.716  0.2211 -0.3785  0.9805
 8628TIP3   OH247374   5.219   5.917   1.669 -0.1158 -0.0621 -0.0117
 8628TIP3    H147375   5.250   6.007   1.661 -1.8143  0.4199 -1.6099
 8628TIP3    H247376   5.125   5.922   1.653 -0.5313 -1.8866  1.6807
 8629TIP3   OH247377   3.227   1.285   2.910  0.2623 -0.0217  0.2566
 8629TIP3    H147378   3.319   1.311   2.917  0.3670  0.0758 -1.4025
 8629TIP3    H247379   3.200   1.315   2.823 -1.7971  1.3972  1.3304
 8630TIP3   OH247380   3.444   0.135  11.811 -0.1799 -0.2225  0.0213
 8630TIP3    H147381   3.529   0.169  11.839 -0.0192 -0.0375 -0.6878
 8630TIP3    H247382   3.414   0.197  11.744  0.4875 -1.9213 -1.8846
 8631TIP3   OH247383   4.729   2.443  16.502 -0.5200  0.1572  0.2897
 8631TIP3    H147384   4.821   2.445  16.477 -0.6909  0.7351 -0.3044
 8631TIP3    H247385   4.690   2.378  16.444 -0.6454  0.4998 -0.0108
 8632TIP3   OH247386   1.481   2.457  12.259 -0.2630 -0.4977 -0.4929
 8632TIP3    H147387   1.541   2.416  12.197 -0.2989 -1.9843  0.4533
 8632TIP3    H247388   1.529   2.533  12.293  1.0885 -1.6738  0.2510
 8633TIP3   OH247389   5.259   3.080  14.348 -0.1012 -0.1944 -0.3159
 8633TIP3    H147390   5.345   3.043  14.329  0.3165 -0.2458  1.5649
 8633TIP3    H247391   5.231   3.035  14.428 -0.3991  2.1558  0.9670
 8634TIP3   OH247392   1.110   5.951   5.237  0.4121 -0.7093  0.0298
 8634TIP3    H147393   1.142   6.016   5.175  0.8232 -1.5170 -0.6156
 8634TIP3    H247394   1.189   5.909   5.271  0.2262  0.2479  1.6804
 8635TIP3   OH247395   4.874   3.817   3.195 -0.4226  0.1788  0.2864
 8635TIP3    H147396   4.909   3.730   3.211 -0.6785 -0.1990 -1.1542
 8635TIP3    H247397   4.796   3.823   3.249 -0.6389 -0.6406  0.0637
 8636TIP3   OH247398   2.428   3.350  16.504 -0.0530  0.1807  0.1803
 8636TIP3    H147399   2.380   3.433  16.510  0.2519  0.1844  3.6697
 8636TIP3    H247400   2.442   3.324  16.595  4.4021 -1.0803 -0.7388
 8637TIP3   OH247401   5.089   6.643  14.643 -0.5570 -0.1159  0.2824
 8637TIP3    H147402   5.011   6.616  14.692 -0.6390  0.9540  0.7392
 8637TIP3    H247403   5.065   6.726  14.603  0.6230  0.6127  1.0601
 8638TIP3   OH247404   3.187   0.844   0.089  0.9898  0.4098  0.3600
 8638TIP3    H147405   3.166   0.916   0.030 -1.3270  0.8493  1.6999
 8638TIP3    H247406   3.270   0.869   0.129  2.0683  0.5991 -1.8698
 8639TIP3   OH247407   5.595   4.708  11.551 -0.2598 -0.0955  0.3976
 8639TIP3    H147408   5.585   4.803  11.560  1.9224  0.1384  0.6522
 8639TIP3    H247409   5.670   4.687  11.606 -1.0164 -2.0562  0.7232
 8640TIP3   OH247410   6.553   4.741   0.865  0.1162  0.4220  0.2169
 8640TIP3    H147411   6.498   4.747   0.787 -0.1963 -1.0585  0.3253
 8640TIP3    H247412   6.504   4.686   0.925  0.4195  1.4328  1.4230
 8641TIP3   OH247413   6.375   6.435   0.929  0.4518  0.5047 -0.0969
 8641TIP3    H147414   6.362   6.359   0.872  0.6914 -0.4530  1.1014
 8641TIP3    H247415   6.448   6.482   0.889  0.3743  0.0453 -0.7922
 8642TIP3   OH247416   3.223   3.894  11.561 -0.5537  0.1711 -0.0207
 8642TIP3    H147417   3.132   3.904  11.534 -1.2035 -3.2391  0.6264
 8642TIP3    H247418   3.273   3.898  11.480 -1.5192 -0.2793 -0.6439
 8643TIP3   OH247419   4.376   4.410  13.802  0.1618  0.4123 -0.3692
 8643TIP3    H147420   4.281   4.409  13.817  0.2838  2.7408  0.8244
 8643TIP3    H247421   4.386   4.389  13.709 -1.6095  1.4455 -0.8147
 8644TIP3   OH247422   1.556   6.742   5.744  0.4994  0.0349 -0.4980
 8644TIP3    H147423   1.573   6.661   5.696  0.2041 -0.7585  0.7240
 8644TIP3    H247424   1.607   6.734   5.824  0.2040  0.9050 -0.2207
 8645TIP3   OH247425   1.196   0.094   4.333 -0.2149 -0.4776 -0.0454
 8645TIP3    H147426   1.233   0.096   4.421  0.4561  0.5443 -0.3378
 8645TIP3    H247427   1.247   0.027   4.287  0.8373  0.4416 -0.2457
 8646TIP3   OH247428   3.496   1.193  11.280 -0.6933  0.3594  0.1199
 8646TIP3    H147429   3.417   1.168  11.232 -1.5193  0.3043  1.4823
 8646TIP3    H247430   3.568   1.153  11.231 -1.4545  0.9818 -1.5128
 8647TIP3   OH247431   4.004   0.313  16.001 -0.1504  0.0249  0.0625
 8647TIP3    H147432   3.916   0.314  15.963  0.3410 -1.0944 -1.1101
 8647TIP3    H247433   3.989   0.296  16.095 -1.1711 -0.2397 -0.1404
 8648TIP3   OH247434   5.775   3.518  11.599 -0.3583 -0.6437  0.3326
 8648TIP3    H147435   5.845   3.568  11.641 -0.2216  0.6126 -1.3423
 8648TIP3    H247436   5.737   3.579  11.535 -1.0895 -2.2495 -0.8003
 8649TIP3   OH247437   0.946   4.746   3.656 -0.3048  0.1187 -0.1860
 8649TIP3    H147438   0.946   4.749   3.561  1.0004  0.5436 -0.1895
 8649TIP3    H247439   0.855   4.729   3.680 -0.1875 -2.7835 -1.5949
 8650TIP3   OH247440   6.562   2.453  11.928 -0.1413  0.1594  0.0362
 8650TIP3    H147441   6.548   2.541  11.961 -0.4542  0.5085 -1.0030
 8650TIP3    H247442   6.527   2.455  11.839 -0.4261 -1.0906  0.1037
 8651TIP3   OH247443   0.499   2.049  15.190 -0.1492 -1.1974  0.1148
 8651TIP3    H147444   0.413   2.088  15.175  0.4258 -0.5079 -1.5549
 8651TIP3    H247445   0.558   2.099  15.133  0.9589 -3.2081 -0.5668
 8652TIP3   OH247446   6.779   1.709  12.041  0.3247 -0.5082  0.4449
 8652TIP3    H147447   6.802   1.746  11.956  2.0882 -0.9149  0.7161
 8652TIP3    H247448   6.735   1.626  12.021  0.7454 -0.6053 -0.0846
 8653TIP3   OH247449   1.769   2.851  12.870  0.5328 -0.1189  0.5159
 8653TIP3    H147450   1.793   2.794  12.798  1.7314  2.2238 -0.9763
 8653TIP3    H247451   1.680   2.825  12.893  1.2125 -2.8703  0.2054
 8654TIP3   OH247452   0.164   0.753  13.893  0.2008  0.3179 -0.1332
 8654TIP3    H147453   0.216   0.771  13.972  0.0614  0.5424 -0.0902
 8654TIP3    H247454   0.103   0.685  13.919  2.2343 -1.8623 -0.9209
 8655TIP3   OH247455   2.515   4.491   1.573 -0.0657  0.3679  0.4881
 8655TIP3    H147456   2.484   4.551   1.641  0.4272  2.3366 -0.9572
 8655TIP3    H247457   2.548   4.415   1.621  1.7817  2.3762  2.5743
 8656TIP3   OH247458   5.136   6.120  14.331 -0.0139 -0.4446 -0.5842
 8656TIP3    H147459   5.113   6.049  14.391  2.4823  0.2904  1.3225
 8656TIP3    H247460   5.097   6.198  14.370  0.1928 -0.2350 -0.7926
 8657TIP3   OH247461   2.784   1.560   4.191  0.4767  0.0477 -0.6087
 8657TIP3    H147462   2.694   1.534   4.175  0.1270  1.2215 -0.6103
 8657TIP3    H247463   2.802   1.533   4.281 -0.3846  1.1597 -0.0874
 8658TIP3   OH247464   6.483   6.663  15.614 -0.2786 -0.9920  0.6258
 8658TIP3    H147465   6.501   6.666  15.520 -0.7881 -1.0668  0.5235
 8658TIP3    H247466   6.438   6.745  15.633  1.4945 -0.1281  1.1672
 8659TIP3   OH247467   2.017   0.816  14.540  0.1545  0.4564  0.2998
 8659TIP3    H147468   2.011   0.890  14.480  0.8519  1.1041  1.0151
 8659TIP3    H247469   1.995   0.739  14.487 -2.5249  1.3722  0.0084
 8660TIP3   OH247470   1.542   4.959  11.998  0.1703 -0.0414  0.0779
 8660TIP3    H147471   1.624   4.995  11.964 -0.6337  2.4524  0.6780
 8660TIP3    H247472   1.529   5.003  12.082 -1.4484 -0.9084  0.3177
 8661TIP3   OH247473   3.262   4.863  13.916  0.4790 -0.0101  0.3665
 8661TIP3    H147474   3.262   4.835  14.008 -2.6649  0.6406  0.6533
 8661TIP3    H247475   3.201   4.937  13.914  0.1847 -0.2582 -2.3015
 8662TIP3   OH247476   0.938   6.056   5.739  0.4861 -0.4520  0.1260
 8662TIP3    H147477   1.030   6.033   5.723 -0.0162 -2.0611 -0.5461
 8662TIP3    H247478   0.938   6.152   5.742  1.8908 -0.3426 -1.8610
 8663TIP3   OH247479   2.759   2.425  11.984 -1.0010  0.1247 -0.3623
 8663TIP3    H147480   2.794   2.369  12.053  1.8442 -2.5514 -3.8142
 8663TIP3    H247481   2.797   2.512  12.002 -0.3783 -0.4902  1.4332
 8664TIP3   OH247482   2.926   6.182  12.179 -0.2320  0.3539  0.6134
 8664TIP3    H147483   2.985   6.242  12.132  0.6980 -1.1839 -0.2181
 8664TIP3    H247484   2.909   6.112  12.116  1.0188 -1.7447  2.5448
 8665TIP3   OH247485   2.890   5.560   2.740 -0.1445 -0.7978  0.0487
 8665TIP3    H147486   2.918   5.567   2.649 -2.3455  0.4976 -0.5545
 8665TIP3    H247487   2.805   5.517   2.737  0.6286 -2.5080  1.6638
 8666TIP3   OH247488   4.673   3.004   5.222  0.0879  0.3633  0.2947
 8666TIP3    H147489   4.682   3.098   5.233 -0.0109  0.2507  1.4583
 8666TIP3    H247490   4.596   2.981   5.273  0.0806 -0.3398 -0.0280
 8667TIP3   OH247491   0.486   1.092   4.092 -0.0629  0.2565  0.2568
 8667TIP3    H147492   0.473   1.185   4.105 -3.0894 -0.3555  2.0566
 8667TIP3    H247493   0.422   1.067   4.026  0.1886 -0.6932  0.3551
 8668TIP3   OH247494   6.785   5.165   0.926  0.3200 -0.0509 -0.4768
 8668TIP3    H147495   6.796   5.100   0.857  2.7067  1.0388 -1.1894
 8668TIP3    H247496   6.747   5.116   0.999  1.0188 -2.0058 -1.3855
 8669TIP3   OH247497   5.687   2.871   0.250  0.5631 -0.4250  0.8356
 8669TIP3    H147498   5.733   2.788   0.240  0.9969 -0.4462  2.7846
 8669TIP3    H247499   5.606   2.847   0.297 -0.3005 -0.0417 -0.4388
 8670TIP3   OH247500   2.952   0.697  15.318  0.5070 -0.6647 -0.3786
 8670TIP3    H147501   2.883   0.761  15.334  1.2096 -0.0002  0.0667
 8670TIP3    H247502   2.983   0.673  15.405 -0.5839 -2.5452 -0.4946
 8671TIP3   OH247503   3.706   6.084  13.500 -0.5019 -0.0944 -0.1384
 8671TIP3    H147504   3.742   6.158  13.451 -0.0978 -0.0832  0.1663
 8671TIP3    H247505   3.666   6.124  13.578 -0.0230 -0.2139  0.1770
 8672TIP3   OH247506   6.583   4.783  11.225 -0.0615 -0.6935 -0.1704
 8672TIP3    H147507   6.547   4.732  11.152  0.0221  0.1453 -0.8094
 8672TIP3    H247508   6.506   4.812  11.274 -0.1879 -0.0295 -0.7638
 8673TIP3   OH247509   1.494   4.386   6.790 -0.5915  0.2437 -0.3311
 8673TIP3    H147510   1.536   4.469   6.769  0.8942 -0.1580  0.9426
 8673TIP3    H247511   1.547   4.320   6.746 -2.4411  0.0249 -2.3046
 8674TIP3   OH247512   5.299   5.854   3.046  0.8460 -0.3699 -0.4343
 8674TIP3    H147513   5.220   5.859   2.991  1.3986 -1.8723 -1.4037
 8674TIP3    H247514   5.345   5.936   3.028  0.3711 -0.2685 -1.2199
 8675TIP3   OH247515   3.397   4.682  13.766 -0.1142  0.2353 -0.2084
 8675TIP3    H147516   3.346   4.758  13.794  0.4661  1.4245 -2.3018
 8675TIP3    H247517   3.477   4.687  13.817 -0.3721  0.6518  0.1615
 8676TIP3   OH247518   3.603   3.854  11.925  0.2189  0.0167 -0.5313
 8676TIP3    H147519   3.642   3.850  11.837  3.1931 -0.0175  0.7289
 8676TIP3    H247520   3.535   3.787  11.924 -0.5888  0.7800 -3.1478
 8677TIP3   OH247521   0.285   4.938   3.672  0.3456  0.3911  0.2885
 8677TIP3    H147522   0.244   4.857   3.641 -1.7077  1.2103  0.7454
 8677TIP3    H247523   0.227   4.968   3.743  0.6384  2.6516 -0.3948
 8678TIP3   OH247524   6.270   6.535  12.089 -0.2117 -0.5503  0.0982
 8678TIP3    H147525   6.317   6.616  12.069 -0.5880 -0.0727  1.0800
 8678TIP3    H247526   6.236   6.505  12.005  0.2422  0.1182 -0.3298
 8679TIP3   OH247527   4.474   3.514   2.852 -0.2100  0.4392 -0.3404
 8679TIP3    H147528   4.538   3.484   2.788  1.6003 -0.9252  1.9968
 8679TIP3    H247529   4.517   3.588   2.896  0.2718 -1.1872  1.9959
 8680TIP3   OH247530   6.723   2.246   4.581 -0.4016  0.1454 -0.0109
 8680TIP3    H147531   6.730   2.282   4.492  1.0736  0.7761  0.3393
 8680TIP3    H247532   6.718   2.152   4.568  1.4852  0.1052 -0.7299
 8681TIP3   OH247533   6.578   3.603  10.512 -0.2337  0.0493 -0.3991
 8681TIP3    H147534   6.482   3.595  10.505 -0.4091  0.7692  1.0861
 8681TIP3    H247535   6.598   3.572  10.600  0.5526  2.8891  0.4527
 8682TIP3   OH247536   5.512   5.752   4.738 -0.3405 -0.2775  0.1368
 8682TIP3    H147537   5.561   5.830   4.710  0.7991 -1.4713 -1.2988
 8682TIP3    H247538   5.548   5.730   4.824  1.4964 -0.9755 -0.7815
 8683TIP3   OH247539   4.146   4.986  16.493 -0.7466  0.6583  0.9787
 8683TIP3    H147540   4.107   4.995  16.580 -2.1426 -1.3543  0.6062
 8683TIP3    H247541   4.119   4.898  16.464 -1.1787  1.6964 -1.9005
 8684TIP3   OH247542   0.593   4.202  17.069  0.0693  0.1014 -1.2659
 8684TIP3    H147543   0.578   4.291  17.036 -2.0130 -0.0337 -0.7018
 8684TIP3    H247544   0.597   4.212  17.164 -0.3768 -0.4406 -1.1916
 8685TIP3   OH247545   2.177   0.374   4.435  0.8331  0.3631 -0.0186
 8685TIP3    H147546   2.181   0.313   4.509 -1.4994  0.0920 -0.0890
 8685TIP3    H247547   2.158   0.459   4.474 -0.6061  0.1839 -0.2986
 8686TIP3   OH247548   6.385   2.824  16.357 -0.2183  0.3597  0.4271
 8686TIP3    H147549   6.348   2.787  16.277  1.1652  0.0505 -0.0749
 8686TIP3    H247550   6.312   2.822  16.420 -1.0530 -0.2381 -0.5396
 8687TIP3   OH247551   6.645   4.793   3.344 -0.4400  0.5015 -0.1657
 8687TIP3    H147552   6.711   4.841   3.294 -0.0086 -0.7847 -0.8619
 8687TIP3    H247553   6.562   4.821   3.306 -0.1735  0.4187 -0.8233
 8688TIP3   OH247554   3.292   1.095   5.610 -0.2142  0.2364 -0.0813
 8688TIP3    H147555   3.336   1.080   5.694 -1.8844 -1.2148  0.5731
 8688TIP3    H247556   3.257   1.184   5.617 -1.3388 -0.3019  1.2349
 8689TIP3   OH247557   5.991   1.884  13.042 -0.6913 -0.4346  0.4723
 8689TIP3    H147558   5.906   1.901  13.083 -0.2828 -1.2384  1.6685
 8689TIP3    H247559   5.969   1.844  12.957 -1.5387  1.3594 -0.1875
 8690TIP3   OH247560   4.121   6.568  15.053 -0.2464  0.0515  0.4162
 8690TIP3    H147561   4.060   6.594  14.984 -0.4364 -3.1403 -0.7469
 8690TIP3    H247562   4.206   6.566  15.010 -0.2227 -1.0257  0.4913
 8691TIP3   OH247563   5.170   4.141  12.076  0.4834  0.4457  0.0826
 8691TIP3    H147564   5.075   4.125  12.075  0.3690  1.0492  0.6016
 8691TIP3    H247565   5.203   4.080  12.141  0.5459 -0.2513 -0.5986
 8692TIP3   OH247566   4.771   1.963  15.246 -0.0320 -0.2459  0.3160
 8692TIP3    H147567   4.820   1.935  15.324 -0.6702 -1.1947  0.3896
 8692TIP3    H247568   4.687   1.917  15.253 -0.0254 -0.4809 -1.0300
 8693TIP3   OH247569   5.608   3.337   4.417 -0.2908  0.1368  0.1648
 8693TIP3    H147570   5.525   3.295   4.439  0.1384 -0.5784  0.4302
 8693TIP3    H247571   5.603   3.423   4.460 -1.0125  0.2154 -0.0713
 8694TIP3   OH247572   5.694   6.530  10.473 -0.5012 -0.1244 -0.5579
 8694TIP3    H147573   5.773   6.584  10.478  0.5390 -1.4856 -1.9882
 8694TIP3    H247574   5.698   6.474  10.550  1.3113 -1.9861 -1.9385
 8695TIP3   OH247575   4.535   1.781   5.091 -0.1809 -0.3143  0.1647
 8695TIP3    H147576   4.445   1.767   5.064  0.3842 -2.3025 -0.8224
 8695TIP3    H247577   4.586   1.780   5.010  1.1392 -3.0800  0.9320
 8696TIP3   OH247578   4.515   3.111  15.803 -0.5021  0.4005 -0.0968
 8696TIP3    H147579   4.539   3.199  15.833  3.2867 -0.7464  0.4835
 8696TIP3    H247580   4.534   3.111  15.709  0.1251  0.0331  0.0260
 8697TIP3   OH247581   4.562   0.915  16.623 -0.2822  0.3960 -0.1221
 8697TIP3    H147582   4.579   0.821  16.618 -0.5313  0.3626 -0.3251
 8697TIP3    H247583   4.551   0.942  16.532 -1.4572  0.3972  0.0201
 8698TIP3   OH247584   3.980   4.258  13.293 -0.7002  0.0611  0.0811
 8698TIP3    H147585   3.908   4.304  13.249 -1.5513 -1.3443 -0.0303
 8698TIP3    H247586   4.019   4.324  13.350  0.8494  2.1516 -3.2172
 8699TIP3   OH247587   1.210   1.723  10.915  0.1691 -1.0336  0.0324
 8699TIP3    H147588   1.275   1.661  10.881  0.7286 -0.1139 -0.5658
 8699TIP3    H247589   1.161   1.672  10.981  0.7383 -2.0588 -0.3319
 8700TIP3   OH247590   0.446   0.859  15.604 -0.0785  0.0060  0.1092
 8700TIP3    H147591   0.535   0.835  15.628  0.7904  1.2152 -1.8013
 8700TIP3    H247592   0.420   0.794  15.539 -1.3514 -1.5145  2.0678
 8701TIP3   OH247593   4.050   6.687  12.799 -0.5707  0.3507 -0.0701
 8701TIP3    H147594   3.967   6.666  12.841 -0.2616  2.6867  1.8495
 8701TIP3    H247595   4.031   6.760  12.741 -0.1819 -0.1863 -0.8790
 8702TIP3   OH247596   3.673   2.888   5.924 -0.4972 -0.0001 -0.1077
 8702TIP3    H147597   3.600   2.943   5.898 -0.9810 -1.0660 -1.0614
 8702TIP3    H247598   3.638   2.799   5.923  0.1707 -0.3166  1.7517
 8703TIP3   OH247599   2.053   3.309   2.572  0.8573  0.3186 -0.1869
 8703TIP3    H147600   1.987   3.367   2.609  1.6788  0.6942  0.7174
 8703TIP3    H247601   2.006   3.227   2.554  0.1278  0.6116  0.3733
 8704TIP3   OH247602   2.565   0.456  13.360  0.1656 -0.0477  0.2518
 8704TIP3    H147603   2.558   0.372  13.314  1.6053 -0.1938  0.3033
 8704TIP3    H247604   2.474   0.481  13.377 -0.3204 -0.8810 -1.0557
 8705TIP3   OH247605   1.342   2.409  12.555 -0.1689  0.0774  0.1081
 8705TIP3    H147606   1.335   2.376  12.465  0.6151 -0.8851  0.3866
 8705TIP3    H247607   1.309   2.337  12.609  0.3281  0.2596  0.6543
 8706TIP3   OH247608   4.582   6.069   5.199 -1.1431  0.2785 -0.2796
 8706TIP3    H147609   4.496   6.048   5.236 -1.0516 -0.3774 -0.4416
 8706TIP3    H247610   4.610   5.989   5.155 -0.5648  0.5745 -0.4560
 8707TIP3   OH247611   3.983   2.758  15.850  0.2944  1.1979  0.1776
 8707TIP3    H147612   4.037   2.749  15.771  0.2608  0.0080  0.2848
 8707TIP3    H247613   3.894   2.735  15.821  0.1247  1.6111  0.3634
 8708TIP3   OH247614   4.786   2.365   3.385 -0.1954 -0.3814 -0.0387
 8708TIP3    H147615   4.697   2.371   3.353 -0.2639 -0.3343  0.1638
 8708TIP3    H247616   4.840   2.394   3.311 -0.3160 -0.9649 -0.3565
 8709TIP3   OH247617   5.926   3.675  11.782 -0.6261  0.0684  0.2044
 8709TIP3    H147618   5.849   3.701  11.832 -0.1960 -0.5057  1.1834
 8709TIP3    H247619   5.997   3.673  11.847  0.3003  1.0146 -0.7612
 8710TIP3   OH247620   0.503   4.619   3.016  0.2386 -0.1961  0.1857
 8710TIP3    H147621   0.515   4.651   2.927  2.2681 -2.6844 -0.4729
 8710TIP3    H247622   0.464   4.533   3.006 -1.6490  0.4206  1.8197
 8711TIP3   OH247623   5.868   6.611  13.944  0.0538  0.1593 -0.2614
 8711TIP3    H147624   5.923   6.659  14.006  0.9621 -1.4467  0.2033
 8711TIP3    H247625   5.779   6.639  13.965  0.3343 -0.4050  1.8281
 8712TIP3   OH247626   5.684   0.789   5.957  0.0619 -0.6996 -0.6714
 8712TIP3    H147627   5.664   0.697   5.973 -0.1900 -0.6000 -0.4145
 8712TIP3    H247628   5.724   0.790   5.870 -0.7723 -0.9339 -1.0560
 8713TIP3   OH247629   3.830   5.561   3.089  0.8062 -0.4050 -0.4522
 8713TIP3    H147630   3.788   5.621   3.151 -0.7885 -1.3676 -0.5664
 8713TIP3    H247631   3.922   5.557   3.117  1.1003  2.6241 -0.8739
 8714TIP3   OH247632   5.714   3.104   2.113 -0.7599  0.2589 -0.2613
 8714TIP3    H147633   5.639   3.091   2.055 -1.1572  2.1896 -0.2163
 8714TIP3    H247634   5.790   3.093   2.056 -1.0403 -1.5467 -0.3400
 8715TIP3   OH247635   0.762   5.869  12.272 -0.4843  0.1025  0.5132
 8715TIP3    H147636   0.738   5.777  12.284  0.1292  0.0077  1.0419
 8715TIP3    H247637   0.688   5.907  12.224 -2.4175  0.1889  3.4548
 8716TIP3   OH247638   2.332   0.908   3.212 -0.3027  0.2664  0.0991
 8716TIP3    H147639   2.237   0.910   3.223 -0.3805  0.3852 -0.6165
 8716TIP3    H247640   2.363   0.985   3.259 -0.4243 -0.5965  1.6320
 8717TIP3   OH247641   4.601   1.117  11.269 -0.0418 -0.7235 -0.1002
 8717TIP3    H147642   4.557   1.177  11.208  0.0459 -0.7310 -0.1696
 8717TIP3    H247643   4.683   1.161  11.292  0.1148 -0.9095 -0.3045
 8718TIP3   OH247644   6.435   6.443  12.768 -0.4234  0.0179 -0.7518
 8718TIP3    H147645   6.505   6.379  12.780 -0.4164  0.5241  2.4789
 8718TIP3    H247646   6.365   6.413  12.826 -0.8954  2.2415 -0.1318
 8719TIP3   OH247647   5.324   0.303  15.672 -0.3907  0.1031 -0.3884
 8719TIP3    H147648   5.235   0.334  15.682 -0.1738  0.7717 -0.5356
 8719TIP3    H247649   5.379   0.381  15.682  0.3590 -0.7441  2.5470
 8720TIP3   OH247650   2.887   2.500   5.379  0.2115  0.0667 -0.2389
 8720TIP3    H147651   2.807   2.448   5.388 -0.6304  1.2655 -0.6068
 8720TIP3    H247652   2.860   2.589   5.400  1.7179  0.3047  0.7616
 8721TIP3   OH247653   4.890   1.850   3.155  0.1220  0.4591  0.6841
 8721TIP3    H147654   4.804   1.840   3.196 -0.6971 -0.6361 -1.2026
 8721TIP3    H247655   4.883   1.802   3.073  2.6764  0.0599  0.6569
 8722TIP3   OH247656   4.764   3.227  12.378  0.4359  0.3087 -0.6260
 8722TIP3    H147657   4.812   3.298  12.419 -1.1664  0.2949  1.3313
 8722TIP3    H247658   4.755   3.160  12.446  0.0183 -0.8489 -1.7752
 8723TIP3   OH247659   1.175   2.343  11.242  1.0651  0.6144  0.5176
 8723TIP3    H147660   1.173   2.393  11.160  0.1638  1.0862  0.8173
 8723TIP3    H247661   1.247   2.282  11.231  1.3814  1.1357 -0.3637
 8724TIP3   OH247662   2.755   4.790  13.737  0.0773  0.6009  0.2606
 8724TIP3    H147663   2.807   4.730  13.790 -0.9725 -0.0684  0.5460
 8724TIP3    H247664   2.665   4.777  13.767 -0.5907 -0.0172 -1.8807
 8725TIP3   OH247665   2.039   2.883   1.901 -0.3397  0.3597  0.4123
 8725TIP3    H147666   2.054   2.789   1.904 -0.7943  0.3070  1.6150
 8725TIP3    H247667   2.126   2.921   1.888 -0.1506 -0.2271 -0.0222
 8726TIP3   OH247668   5.686   4.783   5.743 -0.5884  0.1489 -0.3736
 8726TIP3    H147669   5.608   4.837   5.736 -2.8071 -3.1102 -2.4218
 8726TIP3    H247670   5.654   4.699   5.778  2.4637 -0.3966  1.3084
 8727TIP3   OH247671   6.739   3.324   4.135 -0.3050 -0.5142 -0.1134
 8727TIP3    H147672   6.702   3.265   4.201 -1.4614 -0.0695 -0.3516
 8727TIP3    H247673   6.833   3.319   4.149 -0.5706 -0.0516  1.8984
 8728TIP3   OH247674   3.269   6.537  16.628 -0.2256 -0.2988  0.1316
 8728TIP3    H147675   3.223   6.460  16.596  0.3698 -0.2300 -0.9168
 8728TIP3    H247676   3.343   6.548  16.568  0.4096  0.3561  1.0077
 8729TIP3   OH247677   0.382   2.408   5.925 -0.0060 -0.2737 -0.0030
 8729TIP3    H147678   0.321   2.366   5.987  0.1818 -0.2192  0.2214
 8729TIP3    H247679   0.387   2.499   5.954  0.7061 -0.4375  0.3943
 8730TIP3   OH247680   3.687   5.041   4.273 -0.1396  1.1859 -0.0752
 8730TIP3    H147681   3.667   5.046   4.367 -0.0247 -2.0562  0.1823
 8730TIP3    H247682   3.612   5.082   4.230 -0.1694  2.7355  1.4227
 8731TIP3   OH247683   0.018   3.567  11.413 -0.2378  0.4705 -0.3534
 8731TIP3    H147684   0.016   3.474  11.434 -0.8919  0.1563 -1.7131
 8731TIP3    H247685  -0.056   3.604  11.461 -1.9089 -0.2915 -2.2713
 8732TIP3   OH247686   2.670   3.303  11.199 -0.5671 -0.3204 -0.4524
 8732TIP3    H147687   2.669   3.280  11.106  1.3640  0.3068 -0.6440
 8732TIP3    H247688   2.620   3.234  11.241  0.5478 -1.9036 -1.6733
 8733TIP3   OH247689   0.460   0.417   3.917  0.2269  0.4435 -0.0308
 8733TIP3    H147690   0.477   0.468   3.996 -3.1697 -0.2107  1.2074
 8733TIP3    H247691   0.465   0.325   3.946  1.7017  0.1318 -1.2108
 8734TIP3   OH247692   3.162   4.088  13.032 -0.4757 -0.5183  0.5393
 8734TIP3    H147693   3.081   4.041  13.015 -0.0814 -1.3423  0.9140
 8734TIP3    H247694   3.170   4.087  13.128 -1.5499  2.1513  0.7200
 8735TIP3   OH247695   2.570   6.144  15.184 -0.3505 -0.0771  0.2358
 8735TIP3    H147696   2.514   6.119  15.110 -0.6437 -1.8488  1.0318
 8735TIP3    H247697   2.655   6.163  15.143 -0.8865  0.3381 -0.7094
 8736TIP3   OH247698   4.043   4.198   1.656 -0.2081  0.3128  0.1040
 8736TIP3    H147699   4.120   4.143   1.643 -0.1689  0.0897  1.1870
 8736TIP3    H247700   4.064   4.280   1.613  0.0441 -0.2610 -0.8660
 8737TIP3   OH247701   2.582   5.991  17.080  0.5352 -0.1646  0.2625
 8737TIP3    H147702   2.514   5.924  17.096  0.7441 -0.5331 -0.3768
 8737TIP3    H247703   2.647   5.975  17.148 -0.2732  0.5307  1.2163
 8738TIP3   OH247704   1.202   5.199   2.800 -0.4563 -0.6508  0.0559
 8738TIP3    H147705   1.223   5.119   2.751 -1.4058 -0.7454 -0.1933
 8738TIP3    H247706   1.122   5.179   2.847 -0.2105 -0.1406  0.6965
 8739TIP3   OH247707   6.211   5.047   2.788 -0.4856  0.6386 -0.8735
 8739TIP3    H147708   6.261   4.999   2.723 -1.7578  0.2076 -1.5571
 8739TIP3    H247709   6.211   5.137   2.757  1.0968  0.9300 -0.0902
 8740TIP3   OH247710   3.466   2.098  14.665  0.0579 -0.2335  0.3817
 8740TIP3    H147711   3.494   2.159  14.596 -0.9397  0.1825  0.3248
 8740TIP3    H247712   3.370   2.100  14.660  0.0182 -2.0916  0.1502
 8741TIP3   OH247713   3.439   5.009  17.061 -0.3769 -0.6461  0.0218
 8741TIP3    H147714   3.412   5.049  16.979  2.0806 -1.2134 -1.1119
 8741TIP3    H247715   3.370   4.947  17.082 -0.7895 -0.8415 -1.8840
 8742TIP3   OH247716   5.472   1.080  13.966  0.3377  0.2538 -0.2884
 8742TIP3    H147717   5.456   1.163  14.011  2.6775  1.4523 -1.5822
 8742TIP3    H247718   5.397   1.069  13.907 -0.8964  0.4946  1.2058
 8743TIP3   OH247719   1.047   3.213   3.645  0.4812 -0.1521  0.2007
 8743TIP3    H147720   1.085   3.266   3.715 -0.6295  0.1582  0.5789
 8743TIP3    H247721   1.109   3.140   3.634 -0.4311 -1.4368  3.0386
 8744TIP3   OH247722   5.519   1.731   3.392  0.9543  0.3839  0.0587
 8744TIP3    H147723   5.554   1.667   3.330  0.2586 -1.2262  1.2913
 8744TIP3    H247724   5.557   1.705   3.476 -0.3444  0.8150  0.7797
 8745TIP3   OH247725   0.487   6.319   5.022 -0.1824 -0.1563  0.9351
 8745TIP3    H147726   0.497   6.275   5.106 -1.9271  0.6093  1.5761
 8745TIP3    H247727   0.431   6.395   5.041  1.2948  1.3427 -0.4717
 8746TIP3   OH247728   3.920   0.405  14.157 -0.5564  0.0628 -0.0944
 8746TIP3    H147729   3.977   0.481  14.146 -2.5893  1.5886 -0.3276
 8746TIP3    H247730   3.887   0.387  14.069  1.0729 -2.0757 -0.3245
 8747TIP3   OH247731   5.821   1.188   4.636 -0.0942  0.4326 -0.1294
 8747TIP3    H147732   5.812   1.207   4.730  1.8439  1.9985 -0.2352
 8747TIP3    H247733   5.914   1.196   4.619 -0.5992  1.6288 -2.4929
 8748TIP3   OH247734   6.214   0.072   6.147  0.1708 -0.0845  0.0070
 8748TIP3    H147735   6.134   0.082   6.200 -0.4635 -2.0394 -0.5200
 8748TIP3    H247736   6.217  -0.021   6.126  2.7148 -0.0666  0.1511
 8749TIP3   OH247737   6.174   5.899  11.386 -0.4485  0.0455  0.1872
 8749TIP3    H147738   6.108   5.967  11.379  1.4768  1.9744  0.1968
 8749TIP3    H247739   6.182   5.864  11.297 -0.5304  0.7152 -0.0826
 8750TIP3   OH247740   2.353   5.402   2.074  0.1938 -0.1893  0.4638
 8750TIP3    H147741   2.271   5.362   2.105  0.8105 -1.7437  0.1540
 8750TIP3    H247742   2.410   5.401   2.151 -0.0480  0.8285  0.6600
 8751TIP3   OH247743   2.949   2.005   2.756 -0.1997  0.1399  0.0537
 8751TIP3    H147744   2.860   2.030   2.732 -0.6976 -1.9737 -0.4619
 8751TIP3    H247745   2.949   2.004   2.852  0.3656  3.7652  0.1414
 8752TIP3   OH247746   1.401   4.156  13.403  0.0370  0.4128 -0.2701
 8752TIP3    H147747   1.336   4.166  13.333  1.5097 -1.1784 -1.9158
 8752TIP3    H247748   1.372   4.080  13.452  1.0652 -0.8073 -1.5110
 8753TIP3   OH247749   2.641   4.880   1.535 -0.0758  0.1033  0.3950
 8753TIP3    H147750   2.691   4.959   1.513  0.1913 -0.0588  0.4190
 8753TIP3    H247751   2.656   4.820   1.462 -0.1397  0.0096  0.4589
 8754TIP3   OH247752   0.020   1.123  16.057  0.1171 -0.7183 -0.2339
 8754TIP3    H147753   0.089   1.070  16.096 -0.9739 -0.0067  2.8161
 8754TIP3    H247754   0.031   1.209  16.097 -2.3646 -0.5443  0.1767
 8755TIP3   OH247755   1.301   2.048  13.989  0.3817  0.3165 -0.0681
 8755TIP3    H147756   1.249   2.128  14.001 -0.0219 -0.1506  1.3336
 8755TIP3    H247757   1.265   2.009  13.909 -1.1147  0.2540  0.6227
 8756TIP3   OH247758   2.879   3.579  12.860 -0.3279 -0.1315  0.2214
 8756TIP3    H147759   2.913   3.644  12.922  0.7086 -0.0210 -0.4577
 8756TIP3    H247760   2.800   3.545  12.903  1.5153 -1.6325  2.6001
 8757TIP3   OH247761   1.705   5.068  11.126  0.0647 -0.2549 -0.2338
 8757TIP3    H147762   1.792   5.066  11.085  0.5369  0.7395  0.6964
 8757TIP3    H247763   1.719   5.031  11.213 -0.2657  0.7027  0.2334
 8758TIP3   OH247764   0.671   1.099  14.178  0.0775  0.0681  0.1211
 8758TIP3    H147765   0.578   1.075  14.181  0.0725  0.0954  0.1768
 8758TIP3    H247766   0.686   1.121  14.086 -0.3061  1.4100  0.3688
 8759TIP3   OH247767   3.665   1.423  12.328 -0.2139  0.7433  0.3864
 8759TIP3    H147768   3.685   1.493  12.389  0.9922  0.1712  0.6580
 8759TIP3    H247769   3.671   1.464  12.241 -2.5549  1.7124  0.6325
 8760TIP3   OH247770   4.250   4.248  17.280 -0.2940 -0.5116 -0.1986
 8760TIP3    H147771   4.238   4.299  17.200  3.7866  0.3733 -0.3368
 8760TIP3    H247772   4.214   4.304  17.350 -2.1701 -0.5032 -1.1232
 8761TIP3   OH247773   3.094   1.085   2.276  0.2275  0.0856  0.1332
 8761TIP3    H147774   3.183   1.051   2.268  0.0401 -0.2249 -0.7811
 8761TIP3    H247775   3.054   1.034   2.346  0.1003 -1.2643 -0.9098
 8762TIP3   OH247776   3.464   6.713  14.979 -0.0919 -0.1536 -0.8245
 8762TIP3    H147777   3.526   6.646  15.006  1.5240  1.1645 -1.1795
 8762TIP3    H247778   3.503   6.751  14.900 -1.5411  0.4496 -1.2691
 8763TIP3   OH247779   3.493   1.792   5.403  0.3049 -0.0476 -0.1531
 8763TIP3    H147780   3.449   1.710   5.427  1.1196  0.2188  2.4434
 8763TIP3    H247781   3.482   1.848   5.480  1.6019  1.5038 -1.0762
 8764TIP3   OH247782   1.782   6.098  12.765  0.2176 -0.3443 -0.1817
 8764TIP3    H147783   1.795   6.124  12.857  1.9914  2.7822 -1.2381
 8764TIP3    H247784   1.727   6.167  12.728 -0.8587 -1.8222 -1.3920
 8765TIP3   OH247785   2.606   5.148   4.043 -0.5643 -0.4759 -0.3256
 8765TIP3    H147786   2.517   5.114   4.042 -0.7618 -0.2054  2.6142
 8765TIP3    H247787   2.597   5.239   4.072  0.6776 -0.5371  0.3023
 8766TIP3   OH247788   2.274   3.804   4.673  0.2425 -0.9019 -0.9125
 8766TIP3    H147789   2.328   3.855   4.612 -0.0787 -1.5643 -1.7562
 8766TIP3    H247790   2.221   3.870   4.718  0.3415 -0.4277 -1.4810
 8767TIP3   OH247791   6.337   4.788   4.235  0.5239  0.1325 -0.0533
 8767TIP3    H147792   6.292   4.844   4.298  0.3286 -0.0756 -0.0078
 8767TIP3    H247793   6.300   4.814   4.150 -1.8255 -2.0576  0.2590
 8768TIP3   OH247794   3.047   3.771   1.937  0.1177  0.2747  0.0492
 8768TIP3    H147795   3.058   3.696   1.995 -1.3601  0.9544  1.2356
 8768TIP3    H247796   3.134   3.810   1.933  0.2961  0.1020  1.6552
 8769TIP3   OH247797   1.632   4.840   3.862  0.1321  0.2344 -0.4054
 8769TIP3    H147798   1.717   4.834   3.819 -0.5559 -1.2605 -1.5906
 8769TIP3    H247799   1.646   4.801   3.949  0.6636  0.0657 -0.5672
 8770TIP3   OH247800   2.928   3.077   0.076 -0.2661  0.3353 -0.1527
 8770TIP3    H147801   2.924   2.982   0.062 -0.7006  0.2564  0.4744
 8770TIP3    H247802   2.887   3.090   0.161  1.7455  0.8808  0.7595
 8771TIP3   OH247803   6.515   4.711   3.923 -0.0845 -0.1401  0.3957
 8771TIP3    H147804   6.511   4.784   3.862  0.0765 -0.7963 -0.4166
 8771TIP3    H247805   6.556   4.746   4.001  1.4281  0.2420 -0.5566
 8772TIP3   OH247806   4.012   4.852   2.853 -0.0391 -0.4325  0.2191
 8772TIP3    H147807   4.094   4.803   2.858  0.1038 -0.1156  1.0806
 8772TIP3    H247808   3.969   4.836   2.937 -0.4148  0.1780  0.1497
 8773TIP3   OH247809   2.426   6.639   3.621 -0.0660  0.7716 -0.6846
 8773TIP3    H147810   2.426   6.729   3.587 -0.0859  1.2146  0.4745
 8773TIP3    H247811   2.466   6.646   3.708 -1.9230 -0.0133  0.2612
 8774TIP3   OH247812   1.061   1.575   0.459 -0.2647 -0.3003 -0.0942
 8774TIP3    H147813   1.066   1.615   0.546  1.0288  1.0086 -0.7470
 8774TIP3    H247814   1.152   1.557   0.436 -0.5841 -0.4747 -1.2501
 8775TIP3   OH247815   3.842   2.077  10.832  0.0815  0.5329  0.5774
 8775TIP3    H147816   3.773   2.018  10.861 -0.2449 -0.0477 -1.3177
 8775TIP3    H247817   3.923   2.038  10.865 -0.1413 -0.9338 -0.5665
 8776TIP3   OH247818   6.719   6.683   3.997 -0.5375  0.5165  0.9896
 8776TIP3    H147819   6.754   6.600   3.965 -0.3782  1.4330 -1.3104
 8776TIP3    H247820   6.736   6.681   4.092 -1.2697 -2.3889  1.1226
 8777TIP3   OH247821   4.288   2.766  13.850 -0.5473  0.1412  0.0790
 8777TIP3    H147822   4.367   2.815  13.825 -1.4907  1.5215 -0.2180
 8777TIP3    H247823   4.322   2.683  13.883  1.0198  0.5342 -0.4698
 8778TIP3   OH247824   6.260   3.945   5.386  0.0625 -0.1178 -0.0863
 8778TIP3    H147825   6.267   4.037   5.359 -2.5510  0.2209  0.2956
 8778TIP3    H247826   6.315   3.940   5.465 -0.2812  1.2761  0.2603
 8779TIP3   OH247827   6.608   0.405   3.376  0.0965  0.7845  0.5080
 8779TIP3    H147828   6.577   0.486   3.336 -1.6752  0.1641  0.5896
 8779TIP3    H247829   6.594   0.418   3.470 -1.5594 -0.1631  0.4101
 8780TIP3   OH247830   1.457   5.417   6.478  0.1147 -0.3458 -0.1365
 8780TIP3    H147831   1.488   5.335   6.516  1.0812  0.4473  0.8194
 8780TIP3    H247832   1.500   5.422   6.393 -0.7907 -1.3455 -0.6629
 8781TIP3   OH247833   0.603   6.703   1.504  0.3322 -0.1044 -0.3554
 8781TIP3    H147834   0.564   6.780   1.462 -1.8605 -0.9565  0.0783
 8781TIP3    H247835   0.548   6.630   1.477  1.6799 -1.3655  0.2300
 8782TIP3   OH247836   1.045   2.050   5.154  0.0241  0.1141 -0.0427
 8782TIP3    H147837   1.059   2.142   5.129 -1.7221  0.3870 -0.0436
 8782TIP3    H247838   0.999   2.055   5.238  0.4845 -0.7799  0.2759
 8783TIP3   OH247839   6.157   6.435  11.850  0.1143  0.4155  0.1992
 8783TIP3    H147840   6.144   6.342  11.829  2.0430 -0.0185  0.8436
 8783TIP3    H247841   6.070   6.465  11.877 -1.2350 -0.3872 -2.9796
 8784TIP3   OH247842   4.071   1.030  17.180 -0.2040  0.7894 -0.0271
 8784TIP3    H147843   4.134   1.045  17.250  0.3451 -1.1124 -0.0686
 8784TIP3    H247844   4.012   1.105  17.184  1.7200  2.3257  0.3760
 8785TIP3   OH247845   0.576   6.630  16.516  0.0507  0.0922 -0.2930
 8785TIP3    H147846   0.644   6.677  16.467 -0.3405  2.2213  1.1510
 8785TIP3    H247847   0.588   6.658  16.607 -1.4061 -1.1582  0.3010
 8786TIP3   OH247848   5.992   3.494   0.457 -0.2180 -0.5706 -0.3070
 8786TIP3    H147849   5.977   3.438   0.381 -0.5740 -0.4232 -0.3474
 8786TIP3    H247850   6.015   3.579   0.420  2.2519 -1.1734 -0.2529
 8787TIP3   OH247851   5.616   1.336   3.596 -0.1940 -0.0839  0.2171
 8787TIP3    H147852   5.609   1.393   3.520 -2.4991 -0.4053  0.1440
 8787TIP3    H247853   5.588   1.250   3.564  0.5433 -0.6170  0.9890
 8788TIP3   OH247854   3.329   0.515  14.425  0.3720 -0.1287  0.0297
 8788TIP3    H147855   3.311   0.477  14.511  2.8693  0.5552  0.8804
 8788TIP3    H247856   3.244   0.548  14.395 -0.3769  0.3200  2.5653
 8789TIP3   OH247857   2.030   0.511   3.762 -0.3929 -0.3955  0.4189
 8789TIP3    H147858   1.994   0.423   3.747 -4.8274  1.1782  1.1244
 8789TIP3    H247859   1.980   0.567   3.704  3.4802  1.5627 -1.1943
 8790TIP3   OH247860   2.512   0.433  10.889  0.2837 -0.2336  0.5408
 8790TIP3    H147861   2.535   0.497  10.822 -0.0202  0.3490  0.9858
 8790TIP3    H247862   2.426   0.400  10.862 -0.5194  1.0873  1.4223
 8791TIP3   OH247863   2.727   5.904   2.799  0.8601 -0.0970 -0.0419
 8791TIP3    H147864   2.702   5.985   2.842  1.2356  0.1741 -0.3312
 8791TIP3    H247865   2.821   5.895   2.816  0.4358 -1.5097  1.7082
 8792TIP3   OH247866   1.280   4.683   2.342 -0.7683  0.2466 -0.2043
 8792TIP3    H147867   1.324   4.724   2.416 -1.3900  1.8238 -0.6824
 8792TIP3    H247868   1.327   4.718   2.265 -0.7165 -0.6570 -0.5853
 8793TIP3   OH247869   1.460   6.019  13.012  0.7855 -0.0716  0.2824
 8793TIP3    H147870   1.522   5.954  12.977 -0.1448 -0.5578 -0.4712
 8793TIP3    H247871   1.412   5.971  13.079 -0.8039 -0.5642 -1.1686
 8794TIP3   OH247872   6.191   4.923  11.809  0.2068  0.3386  0.1595
 8794TIP3    H147873   6.185   4.872  11.890  0.5932 -0.7133 -0.4583
 8794TIP3    H247874   6.132   4.877  11.749 -0.3458  1.3169 -0.0538
 8795TIP3   OH247875   1.975   1.464  12.571  0.6809 -0.2920  0.2275
 8795TIP3    H147876   1.923   1.538  12.601 -1.1002 -1.5010  0.1716
 8795TIP3    H247877   2.010   1.425  12.651 -0.9134 -1.2167  0.4904
 8796TIP3   OH247878   1.253   1.809  15.941  0.0302 -0.5783 -0.1714
 8796TIP3    H147879   1.218   1.862  16.012 -0.1697  1.6437 -1.8794
 8796TIP3    H247880   1.316   1.751  15.984  1.0862  1.8079  1.6171
 8797TIP3   OH247881   6.400   5.990   2.316 -0.0149  0.0633 -0.6481
 8797TIP3    H147882   6.477   6.004   2.370  0.0116 -0.1279 -0.6343
 8797TIP3    H247883   6.327   5.984   2.378  0.0510 -0.4120 -0.6180
 8798TIP3   OH247884   1.441   4.120  12.061  0.1103  0.1771  0.4520
 8798TIP3    H147885   1.430   4.028  12.037 -0.4357  0.1588  0.7856
 8798TIP3    H247886   1.433   4.167  11.978 -2.9417  0.2162  0.7382
 8799TIP3   OH247887   4.920   4.212  12.967 -0.0907  0.1380 -0.2348
 8799TIP3    H147888   4.991   4.148  12.980 -1.7706 -1.8229 -0.3685
 8799TIP3    H247889   4.962   4.286  12.924  1.5965 -1.6320 -1.7581
 8800TIP3   OH247890   4.429   2.162   4.495  0.6514  0.1212  0.6018
 8800TIP3    H147891   4.443   2.168   4.401  0.0868  1.8652  0.6113
 8800TIP3    H247892   4.502   2.109   4.527 -1.2787 -3.8952 -1.2878
 8801TIP3   OH247893   3.430   4.617  16.655  0.1405  0.6362  0.1788
 8801TIP3    H147894   3.488   4.642  16.582  0.3794 -1.7017 -0.4598
 8801TIP3    H247895   3.368   4.557  16.616 -1.3163  1.3274  1.3923
 8802TIP3   OH247896   3.002   0.596   1.494 -0.5414  0.2814 -0.2601
 8802TIP3    H147897   2.962   0.538   1.430 -2.7053 -0.0854  1.3271
 8802TIP3    H247898   3.090   0.562   1.507 -0.9748 -1.1904 -1.1018
 8803TIP3   OH247899   4.248   5.075  11.998 -0.4895  0.4305  0.1074
 8803TIP3    H147900   4.264   4.982  11.981 -2.3700  0.1030 -0.0237
 8803TIP3    H247901   4.293   5.092  12.081  1.2600 -0.1628 -0.6959
 8804TIP3   OH247902   3.964   1.116  16.265 -0.4073  0.0939  0.3200
 8804TIP3    H147903   3.891   1.164  16.226 -0.2568  0.2048  0.1733
 8804TIP3    H247904   4.035   1.124  16.201  0.4136  1.8079  1.4100
 8805TIP3   OH247905   0.910   6.536  13.066  0.0295 -0.0901  0.6879
 8805TIP3    H147906   0.936   6.459  13.118  1.3985 -1.0924 -1.4016
 8805TIP3    H247907   0.959   6.608  13.105 -0.0590 -0.5711  1.7008
 8806TIP3   OH247908   0.432   1.430  15.786 -0.2261 -0.7829 -0.2278
 8806TIP3    H147909   0.488   1.401  15.714  2.6194  1.6862  0.8989
 8806TIP3    H247910   0.490   1.436  15.862 -2.3509  0.2727  1.4047
 8807TIP3   OH247911   0.302   4.209  14.990  0.3117  0.0471  0.1161
 8807TIP3    H147912   0.222   4.200  14.939  0.7894 -1.5112 -0.4006
 8807TIP3    H247913   0.273   4.245  15.074 -0.5707  1.9083 -0.9601
 8808TIP3   OH247914   1.626   1.864  12.591  0.1962  0.2873 -0.3326
 8808TIP3    H147915   1.643   1.848  12.499  1.0397  2.7749 -0.6353
 8808TIP3    H247916   1.531   1.866  12.598  0.1221 -0.4064 -1.0284
 8809TIP3   OH247917   0.095   5.497  14.837 -0.3832 -0.1495  0.3692
 8809TIP3    H147918   0.049   5.580  14.826 -1.1397 -0.7692 -1.1970
 8809TIP3    H247919   0.051   5.456  14.912  0.1347  0.9348  1.2897
 8810TIP3   OH247920   4.476   4.430  16.159  0.0582 -0.2166 -0.2284
 8810TIP3    H147921   4.450   4.417  16.250 -1.4643 -0.4307 -0.6840
 8810TIP3    H247922   4.508   4.345  16.130 -1.2028 -0.6258 -0.4423
 8811TIP3   OH247923   0.348   0.201  12.834 -0.0116 -0.5492  0.0493
 8811TIP3    H147924   0.257   0.227  12.846 -0.2391 -1.8154  1.2334
 8811TIP3    H247925   0.346   0.105  12.837  1.3285 -0.5926 -0.0525
 8812TIP3   OH247926   1.894   2.585  13.480  0.0295 -0.4704 -0.4072
 8812TIP3    H147927   1.848   2.617  13.403 -1.3834  1.8749  1.3511
 8812TIP3    H247928   1.828   2.537  13.530  0.3018  0.1019  0.5169
 8813TIP3   OH247929   1.896   4.085   3.010  0.3412  0.2279  0.0313
 8813TIP3    H147930   1.890   4.015   3.075 -1.2508  0.8974  0.6596
 8813TIP3    H247931   1.892   4.165   3.062  3.1363  0.8230 -0.5953
 8814TIP3   OH247932   0.400   2.100   2.474  0.4932  0.4418 -0.8840
 8814TIP3    H147933   0.463   2.057   2.416  0.8534  0.6639 -0.6618
 8814TIP3    H247934   0.412   2.056   2.558 -1.7641 -1.5732 -1.5826
 8815TIP3   OH247935   0.790   4.933   1.350 -0.7945 -0.0387 -1.2505
 8815TIP3    H147936   0.869   4.920   1.297  0.6153 -0.0894  0.8398
 8815TIP3    H247937   0.744   4.849   1.345  1.2347 -1.3178  0.6591
 8816TIP3   OH247938   4.226   3.429  15.415  0.0390 -0.2527  0.2657
 8816TIP3    H147939   4.132   3.443  15.410 -0.4392 -2.7933  1.2677
 8816TIP3    H247940   4.258   3.448  15.327 -1.6189 -0.8074 -0.4735
 8817TIP3   OH247941   6.534   3.781  12.125 -0.6823 -0.3223 -0.0027
 8817TIP3    H147942   6.526   3.875  12.115 -1.3962 -0.4709 -0.9198
 8817TIP3    H247943   6.529   3.766  12.219  0.6486  0.6475  0.2378
 8818TIP3   OH247944   4.883   0.456   0.932 -0.2664 -0.2874  0.3179
 8818TIP3    H147945   4.924   0.373   0.909 -1.1308 -1.2769  2.2248
 8818TIP3    H247946   4.956   0.514   0.954  0.2617 -1.0186  0.5047
 8819TIP3   OH247947   5.760   4.116   2.509 -0.2413  1.0751  0.1377
 8819TIP3    H147948   5.675   4.109   2.465 -0.2010  0.8344  0.1003
 8819TIP3    H247949   5.749   4.189   2.570 -0.9889 -0.0174  1.3222
 8820TIP3   OH247950   0.307   1.800   1.350  0.3636 -0.0735 -0.1883
 8820TIP3    H147951   0.351   1.717   1.368 -0.0988 -0.5509 -1.2296
 8820TIP3    H247952   0.351   1.834   1.271 -0.8200 -0.3328 -0.9696
 8821TIP3   OH247953   0.122   5.494   1.788  0.4407  0.1122  0.5278
 8821TIP3    H147954   0.168   5.546   1.854 -0.1980  1.7883 -0.3082
 8821TIP3    H247955   0.149   5.532   1.704 -0.1498 -0.8121 -0.0936
 8822TIP3   OH247956   4.419   1.520   4.454  0.3054 -0.1118  0.0285
 8822TIP3    H147957   4.338   1.470   4.445 -0.2990  0.3662  2.4675
 8822TIP3    H247958   4.427   1.536   4.548  2.9466  0.3358 -0.2302
 8823TIP3   OH247959   5.146   2.722   3.876  0.5801  0.0845  0.3701
 8823TIP3    H147960   5.133   2.792   3.939  0.7252 -1.0649  1.7003
 8823TIP3    H247961   5.096   2.648   3.911  1.5364 -0.9066 -0.2971
 8824TIP3   OH247962   2.540   0.207   2.958 -0.1973  0.0857 -0.2322
 8824TIP3    H147963   2.521   0.265   3.031  2.4762  1.0043 -0.2002
 8824TIP3    H247964   2.547   0.265   2.882 -0.1658 -0.5286 -0.7112
 8825TIP3   OH247965   6.428   5.657  15.951 -0.4168  0.1690 -0.6912
 8825TIP3    H147966   6.477   5.662  16.033 -0.9992 -1.1587 -0.2515
 8825TIP3    H247967   6.379   5.738  15.947 -0.6633  0.0782  0.4569
 8826TIP3   OH247968   0.801   0.931  13.796 -0.0150 -0.5702  1.0750
 8826TIP3    H147969   0.814   0.859  13.735 -1.2664 -2.3104  2.7799
 8826TIP3    H247970   0.882   0.982  13.793  0.2971 -1.1848 -1.2703
 8827TIP3   OH247971   2.908   5.719   4.711 -0.4696  0.5639 -0.2618
 8827TIP3    H147972   2.973   5.788   4.700 -0.7201  0.6772 -1.1079
 8827TIP3    H247973   2.935   5.672   4.790  0.7696  0.4721 -0.7345
 8828TIP3   OH247974   5.323   1.509   0.414 -0.6574  0.1523 -0.1297
 8828TIP3    H147975   5.236   1.545   0.434  0.3113  2.0597  0.7720
 8828TIP3    H247976   5.321   1.420   0.446 -1.9058  0.5588  0.9345
 8829TIP3   OH247977   2.045   3.925   4.805 -0.6700  0.6122 -0.0686
 8829TIP3    H147978   2.055   3.884   4.891  0.0863  0.3114 -0.3005
 8829TIP3    H247979   1.967   3.884   4.767 -0.2885 -0.1432 -0.0362
 8830TIP3   OH247980   5.623   0.631   2.753 -0.3620 -0.0058 -0.5258
 8830TIP3    H147981   5.600   0.723   2.760 -1.0270 -0.0449 -2.0665
 8830TIP3    H247982   5.561   0.586   2.811 -0.5754  0.4355 -0.4131
 8831TIP3   OH247983   1.908   2.202   1.167  0.1626 -0.0690  0.3151
 8831TIP3    H147984   1.980   2.160   1.119 -0.7162  0.0940 -1.1708
 8831TIP3    H247985   1.845   2.131   1.182  0.0157  0.0875  0.4413
 8832TIP3   OH247986   4.315   3.737   3.008  0.4523 -0.7006 -0.1616
 8832TIP3    H147987   4.372   3.661   3.018 -0.4040 -1.3359 -0.0993
 8832TIP3    H247988   4.364   3.809   3.048  2.2135 -0.7561 -2.1251
 8833TIP3   OH247989   4.167   6.416   0.476 -0.5887  0.0298 -0.4101
 8833TIP3    H147990   4.175   6.322   0.458 -1.2499 -0.0216 -0.4710
 8833TIP3    H247991   4.086   6.424   0.526  1.4022  0.1343  2.9363
 8834TIP3   OH247992   4.563   0.753  14.300 -0.1329  0.0441  0.2008
 8834TIP3    H147993   4.521   0.795  14.375  1.6532  2.4330 -0.0803
 8834TIP3    H247994   4.508   0.777  14.225 -2.2114 -2.7653  0.6990
 8835TIP3   OH247995   1.291   1.373   3.643  0.2725 -0.0712 -0.3953
 8835TIP3    H147996   1.323   1.300   3.591  0.9641 -1.5320  2.0178
 8835TIP3    H247997   1.350   1.446   3.620 -1.4720  0.2850 -4.0889
 8836TIP3   OH247998   0.630   2.281   2.483  0.7959 -0.3702  0.5200
 8836TIP3    H147999   0.553   2.224   2.491 -1.3669  1.9694 -2.2822
 8836TIP3    H248000   0.621   2.344   2.555 -0.5713  0.5359 -0.4010
 8837TIP3   OH248001   6.253   0.730   1.366  0.0109 -0.4481  0.2433
 8837TIP3    H148002   6.219   0.795   1.305 -0.0135 -1.4491 -0.8248
 8837TIP3    H248003   6.291   0.662   1.310  1.4486 -0.5834  1.3756
 8838TIP3   OH248004   2.465   0.386  15.939  0.4301 -0.6035  0.3774
 8838TIP3    H148005   2.438   0.393  15.847 -0.4094  3.0178  0.8204
 8838TIP3    H248006   2.558   0.409  15.939  0.0375  1.0119  0.6219
 8839TIP3   OH248007   3.951   2.013   3.722  0.0689 -0.1146  0.2131
 8839TIP3    H148008   3.922   1.983   3.636 -0.0608 -2.1919  0.9661
 8839TIP3    H248009   3.911   1.952   3.784  0.9266  0.7870  1.6879
 8840TIP3   OH248010   4.038   4.872  12.948 -0.1192  0.4198 -0.4961
 8840TIP3    H148011   4.121   4.909  12.980 -0.2134 -0.4456  0.7575
 8840TIP3    H248012   4.053   4.778  12.943 -1.0397  0.2542 -0.2502
 8841TIP3   OH248013   1.594   6.245  11.521  0.3791  0.6438  0.0117
 8841TIP3    H148014   1.536   6.264  11.447 -1.6672 -0.0357  1.4093
 8841TIP3    H248015   1.617   6.153  11.511 -1.5684 -0.0021  1.3433
 8842TIP3   OH248016   5.122   2.599  15.589 -0.6315  0.2122 -0.8508
 8842TIP3    H148017   5.082   2.513  15.583 -0.6919  0.1394  0.3304
 8842TIP3    H248018   5.211   2.582  15.619 -0.3474  0.4944 -1.5471
 8843TIP3   OH248019   3.360   1.541   4.310 -0.3768  0.0987  0.3927
 8843TIP3    H148020   3.381   1.497   4.393 -1.3877  0.5289  0.8859
 8843TIP3    H248021   3.440   1.587   4.286  0.3600 -1.1687  0.4096
 8844TIP3   OH248022   6.776   2.549  10.583 -0.4157 -0.4440  0.4106
 8844TIP3    H148023   6.722   2.526  10.507 -1.9963 -0.6352  1.5817
 8844TIP3    H248024   6.848   2.486  10.581  0.5842  0.7013 -1.9806
 8845TIP3   OH248025   4.523   4.155   1.870  0.4458  0.4060  0.6130
 8845TIP3    H148026   4.558   4.191   1.789 -1.4244  2.5839  0.7207
 8845TIP3    H248027   4.434   4.127   1.848  0.7426 -1.1678  1.3442
 8846TIP3   OH248028   4.074   0.723  12.282  0.6576  0.2622 -0.1740
 8846TIP3    H148029   4.086   0.652  12.219 -0.0558 -0.8083  0.8931
 8846TIP3    H248030   4.026   0.790  12.233  0.7159 -0.2681 -0.9739
 8847TIP3   OH248031   3.879   2.918  14.846 -0.1199 -0.1734 -0.2362
 8847TIP3    H148032   3.948   2.970  14.887 -1.1205  1.3235 -0.3962
 8847TIP3    H248033   3.798   2.955  14.880 -0.8966 -0.6558 -1.5236
 8848TIP3   OH248034   1.573   1.521   1.461  0.0711  0.0676 -0.2067
 8848TIP3    H148035   1.615   1.471   1.391  0.3537 -1.0677  0.7669
 8848TIP3    H248036   1.573   1.462   1.536 -0.0130  1.3696  0.8231
 8849TIP3   OH248037   5.075   1.540   2.238 -0.6037  0.4809 -0.1597
 8849TIP3    H148038   5.064   1.486   2.316 -0.6973 -2.4143 -2.0840
 8849TIP3    H248039   5.037   1.488   2.167  1.1802  2.1612 -2.4448
 8850TIP3   OH248040   5.058   2.826  15.843  0.4960  0.0797 -0.2666
 8850TIP3    H148041   5.034   2.915  15.817 -0.3508  0.1238  0.6499
 8850TIP3    H248042   5.138   2.807  15.794  1.2618  1.7407  0.3106
 8851TIP3   OH248043   2.429   0.308   5.257 -0.2920 -0.1585  0.0067
 8851TIP3    H148044   2.386   0.247   5.317 -0.4744 -0.4446 -0.4149
 8851TIP3    H248045   2.373   0.385   5.256 -0.0329  0.0408  0.5809
 8852TIP3   OH248046   4.527   3.569  13.304 -0.0467  0.3679 -0.4944
 8852TIP3    H148047   4.446   3.584  13.353  1.4042  0.5638  1.9441
 8852TIP3    H248048   4.556   3.657  13.279  0.5283  0.4903  0.5533
 8853TIP3   OH248049   3.678   0.633   4.160  0.3282 -0.5857  0.3137
 8853TIP3    H148050   3.658   0.625   4.067 -0.8842 -0.8015  0.5859
 8853TIP3    H248051   3.768   0.665   4.162 -0.0192  0.5432 -0.9517
 8854TIP3   OH248052   6.134   5.202  17.038 -0.4755 -0.5407 -0.1586
 8854TIP3    H148053   6.056   5.240  17.079 -0.8860 -1.1299 -0.3702
 8854TIP3    H248054   6.099   5.131  16.983 -0.1281  1.3742 -2.9697
 8855TIP3   OH248055   3.410   3.527   0.407  0.2076 -0.2531 -0.0259
 8855TIP3    H148056   3.323   3.547   0.442  0.0748 -2.0099  0.7468
 8855TIP3    H248057   3.453   3.479   0.478  0.7959 -1.8097 -1.3999
 8856TIP3   OH248058   1.466   0.358   3.324  0.0070 -0.5773 -0.3330
 8856TIP3    H148059   1.439   0.301   3.396 -1.1468  0.3344 -0.0310
 8856TIP3    H248060   1.442   0.310   3.245  1.7390 -1.8096 -0.1511
 8857TIP3   OH248061   5.189   4.763   0.135 -0.3689 -0.0946  0.0870
 8857TIP3    H148062   5.108   4.713   0.135  0.2518 -1.1658 -1.7996
 8857TIP3    H248063   5.249   4.714   0.191 -0.6625  0.0781  0.5504
 8858TIP3   OH248064   1.570   3.081   3.948 -0.1681  0.3764 -0.0930
 8858TIP3    H148065   1.644   3.139   3.967 -2.1529  2.6028  1.1692
 8858TIP3    H248066   1.554   3.093   3.855  1.0362 -0.1273 -0.3804
 8859TIP3   OH248067   1.080   3.754   1.565 -0.3947  0.0683 -0.5039
 8859TIP3    H148068   1.055   3.846   1.554  0.5067  0.2320 -1.2440
 8859TIP3    H248069   1.174   3.752   1.548 -0.0815 -0.7178  1.2034
 8860TIP3   OH248070   1.472   4.813  14.753 -0.5665 -0.1424 -0.2760
 8860TIP3    H148071   1.550   4.833  14.805 -0.9375  0.5988  0.0063
 8860TIP3    H248072   1.494   4.732  14.707  0.2625 -0.0909  0.0173
 8861TIP3   OH248073   1.142   1.649  13.418  0.5628 -0.1118 -0.4698
 8861TIP3    H148074   1.184   1.719  13.466  1.7412 -0.9799 -0.1991
 8861TIP3    H248075   1.214   1.591  13.393 -0.5177 -1.8701  0.3937
 8862TIP3   OH248076   4.439   6.113  12.956  0.4486 -0.0529  0.1927
 8862TIP3    H148077   4.515   6.148  12.909  1.2621 -1.4210  0.4415
 8862TIP3    H248078   4.384   6.189  12.974  0.4620  0.6198 -2.3392
 8863TIP3   OH248079   5.513   2.683  10.700 -0.2732  0.0308 -0.0736
 8863TIP3    H148080   5.448   2.656  10.765 -0.6402  0.0320 -0.4373
 8863TIP3    H248081   5.553   2.762  10.737  0.8843 -1.0763  1.0460
 8864TIP3   OH248082   1.346   6.075   5.565  0.2532 -0.1005  0.1989
 8864TIP3    H148083   1.367   6.069   5.658  1.5441 -0.3122 -0.0922
 8864TIP3    H248084   1.379   5.993   5.528 -0.8564 -0.3136 -0.3363
 8865TIP3   OH248085   6.758   5.415  12.289  0.2266 -0.3382 -0.1063
 8865TIP3    H148086   6.753   5.471  12.367  2.6034  0.6237 -0.5866
 8865TIP3    H248087   6.755   5.326  12.323 -2.4410  0.0532  0.7739
 8866TIP3   OH248088   2.497   2.091   2.396 -0.7512  0.1406  0.4969
 8866TIP3    H148089   2.517   1.999   2.379 -0.8450 -0.5376  3.6394
 8866TIP3    H248090   2.402   2.098   2.384 -0.6705 -0.0507 -0.2391
 8867TIP3   OH248091   6.624   3.512  15.467 -0.1488  0.0497  0.5073
 8867TIP3    H148092   6.682   3.566  15.415  0.9703 -1.2100  0.4185
 8867TIP3    H248093   6.643   3.535  15.558  2.4904 -2.2943  0.6092
 8868TIP3   OH248094   2.353   6.631   2.879 -0.0674 -0.0996  0.5820
 8868TIP3    H148095   2.284   6.577   2.919 -2.4065  1.9742 -0.4883
 8868TIP3    H248096   2.359   6.598   2.789  1.0601 -0.9219  0.9508
 8869TIP3   OH248097   6.369   3.429  12.176 -0.4888 -0.1441  0.3328
 8869TIP3    H148098   6.403   3.513  12.209  1.8765 -0.4658 -1.2036
 8869TIP3    H248099   6.410   3.363  12.232 -0.6336 -0.3864  0.1540
 8870TIP3   OH248100   0.282   4.274  16.907  0.3028  0.5229 -0.1567
 8870TIP3    H148101   0.327   4.303  16.828  0.8813  0.9211  0.3162
 8870TIP3    H248102   0.321   4.188  16.926  0.1080  0.3911 -0.3428
 8871TIP3   OH248103   2.237   4.086  14.857 -0.2309 -0.0407 -0.4331
 8871TIP3    H148104   2.330   4.092  14.839 -0.2711  2.3266 -0.0148
 8871TIP3    H248105   2.200   4.165  14.818 -1.7215  0.2029  1.4234
 8872TIP3   OH248106   4.529   6.143   1.471  0.2515 -0.4192 -0.2537
 8872TIP3    H148107   4.609   6.130   1.523 -0.8052  1.8367  2.0118
 8872TIP3    H248108   4.557   6.197   1.397  0.6631  1.1250  1.0128
 8873TIP3   OH248109   3.597   6.574   3.934 -0.3445 -0.0149 -0.1354
 8873TIP3    H148110   3.586   6.639   3.864 -0.4264 -0.3976 -0.4778
 8873TIP3    H248111   3.654   6.507   3.896  0.3379  0.2231  0.4693
 8874TIP3   OH248112   2.018   2.919   0.401  0.3495 -0.8053  0.1962
 8874TIP3    H148113   2.004   2.909   0.495  0.2153  0.7140  0.3421
 8874TIP3    H248114   1.936   2.957   0.368 -0.2862 -2.9530 -0.8366
 8875TIP3   OH248115   5.805   3.328  13.166 -0.2433  0.5508 -0.2405
 8875TIP3    H148116   5.770   3.273  13.237 -2.0786  1.5892 -0.2947
 8875TIP3    H248117   5.849   3.267  13.107  1.3351 -0.3390  1.7977
 8876TIP3   OH248118   3.683   5.764  13.792 -0.4624 -0.1014  0.3857
 8876TIP3    H148119   3.634   5.825  13.847  0.1336  0.3573  0.4110
 8876TIP3    H248120   3.638   5.764  13.708 -1.8552 -1.4003  1.1071
 8877TIP3   OH248121   4.224   5.655   3.719 -0.4597 -0.0116 -0.1695
 8877TIP3    H148122   4.182   5.652   3.633 -1.8390  2.6440  0.3630
 8877TIP3    H248123   4.313   5.625   3.703 -0.5945  0.7935 -2.6104
 8878TIP3   OH248124   0.985   0.612   5.232 -0.3152  1.0459  0.1743
 8878TIP3    H148125   1.025   0.568   5.157 -0.9142 -2.3392  1.7317
 8878TIP3    H248126   0.891   0.601   5.219 -0.4271  0.5754  1.3456
 8879TIP3   OH248127   2.637   1.057  17.068 -0.1407 -0.0001 -0.3146
 8879TIP3    H148128   2.618   0.963  17.064 -2.3538  0.4898 -2.2964
 8879TIP3    H248129   2.565   1.098  17.019  1.1538  2.6815 -0.0354
 8880TIP3   OH248130   3.947   5.924  15.287  0.2524 -0.1456 -0.0619
 8880TIP3    H148131   3.862   5.947  15.248 -0.0590 -1.5038 -0.2030
 8880TIP3    H248132   3.946   5.966  15.373  0.4121  1.8006 -0.9848
 8881TIP3   OH248133   4.071   0.664  13.485 -0.3044 -0.0947  0.2781
 8881TIP3    H148134   4.055   0.749  13.525  1.9033  0.0495  0.9206
 8881TIP3    H248135   3.990   0.645  13.437 -1.2143  1.8811  0.9536
 8882TIP3   OH248136   3.002   1.534  17.238  0.1023  0.0509  0.4483
 8882TIP3    H148137   2.978   1.619  17.201 -0.4856  0.3379  1.4943
 8882TIP3    H248138   2.931   1.512  17.297  1.4215 -0.0202  2.0561
 8883TIP3   OH248139   0.067   5.000  16.740 -0.7981  0.4079  0.3666
 8883TIP3    H148140   0.088   5.031  16.828  1.0615 -0.5106  0.2695
 8883TIP3    H248141   0.018   4.919  16.754  0.1313 -0.1264  0.5576
 8884TIP3   OH248142   4.456   3.505   1.893 -0.5017 -0.0119 -0.0004
 8884TIP3    H148143   4.471   3.548   1.977 -1.3293  1.4333 -0.5761
 8884TIP3    H248144   4.535   3.522   1.843  0.7689 -2.4459  1.1112
 8885TIP3   OH248145   4.544   0.307  12.647  0.3138  0.2951  0.4087
 8885TIP3    H148146   4.592   0.357  12.581 -0.9907  1.4782  0.3437
 8885TIP3    H248147   4.500   0.373  12.700  1.2071 -0.6519  2.3751
 8886TIP3   OH248148   6.102   6.335  16.044  0.4803  0.2561  0.6438
 8886TIP3    H148149   6.109   6.251  16.089 -0.0180  0.5166  1.2206
 8886TIP3    H248150   6.147   6.397  16.100 -2.3740  1.0802  2.1459
 8887TIP3   OH248151   0.824   3.332  11.852 -0.0519 -0.4941 -0.3555
 8887TIP3    H148152   0.829   3.273  11.927  2.2762  0.9865  0.7548
 8887TIP3    H248153   0.741   3.379  11.863 -1.2039 -2.4795 -0.4523
 8888TIP3   OH248154   5.788   1.762   2.185 -0.4455  0.1535  0.0765
 8888TIP3    H148155   5.841   1.761   2.264 -1.4508  1.1095  0.7834
 8888TIP3    H248156   5.715   1.703   2.204 -1.4036  1.4108  0.3911
 8889TIP3   OH248157   1.938   6.760  11.841 -0.4091 -0.6317  0.0194
 8889TIP3    H148158   1.912   6.671  11.864 -0.0602 -0.8467 -0.4148
 8889TIP3    H248159   1.856   6.803  11.817 -0.4952 -1.0204 -0.3862
 8890TIP3   OH248160   4.599   2.549   4.332  0.1863  0.4781 -0.3517
 8890TIP3    H148161   4.578   2.636   4.298  2.3911  1.3262  0.3579
 8890TIP3    H248162   4.544   2.540   4.410 -1.8226  0.2151 -1.7573
 8891TIP3   OH248163   1.408   2.511   2.253 -0.3119 -0.1630 -0.8411
 8891TIP3    H148164   1.369   2.424   2.264 -1.7001  0.6378  0.7134
 8891TIP3    H248165   1.345   2.560   2.201 -0.7187  0.6690  0.4049
 8892TIP3   OH248166   2.237   2.834  12.985 -0.7464  0.5211 -0.4355
 8892TIP3    H148167   2.318   2.793  13.013  0.4045  1.6605 -2.0133
 8892TIP3    H248168   2.168   2.772  13.012  0.7496 -1.2307 -0.5502
 8893TIP3   OH248169   1.072   2.169  13.033 -0.6590 -0.0592  0.0201
 8893TIP3    H148170   1.140   2.112  13.067  0.3630  0.2550 -1.4585
 8893TIP3    H248171   1.014   2.110  12.984 -0.3387 -0.0217 -0.4011
 8894TIP3   OH248172   3.291   0.588  16.685  0.0205  0.2839 -1.1067
 8894TIP3    H148173   3.299   0.644  16.608 -0.2845 -0.1853 -1.4848
 8894TIP3    H248174   3.363   0.526  16.677 -1.4519 -1.3007 -2.3058
 8895TIP3   OH248175   3.035   2.740  12.961 -0.0917 -0.3066 -0.0652
 8895TIP3    H148176   3.055   2.694  12.880  0.3552 -1.7681  0.8552
 8895TIP3    H248177   3.076   2.826  12.951  0.8293 -0.8461 -0.9721
 8896TIP3   OH248178   3.611   6.368   0.105 -0.1741  0.2197  0.1085
 8896TIP3    H148179   3.524   6.340   0.134 -0.5654  1.7281  0.4223
 8896TIP3    H248180   3.642   6.296   0.049 -1.2038 -0.7669  0.7853
 8897TIP3   OH248181   0.213   2.702   4.334  0.3283 -0.4377 -0.1072
 8897TIP3    H148182   0.154   2.737   4.268  0.0221 -1.1749 -0.2219
 8897TIP3    H248183   0.180   2.738   4.417 -0.7693 -1.4828 -0.0755
 8898TIP3   OH248184   2.689   3.253  17.191 -0.1546 -0.2459  0.0448
 8898TIP3    H148185   2.640   3.332  17.169  0.0614  0.8617  3.2795
 8898TIP3    H248186   2.779   3.283  17.202  0.1331 -1.1540  0.1883
 8899TIP3   OH248187   2.326   5.166  15.511  0.2672 -0.0380  0.3860
 8899TIP3    H148188   2.270   5.096  15.476  0.8766 -0.3003 -0.0690
 8899TIP3    H248189   2.413   5.148  15.475  0.5220  0.7095  0.6118
 8900TIP3   OH248190   2.023   4.370   1.346  0.2405  0.1080 -0.3863
 8900TIP3    H148191   2.030   4.457   1.385  0.8224  0.2016 -0.6997
 8900TIP3    H248192   2.039   4.309   1.418 -0.6321  0.2486 -0.0661
 8901TIP3   OH248193   5.869   6.283  15.555  0.2523 -0.1377 -0.2347
 8901TIP3    H148194   5.925   6.293  15.632 -1.5219 -0.1846  1.0900
 8901TIP3    H248195   5.897   6.201  15.515  1.8109  0.3542 -0.1838
 8902TIP3   OH248196   0.356   0.360   5.755  0.7293  0.1436  0.2194
 8902TIP3    H148197   0.419   0.291   5.775 -0.2647 -0.5555  1.0644
 8902TIP3    H248198   0.353   0.413   5.835  1.9509  1.5455 -0.6538
 8903TIP3   OH248199   6.729   3.870  14.734 -0.3366  0.0396  0.3130
 8903TIP3    H148200   6.796   3.803  14.721 -0.5520  0.0677 -0.9954
 8903TIP3    H248201   6.681   3.841  14.812  0.7646 -0.3285  0.8680
 8904TIP3   OH248202   2.008   3.519  14.282  0.0059 -0.3796 -0.0313
 8904TIP3    H148203   1.940   3.508  14.348 -2.3256 -2.0357 -2.6066
 8904TIP3    H248204   2.051   3.433  14.278 -0.2281 -0.4511 -1.0399
 8905TIP3   OH248205   5.137   6.020   5.878 -0.5005 -0.1938  0.5826
 8905TIP3    H148206   5.084   6.099   5.889 -0.2243  0.4724 -2.3434
 8905TIP3    H248207   5.224   6.044   5.909 -0.2059  0.9750 -1.0478
 8906TIP3   OH248208   4.335   3.721   0.100 -0.2737 -0.1406  0.1624
 8906TIP3    H148209   4.370   3.782   0.035  0.8807  0.1842  1.0760
 8906TIP3    H248210   4.394   3.729   0.175 -0.7290 -1.6152  0.6946
 8907TIP3   OH248211   5.104   4.329   4.919  0.3281 -0.1393 -0.2292
 8907TIP3    H148212   5.066   4.401   4.868 -0.4548  1.4548  2.4771
 8907TIP3    H248213   5.198   4.350   4.923  0.4949 -0.6028 -1.4935
 8908TIP3   OH248214   2.420   1.358  15.995  0.0938  0.3972  0.5876
 8908TIP3    H148215   2.503   1.407  15.997  0.0543  0.5566 -1.1860
 8908TIP3    H248216   2.447   1.266  15.987  0.1030  0.4513 -0.0159
 8909TIP3   OH248217   6.339   5.637   3.076  0.3402 -0.1227 -0.2417
 8909TIP3    H148218   6.407   5.577   3.044 -0.3419 -0.8126 -0.3980
 8909TIP3    H248219   6.302   5.675   2.997  0.3789  0.0827 -0.1626
 8910TIP3   OH248220   2.963   5.928   5.361 -0.4459  0.1180  0.1644
 8910TIP3    H148221   3.005   5.844   5.343 -2.8176 -1.1001  0.1348
 8910TIP3    H248222   2.959   5.972   5.276 -1.7705 -0.9678 -0.3482
 8911TIP3   OH248223   2.360   6.509   2.325 -0.3303 -0.4311  0.7774
 8911TIP3    H148224   2.373   6.580   2.262 -1.7303 -1.8640 -1.1912
 8911TIP3    H248225   2.428   6.445   2.302 -1.3209 -1.2888  0.2138
 8912TIP3   OH248226   0.638   6.364  16.705 -0.7236 -0.3786 -0.5241
 8912TIP3    H148227   0.658   6.270  16.710  1.1731  0.0987  1.7317
 8912TIP3    H248228   0.724   6.406  16.704 -1.5682  1.4316  1.0078
 8913TIP3   OH248229   3.908   6.544  12.517 -0.4087  0.0414  0.5773
 8913TIP3    H148230   3.964   6.599  12.463  0.8081 -1.0979  0.6397
 8913TIP3    H248231   3.833   6.599  12.540 -0.0783  1.0802 -0.8222
 8914TIP3   OH248232   6.393   1.913   1.142 -0.0550  0.2883 -0.2562
 8914TIP3    H148233   6.382   2.008   1.135 -2.5265 -0.0461 -1.3072
 8914TIP3    H248234   6.463   1.893   1.079 -0.5354  1.2406 -1.1139
 8915TIP3   OH248235   5.794   3.384  16.536 -0.0638 -0.1435 -0.9024
 8915TIP3    H148236   5.882   3.406  16.508 -0.4192  1.4292 -0.8705
 8915TIP3    H248237   5.747   3.468  16.534 -1.1826 -0.7127  0.3761
 8916TIP3   OH248238   6.034   2.182  15.418  0.1369  0.1024  0.2275
 8916TIP3    H148239   5.990   2.267  15.424  0.0461  0.0668  0.0531
 8916TIP3    H248240   6.061   2.175  15.327  1.3882  0.5678  0.5563
 8917TIP3   OH248241   5.656   0.462   2.175  0.3811  0.2132  0.3909
 8917TIP3    H148242   5.740   0.507   2.170 -0.6021  1.9384 -1.1428
 8917TIP3    H248243   5.592   0.532   2.186 -1.1115 -0.8829 -1.0976
 8918TIP3   OH248244   1.052   3.082   2.706  0.4889 -0.3901 -0.1090
 8918TIP3    H148245   1.004   3.022   2.649  1.0682 -1.7530  0.8047
 8918TIP3    H248246   1.129   3.107   2.655 -0.5461  0.8492 -1.1044
 8919TIP3   OH248247   1.571   1.140   1.925 -0.9671 -0.6699  0.1779
 8919TIP3    H148248   1.514   1.084   1.873 -0.1400 -0.2666 -1.1811
 8919TIP3    H248249   1.653   1.091   1.934 -0.8852 -0.4692  0.5562
 8920TIP3   OH248250   3.095   2.361  14.210  0.3126  0.7036  0.0160
 8920TIP3    H148251   3.050   2.317  14.282 -0.5251  0.8402 -0.4287
 8920TIP3    H248252   3.092   2.300  14.137  0.2957  0.9691 -0.2069
 8921TIP3   OH248253   1.529   1.892  11.328  0.0636 -0.2205 -0.1463
 8921TIP3    H148254   1.465   1.945  11.281 -0.6399 -1.2659 -0.3744
 8921TIP3    H248255   1.481   1.857  11.403  0.6087 -0.2949  0.1718
 8922TIP3   OH248256   5.356   3.521  14.796 -0.6818  0.0210  0.2685
 8922TIP3    H148257   5.351   3.479  14.881 -1.6375  1.8748  1.1450
 8922TIP3    H248258   5.440   3.567  14.796 -0.9805  0.5682  0.4690
 8923TIP3   OH248259   0.946   5.103   0.831  0.1433  0.3035  0.5993
 8923TIP3    H148260   0.874   5.053   0.869  0.2354 -1.5686 -1.5378
 8923TIP3    H248261   1.014   5.037   0.814  1.3989  1.6371  0.3406
 8924TIP3   OH248262   3.939   4.136   4.969 -0.0485  0.0125  0.0800
 8924TIP3    H148263   3.894   4.165   5.048  0.4740 -1.5228  0.9528
 8924TIP3    H248264   4.031   4.158   4.984  0.3458 -2.0470  0.7349
 8925TIP3   OH248265   3.976   2.056  13.192  0.1975 -0.4121  0.0624
 8925TIP3    H148266   3.987   2.120  13.263  1.1946  1.6451 -1.8681
 8925TIP3    H248267   4.065   2.035  13.165 -0.1081 -3.1457  1.0848
 8926TIP3   OH248268   4.666   3.555   1.734 -0.6965 -0.1657  0.2171
 8926TIP3    H148269   4.758   3.536   1.753  0.2594  2.6818 -1.3684
 8926TIP3    H248270   4.633   3.475   1.691  1.4639 -0.6144 -0.6478
 8927TIP3   OH248271   3.792   0.374  13.930 -0.7070  0.0350 -0.0768
 8927TIP3    H148272   3.713   0.335  13.894  0.0995  0.5921 -2.5791
 8927TIP3    H248273   3.851   0.382  13.855  1.0830  1.2093  1.4015
 8928TIP3   OH248274   5.686   6.442   3.990  0.0842 -0.0662  0.7195
 8928TIP3    H148275   5.618   6.493   3.945 -1.0588 -0.3603  2.0950
 8928TIP3    H248276   5.754   6.507   4.010 -0.3177  0.4686  0.3936
 8929TIP3   OH248277   3.866   4.418  11.312 -0.3857  0.4124  0.3809
 8929TIP3    H148278   3.795   4.356  11.293  1.3735 -1.0488 -1.6672
 8929TIP3    H248279   3.860   4.483  11.242 -0.3790  0.8753  0.8139
 8930TIP3   OH248280   4.135   5.806  13.334  0.0373 -0.0223 -0.5604
 8930TIP3    H148281   4.077   5.878  13.310  0.5733  0.5667 -0.0690
 8930TIP3    H248282   4.080   5.728  13.326 -1.1233  0.6241  0.8915
 8931TIP3   OH248283   5.825   6.814  11.931 -0.1157 -0.2894  0.1176
 8931TIP3    H148284   5.897   6.878  11.933  1.2084 -1.6822 -0.9267
 8931TIP3    H248285   5.824   6.784  11.840 -1.1638 -1.2422  0.4439
 8932TIP3   OH248286   1.194   5.531   0.226 -0.0922 -0.1204 -0.0188
 8932TIP3    H148287   1.186   5.483   0.144 -1.3024  0.4085 -0.2313
 8932TIP3    H248288   1.210   5.622   0.199  0.4886 -0.1170  0.3433
 8933TIP3   OH248289   0.359   0.184   5.492  0.4064 -0.1495  0.6131
 8933TIP3    H148290   0.332   0.273   5.517  0.1125 -0.3493  1.0232
 8933TIP3    H248291   0.343   0.180   5.398 -0.1098  0.0529  0.6880
 8934TIP3   OH248292   6.284   1.158   3.544  0.1370 -0.0847 -0.1352
 8934TIP3    H148293   6.191   1.145   3.563  0.1591  1.6651  1.2597
 8934TIP3    H248294   6.326   1.080   3.581 -0.6186 -0.1947  0.5286
 8935TIP3   OH248295   1.582   2.699  11.580  0.3455 -0.1224  0.2935
 8935TIP3    H148296   1.619   2.787  11.569  0.1957  0.1026  1.5921
 8935TIP3    H248297   1.488   2.713  11.587  0.3398 -0.3778  0.6883
 8936TIP3   OH248298   2.539   1.224  12.479 -0.1348  0.3289 -0.2596
 8936TIP3    H148299   2.478   1.151  12.473  0.2037  0.0435 -0.2065
 8936TIP3    H248300   2.586   1.223  12.396  0.4131  0.0133  0.0600
 8937TIP3   OH248301   2.186   5.261  12.887  0.1474  0.8037  0.0576
 8937TIP3    H148302   2.132   5.232  12.961  1.7277  0.8336  1.2649
 8937TIP3    H248303   2.210   5.352  12.909 -0.8053  1.4182 -1.3573
 8938TIP3   OH248304   4.894   1.967   3.930 -0.6863  0.2893  0.3880
 8938TIP3    H148305   4.986   1.942   3.934 -0.9728 -1.4473 -2.2187
 8938TIP3    H248306   4.850   1.908   3.991 -0.1020  1.0478  1.5559
 8939TIP3   OH248307   1.830   3.338  14.766  0.4592  0.1819 -0.0175
 8939TIP3    H148308   1.868   3.425  14.776 -0.5579  0.5570  0.6696
 8939TIP3    H248309   1.827   3.302  14.855  0.9528 -0.5999 -0.3042
 8940TIP3   OH248310   2.709   5.461   6.088 -0.1758  0.3869  0.4504
 8940TIP3    H148311   2.630   5.422   6.050 -0.4780  0.9572  0.4964
 8940TIP3    H248312   2.725   5.540   6.036  0.3594  0.2805  0.4469
 8941TIP3   OH248313   1.517   3.675  12.194  0.4229 -0.7978 -0.6334
 8941TIP3    H148314   1.536   3.644  12.105  0.5780  0.9471 -1.2285
 8941TIP3    H248315   1.431   3.716  12.187 -0.8651 -3.1722  0.6845
 8942TIP3   OH248316   4.942   5.437  16.964  0.2761 -0.3847  0.5352
 8942TIP3    H148317   4.992   5.361  16.935  1.2801  0.5808 -0.2980
 8942TIP3    H248318   4.924   5.486  16.884 -1.6468 -0.4980  0.8840
 8943TIP3   OH248319   6.789   3.184  11.724  0.3360  0.3855 -0.1418
 8943TIP3    H148320   6.734   3.152  11.795  1.2374 -0.7259  0.0803
 8943TIP3    H248321   6.845   3.250  11.765  0.0038  0.6460 -0.1034
 8944TIP3   OH248322   0.866   5.623  15.703  0.3897  0.6863 -0.1841
 8944TIP3    H148323   0.952   5.646  15.739 -0.0879 -0.7125  1.9266
 8944TIP3    H248324   0.824   5.708  15.687  1.6213  1.3662  0.1072
 8945TIP3   OH248325   3.093   4.515   6.500 -0.0118  0.1742  0.0086
 8945TIP3    H148326   3.036   4.508   6.576 -0.3902  1.8927 -0.0797
 8945TIP3    H248327   3.180   4.533   6.536 -0.4071  2.1695  0.0358
 8946TIP3   OH248328   2.018   1.930   2.098  0.0701 -0.4737  0.3831
 8946TIP3    H148329   2.102   1.903   2.136 -0.0432  3.0271  3.4334
 8946TIP3    H248330   1.954   1.906   2.165 -1.0912 -0.9183 -0.8859
 8947TIP3   OH248331   3.996   1.254  12.567 -0.2486 -0.5327 -0.2410
 8947TIP3    H148332   4.026   1.185  12.627 -1.5148 -0.1563  0.8344
 8947TIP3    H248333   3.989   1.211  12.482  0.3407 -1.3807  0.1359
 8948TIP3   OH248334   4.307   1.195  16.285 -0.1945  0.3531  0.1961
 8948TIP3    H148335   4.327   1.103  16.268 -0.9677  0.1832  0.1632
 8948TIP3    H248336   4.250   1.221  16.212  1.0556  1.2342 -0.4996
 8949TIP3   OH248337   3.559   2.174   2.870 -0.0608 -0.7668  0.1529
 8949TIP3    H148338   3.649   2.154   2.895  0.9442  2.4820 -0.6290
 8949TIP3    H248339   3.523   2.220   2.947  0.2893  1.5040 -0.9840
 8950TIP3   OH248340   4.953   2.956  14.896 -0.1685 -0.0101  0.4271
 8950TIP3    H148341   4.868   2.996  14.880 -1.0359 -1.8897  0.2707
 8950TIP3    H248342   4.935   2.885  14.957  1.0392 -1.3785 -0.7777
 8951TIP3   OH248343   3.640   2.640   2.988 -0.3057 -0.0234  0.5025
 8951TIP3    H148344   3.678   2.553   3.001 -0.1992  0.1220  1.1615
 8951TIP3    H248345   3.705   2.701   3.021  0.2486  0.3937 -1.3267
 8952TIP3   OH248346   4.439   2.722  12.505 -0.1545  0.3662 -0.0848
 8952TIP3    H148347   4.505   2.667  12.461 -2.6398 -1.5007 -1.6559
 8952TIP3    H248348   4.439   2.804  12.455 -1.4478 -0.9511 -2.3324
 8953TIP3   OH248349   0.481   1.067   3.762  0.1121 -0.2572  0.3088
 8953TIP3    H148350   0.442   1.004   3.823  0.0763  0.5229  1.1058
 8953TIP3    H248351   0.409   1.127   3.741  0.2803 -0.1782 -0.0415
 8954TIP3   OH248352   4.798   6.413  17.209  0.9979 -0.2023 -0.0534
 8954TIP3    H148353   4.768   6.350  17.275  1.9525 -0.7477 -0.1305
 8954TIP3    H248354   4.779   6.499  17.247  0.0051 -0.5313  0.2087
 8955TIP3   OH248355   1.194   1.000  16.517 -0.4233  0.4537 -0.7156
 8955TIP3    H148356   1.202   1.010  16.612 -0.7428 -0.0553 -0.6355
 8955TIP3    H248357   1.283   0.979  16.487 -0.4619 -0.0842 -0.4476
 8956TIP3   OH248358   2.553   1.717   6.586  0.6547  0.2837  0.3972
 8956TIP3    H148359   2.519   1.718   6.497 -0.0227  1.3790  0.6533
 8956TIP3    H248360   2.501   1.650   6.631  0.6721  0.0639  0.0834
 8957TIP3   OH248361   6.351   5.403   1.109 -0.0041  0.3944  0.6913
 8957TIP3    H148362   6.427   5.461   1.111 -0.3280  1.0056 -2.1863
 8957TIP3    H248363   6.381   5.322   1.149  1.8731  0.9869  0.5024
 8958TIP3   OH248364   1.809   0.838  14.748 -0.8228 -0.0459 -0.1514
 8958TIP3    H148365   1.834   0.808  14.661 -0.1764  0.2837 -0.0784
 8958TIP3    H248366   1.713   0.846  14.744 -0.6830  1.1342 -1.1921
 8959TIP3   OH248367   2.372   0.708   4.678  0.3809 -0.0340  0.2467
 8959TIP3    H148368   2.432   0.671   4.613  0.7055  0.1922  0.4166
 8959TIP3    H248369   2.429   0.753   4.741  0.0569 -0.1290  0.6085
 8960TIP3   OH248370   2.432   3.176   1.833 -0.4815  0.1259 -0.2587
 8960TIP3    H148371   2.473   3.248   1.882  0.9211 -0.5701 -0.3922
 8960TIP3    H248372   2.500   3.147   1.772 -0.6339 -2.0489  0.5589
 8961TIP3   OH248373   3.320   5.145  16.846 -0.0101  0.4221 -0.8071
 8961TIP3    H148374   3.236   5.183  16.872  0.1164  0.9268 -1.1340
 8961TIP3    H248375   3.372   5.220  16.819  0.3301  0.0357 -1.2114
 8962TIP3   OH248376   4.671   0.591   2.052 -0.4630 -0.0731 -0.6592
 8962TIP3    H148377   4.740   0.526   2.048  0.1194  0.5384 -0.6066
 8962TIP3    H248378   4.651   0.611   1.961 -1.6399 -1.3635 -0.7047
 8963TIP3   OH248379   1.286   4.410  14.715  0.1339 -0.3117 -0.0212
 8963TIP3    H148380   1.339   4.384  14.639  0.6504  1.9475 -0.4491
 8963TIP3    H248381   1.226   4.476  14.682  0.4572  0.8042  1.5508
 8964TIP3   OH248382   4.265   1.757  13.444 -0.7662  0.4611 -0.3302
 8964TIP3    H148383   4.348   1.721  13.412 -0.4931  0.7492  0.0532
 8964TIP3    H248384   4.289   1.813  13.517 -1.3914 -0.2110  0.4035
 8965TIP3   OH248385   2.800   5.790   5.029 -0.1907 -0.2739 -0.4010
 8965TIP3    H148386   2.736   5.745   5.085 -0.3732  0.0453 -0.3513
 8965TIP3    H248387   2.868   5.725   5.013 -0.7456 -0.7562 -0.8113
 8966TIP3   OH248388   6.226   5.390  12.896 -0.3679 -0.0589 -0.0674
 8966TIP3    H148389   6.285   5.429  12.960 -0.7544  1.6172 -0.6960
 8966TIP3    H248390   6.281   5.373  12.820 -0.4121  0.3094 -0.1865
 8967TIP3   OH248391   5.411   2.865   4.854  0.2476 -0.7220 -0.1006
 8967TIP3    H148392   5.474   2.827   4.793  2.3733  0.4783  1.2867
 8967TIP3    H248393   5.357   2.791   4.881  1.4407 -1.9046 -0.8649
 8968TIP3   OH248394   3.119   4.648  11.018 -0.2915 -0.1113 -0.3807
 8968TIP3    H148395   3.099   4.609  11.104  0.0507  1.3612  0.3842
 8968TIP3    H248396   3.099   4.741  11.029 -1.9570 -0.1698 -2.4508
 8969TIP3   OH248397   3.230   0.014  17.042 -0.1904 -0.6182  0.4048
 8969TIP3    H148398   3.227  -0.077  17.012 -1.1954  0.3032 -2.3947
 8969TIP3    H248399   3.138   0.040  17.049  0.0641 -0.0751  2.1554
 8970TIP3   OH248400   0.133   3.899   0.498  0.3105  0.0045 -0.6835
 8970TIP3    H148401   0.092   3.867   0.578  0.0495 -1.3344 -1.3370
 8970TIP3    H248402   0.121   3.993   0.502  0.2434 -0.0434  0.8254
 8971TIP3   OH248403   2.207   3.100  14.071  0.0164  0.1619  0.1411
 8971TIP3    H148404   2.175   3.011  14.086 -1.5159  0.4296 -1.3989
 8971TIP3    H248405   2.144   3.157  14.113  0.9562  0.5443  1.0578
 8972TIP3   OH248406   1.432   0.938  11.203  0.0314  0.4882 -0.1445
 8972TIP3    H148407   1.512   0.950  11.150  0.4312 -2.5198 -0.2933
 8972TIP3    H248408   1.361   0.966  11.145  0.7500  0.5339 -1.0166
 8973TIP3   OH248409   3.843   3.594  15.127  0.5580  0.0732 -0.0222
 8973TIP3    H148410   3.760   3.565  15.088 -0.6267  0.4012  2.1795
 8973TIP3    H248411   3.847   3.687  15.107 -0.6584  0.5059  1.6723
 8974TIP3   OH248412   1.933   3.072   2.208  0.0425 -0.2946 -0.2460
 8974TIP3    H148413   1.855   3.097   2.159 -0.1860 -0.5795 -0.0234
 8974TIP3    H248414   1.943   2.978   2.193  1.0294 -0.0303 -1.2583
 8975TIP3   OH248415   1.259   0.844  15.527 -0.1643  0.0595 -0.0278
 8975TIP3    H148416   1.320   0.918  15.531  0.5923 -0.5292 -0.7140
 8975TIP3    H248417   1.303   0.779  15.473 -0.6027 -1.1142  1.0071
 8976TIP3   OH248418   2.901   0.535   1.746 -0.7747  0.5346  0.3387
 8976TIP3    H148419   2.929   0.551   1.655 -2.2196 -0.1970 -0.2528
 8976TIP3    H248420   2.835   0.602   1.763 -2.4646 -0.9925 -0.0900
 8977TIP3   OH248421   0.484   0.159  13.819 -0.0747 -0.8547 -0.3307
 8977TIP3    H148422   0.477   0.194  13.908  0.2738  3.6157 -1.9518
 8977TIP3    H248423   0.410   0.098  13.812 -0.9486 -0.2238  2.5575
 8978TIP3   OH248424   5.635   1.707  13.247  0.1018 -0.2167 -0.6564
 8978TIP3    H148425   5.539   1.707  13.242  0.0719 -0.6844 -0.1369
 8978TIP3    H248426   5.663   1.686  13.158 -0.3144 -2.2762 -0.3140
 8979TIP3   OH248427   3.960   3.258  12.568 -0.4949 -0.0272 -0.0412
 8979TIP3    H148428   3.956   3.213  12.484  1.3131 -0.0517 -0.1515
 8979TIP3    H248429   4.047   3.299  12.568 -0.7596  0.5581  1.5117
 8980TIP3   OH248430   1.238   3.617  16.133  0.3337 -0.5265  0.3917
 8980TIP3    H148431   1.214   3.632  16.042 -0.0055  1.4114  0.7838
 8980TIP3    H248432   1.166   3.564  16.168  0.3520 -1.0782 -0.3944
 8981TIP3   OH248433   0.112   3.415  13.757  0.1616  0.4825 -0.6220
 8981TIP3    H148434   0.097   3.390  13.849  1.7874 -1.7049 -0.8987
 8981TIP3    H248435   0.204   3.444  13.756  0.4080 -0.3433 -1.7379
 8982TIP3   OH248436   3.816   4.090  15.662  0.3192  0.0395  0.4392
 8982TIP3    H148437   3.829   3.997  15.682 -0.0224  0.0249  0.5912
 8982TIP3    H248438   3.847   4.099  15.571 -0.3594 -0.3798  0.1643
 8983TIP3   OH248439   1.535   3.792  16.214  0.0382  0.3131 -0.1333
 8983TIP3    H148440   1.588   3.714  16.198  0.9514  1.4592 -3.0810
 8983TIP3    H248441   1.449   3.772  16.177  1.1604  1.7325 -3.7081
 8984TIP3   OH248442   4.652   6.238  12.150  0.0566 -0.0325 -0.2876
 8984TIP3    H148443   4.686   6.307  12.092 -2.5960  0.8475 -0.8812
 8984TIP3    H248444   4.580   6.281  12.198  0.4029 -1.5401  1.6241
 8985TIP3   OH248445   4.849   4.158  11.438  0.2500  0.1790 -0.1509
 8985TIP3    H148446   4.943   4.146  11.422  0.3812  0.5651  0.3260
 8985TIP3    H248447   4.807   4.123  11.359  0.7865 -0.1385 -0.3010
 8986TIP3   OH248448   0.835   3.323   5.607 -0.5579 -0.3851  0.0574
 8986TIP3    H148449   0.744   3.297   5.620 -0.9102  0.8769  0.2337
 8986TIP3    H248450   0.835   3.418   5.620  0.9142 -0.4606  0.8122
 8987TIP3   OH248451   3.677   5.245   1.879  0.2953  0.5270  0.0491
 8987TIP3    H148452   3.752   5.199   1.917 -0.4548 -1.6440 -1.0140
 8987TIP3    H248453   3.640   5.183   1.817 -0.1643  2.9705 -2.1842
 8988TIP3   OH248454   2.755   5.528  13.125 -0.2298  0.2256  0.0832
 8988TIP3    H148455   2.722   5.440  13.145 -1.6200  0.9490  1.0365
 8988TIP3    H248456   2.833   5.537  13.180  0.9192 -1.0455 -1.2958
 8989TIP3   OH248457   4.313   4.535   3.852  0.7440 -0.4360  0.3087
 8989TIP3    H148458   4.359   4.618   3.838  0.9042 -0.5382  0.2283
 8989TIP3    H248459   4.333   4.483   3.774 -0.0494 -0.2381 -0.0345
 8990TIP3   OH248460   0.292   2.112   5.893 -0.1403  0.2999  0.5629
 8990TIP3    H148461   0.298   2.026   5.933 -0.1752  1.2912  2.8054
 8990TIP3    H248462   0.254   2.168   5.961  0.8935  2.3103 -0.4424
 8991TIP3   OH248463   0.224   2.851  15.063 -0.8257 -0.3412  0.5425
 8991TIP3    H148464   0.291   2.825  15.126 -0.3127  0.0354  0.1634
 8991TIP3    H248465   0.229   2.784  14.994 -0.2684  0.1337  0.1132
 8992TIP3   OH248466   6.375   5.615  11.335  0.2801 -0.1760  0.4083
 8992TIP3    H148467   6.397   5.690  11.390 -0.6417 -0.3976  1.0990
 8992TIP3    H248468   6.448   5.553  11.348  1.2551  0.7697 -0.5061
 8993TIP3   OH248469   2.226   0.754   5.759  0.6055 -0.5077 -0.0037
 8993TIP3    H148470   2.285   0.822   5.793  0.8026 -1.2318  1.1023
 8993TIP3    H248471   2.230   0.684   5.823  1.5690 -2.2380 -1.8730
 8994TIP3   OH248472   4.250   6.753   0.095  0.0384 -0.3211 -0.0972
 8994TIP3    H148473   4.218   6.670   0.131 -1.4768  0.5655  0.6236
 8994TIP3    H248474   4.195   6.770   0.019  0.2313  0.1275 -0.1403
 8995TIP3   OH248475   2.273   4.193   6.501 -0.4007  0.0708 -0.3641
 8995TIP3    H148476   2.219   4.134   6.449 -2.0667  0.5781  0.7471
 8995TIP3    H248477   2.359   4.192   6.458 -1.1440 -1.1453 -1.8505
 8996TIP3   OH248478   3.656   2.858   1.963  0.8037  0.4173 -0.4063
 8996TIP3    H148479   3.588   2.924   1.976 -0.8115 -1.2126 -0.3762
 8996TIP3    H248480   3.673   2.824   2.051  1.5241  0.6666 -0.4447
 8997TIP3   OH248481   1.770   5.109   0.141  0.4464 -0.2838  0.2152
 8997TIP3    H148482   1.710   5.040   0.171  0.6455 -0.9815 -0.9322
 8997TIP3    H248483   1.755   5.182   0.201  0.3875 -1.4026  1.5803
 8998TIP3   OH248484   5.923   1.349   1.836  0.7187 -0.4059  0.1633
 8998TIP3    H148485   5.832   1.340   1.806  1.0409 -1.1452 -0.5857
 8998TIP3    H248486   5.914   1.366   1.930 -0.1869 -0.9279  0.1865
 8999TIP3   OH248487   4.094   5.381  12.775 -0.0428  0.4382 -0.2346
 8999TIP3    H148488   4.158   5.441  12.738 -1.8855  2.6766  0.1118
 8999TIP3    H248489   4.092   5.401  12.869 -0.1965 -0.6370  0.0099
 9000TIP3   OH248490   2.407   1.627   4.653  0.0619  0.7772 -0.4045
 9000TIP3    H148491   2.391   1.556   4.590  1.0440  0.5036 -0.3589
 9000TIP3    H248492   2.495   1.610   4.686  0.1170  1.7579 -0.0330
 9001TIP3   OH248493   3.661   0.685  16.218 -0.2564 -0.3374 -0.1831
 9001TIP3    H148494   3.583   0.717  16.263 -1.3227 -2.1096 -0.7024
 9001TIP3    H248495   3.734   0.709  16.275 -1.3156  0.1178  0.9913
 9002TIP3   OH248496   2.506   0.837   1.004  0.6500  0.2474  0.4265
 9002TIP3    H148497   2.432   0.791   1.043  1.1694 -1.9120 -1.0071
 9002TIP3    H248498   2.532   0.902   1.069 -3.9653  2.7226  0.0003
 9003TIP3   OH248499   4.611   3.481  16.583 -1.2982  0.2034  0.0785
 9003TIP3    H148500   4.629   3.487  16.677 -0.1827  0.9166 -0.1652
 9003TIP3    H248501   4.666   3.409  16.552  0.3206  1.6253 -0.4638
 9004TIP3   OH248502   3.277   5.402  14.093  0.7957  0.1739 -0.3285
 9004TIP3    H148503   3.286   5.488  14.050  0.2600  1.0927  1.3489
 9004TIP3    H248504   3.183   5.385  14.092  0.8208  0.0097  0.1271
 9005TIP3   OH248505   1.007   6.448   5.321 -0.0927 -0.4625 -0.4092
 9005TIP3    H148506   1.083   6.484   5.275  0.2720 -1.4960 -0.6188
 9005TIP3    H248507   1.041   6.373   5.370 -0.8274 -0.4631  0.1088
 9006TIP3   OH248508   3.808   5.232  14.791  0.0825 -0.5027  0.0888
 9006TIP3    H148509   3.842   5.203  14.706 -0.1333 -0.5124  0.0061
 9006TIP3    H248510   3.862   5.186  14.855 -0.7031 -1.6234 -0.0420
 9007TIP3   OH248511   4.193   5.796   0.767 -0.1401  0.4850  0.3862
 9007TIP3    H148512   4.192   5.726   0.702  0.3457  0.5313  0.3326
 9007TIP3    H248513   4.200   5.750   0.851  0.3932  0.4780  0.3392
 9008TIP3   OH248514   6.187   3.386   5.607 -0.5528  0.0014 -0.1046
 9008TIP3    H148515   6.215   3.472   5.576  0.9941  0.2326  1.8291
 9008TIP3    H248516   6.205   3.327   5.534  0.9162  0.8858 -0.4830
 9009TIP3   OH248517   4.573   5.717   5.038  0.3134 -0.4472  0.3913
 9009TIP3    H148518   4.597   5.767   4.960  0.8211  0.3173  1.0383
 9009TIP3    H248519   4.637   5.742   5.104 -0.4218 -0.7063  1.2129
 9010TIP3   OH248520   0.318   3.395  13.007  0.3314 -0.9842  0.0904
 9010TIP3    H148521   0.380   3.386  13.080 -0.0891  0.2613  0.6154
 9010TIP3    H248522   0.240   3.348  13.036  0.5045 -1.2908  0.0550
 9011TIP3   OH248523   2.517   2.533   5.676 -0.3255  0.1911 -0.1730
 9011TIP3    H148524   2.469   2.548   5.595 -0.2761 -0.5730 -0.3442
 9011TIP3    H248525   2.495   2.608   5.731 -0.6825  0.5021 -0.7406
 9012TIP3   OH248526   4.659   0.040   6.617 -0.5327 -0.0736  0.3609
 9012TIP3    H148527   4.733   0.002   6.665  0.6993  0.4008 -1.1111
 9012TIP3    H248528   4.612   0.092   6.682 -0.0834 -1.0730  1.5170
 9013TIP3   OH248529   1.134   6.188   1.596 -0.0267 -0.1413 -0.0084
 9013TIP3    H148530   1.040   6.177   1.613 -0.4259 -1.5419 -2.7147
 9013TIP3    H248531   1.138   6.255   1.528  0.8215 -0.9607 -0.7878
 9014TIP3   OH248532   3.748   0.306   2.331  0.4736 -0.5178 -0.3984
 9014TIP3    H148533   3.749   0.212   2.345  1.6408 -0.6882 -1.4114
 9014TIP3    H248534   3.762   0.316   2.236  2.7741  0.6981  0.0301
 9015TIP3   OH248535   1.728   0.981  13.882 -0.3225 -0.0564 -0.3983
 9015TIP3    H148536   1.728   0.887  13.903  0.2370  0.4954  2.2728
 9015TIP3    H248537   1.649   1.014  13.925  0.6672  1.0702  0.5956
 9016TIP3   OH248538   5.085   5.165   5.520  0.5179  1.7446  0.3826
 9016TIP3    H148539   5.115   5.158   5.429 -1.0640  1.0402 -0.0956
 9016TIP3    H248540   5.004   5.214   5.515  0.5730  1.9458  1.4603
 9017TIP3   OH248541   5.209   0.078  14.081  0.2988  0.8321  0.7721
 9017TIP3    H148542   5.271   0.058  14.152 -0.0672 -1.1064  0.5611
 9017TIP3    H248543   5.150   0.143  14.119  0.6395  0.4571  1.9666
 9018TIP3   OH248544   2.793   5.707   3.047 -0.5885  0.3180  0.3058
 9018TIP3    H148545   2.851   5.753   2.986 -1.9388 -0.5116 -1.6718
 9018TIP3    H248546   2.809   5.614   3.030 -0.9949  0.0831  1.2028
 9019TIP3   OH248547   0.575   0.662  11.690 -0.2412 -0.3475 -0.1349
 9019TIP3    H148548   0.499   0.720  11.701  0.2395  0.0257  1.4641
 9019TIP3    H248549   0.577   0.611  11.771  0.3653 -1.3904 -0.7952
 9020TIP3   OH248550   1.403   1.441  15.759 -0.6751 -0.3848 -0.2912
 9020TIP3    H148551   1.481   1.484  15.724 -1.1938 -0.4793 -1.5807
 9020TIP3    H248552   1.336   1.508  15.758 -0.4640 -0.1355  1.3886
 9021TIP3   OH248553   1.522   2.601  13.709 -0.8166 -0.1568 -0.1069
 9021TIP3    H148554   1.487   2.685  13.681 -1.2847 -0.9494 -1.9573
 9021TIP3    H248555   1.445   2.551  13.736 -0.4197  0.4312  2.2315
 9022TIP3   OH248556   3.282   1.062  13.766  0.3771  0.3419 -0.0058
 9022TIP3    H148557   3.303   1.154  13.780  3.3811 -0.1978 -0.6514
 9022TIP3    H248558   3.265   1.055  13.672  0.2669  0.2409  0.0218
 9023TIP3   OH248559   3.019   0.164   6.769  0.3821  0.6149  0.2719
 9023TIP3    H148560   2.931   0.127   6.762 -0.0871  1.6970  0.3542
 9023TIP3    H248561   3.005   0.254   6.800  1.3613  1.5644 -1.9421
 9024TIP3   OH248562   2.254   2.764  14.972 -0.2891 -0.4305 -0.3886
 9024TIP3    H148563   2.222   2.834  14.915  1.9191  0.5535 -0.4362
 9024TIP3    H248564   2.334   2.732  14.929  1.8934  0.8996  2.5425
 9025TIP3   OH248565   2.223   6.267  12.465  0.7985 -0.4959 -0.0418
 9025TIP3    H148566   2.173   6.330  12.518  0.9471 -0.4985  0.1036
 9025TIP3    H248567   2.201   6.182  12.503  1.5037 -0.4337  0.5130
 9026TIP3   OH248568   3.863   5.331   0.828  0.1358  0.0745 -0.8807
 9026TIP3    H148569   3.883   5.242   0.856  0.4974  0.5567  0.4625
 9026TIP3    H248570   3.771   5.343   0.851  0.5907  0.6741  0.7337
 9027TIP3   OH248571   0.040   5.761  11.227 -0.1928  0.3001 -0.1649
 9027TIP3    H148572   0.073   5.844  11.193  1.0285 -0.6676 -1.3981
 9027TIP3    H248573  -0.053   5.761  11.205 -0.3798  1.6707  0.5460
 9028TIP3   OH248574   6.454   1.211  16.684 -0.5467 -0.1036 -0.0282
 9028TIP3    H148575   6.498   1.146  16.630 -1.1205 -0.2311 -0.3517
 9028TIP3    H248576   6.378   1.165  16.720  0.0705 -0.1498  1.2540
 9029TIP3   OH248577   6.813   6.551  12.056  0.4615  0.0624 -1.0547
 9029TIP3    H148578   6.767   6.553  12.140  0.8071  0.7402 -0.8748
 9029TIP3    H248579   6.775   6.478  12.009 -1.0040  0.7931 -1.0199
 9030TIP3   OH248580   5.337   5.375  11.579 -0.0463  0.0521 -0.0362
 9030TIP3    H148581   5.326   5.283  11.604 -0.2540 -0.2505 -1.2015
 9030TIP3    H248582   5.432   5.386  11.570 -0.1081 -0.5502 -1.6669
 9031TIP3   OH248583   6.341   2.939   6.123  0.6991  0.8394 -0.2153
 9031TIP3    H148584   6.340   2.854   6.079 -2.8888  0.4181  0.5375
 9031TIP3    H248585   6.362   3.002   6.055  1.4953 -0.4483 -1.1776
 9032TIP3   OH248586   5.538   4.592   4.306 -0.5455  0.1360 -0.1648
 9032TIP3    H148587   5.560   4.683   4.284 -1.5181 -0.0038 -1.7862
 9032TIP3    H248588   5.572   4.580   4.395  0.0862  1.9123 -0.1461
 9033TIP3   OH248589   2.915   1.036   3.212  0.6611  0.0253  0.1469
 9033TIP3    H148590   2.991   0.998   3.167  0.1985  1.0312 -1.5446
 9033TIP3    H248591   2.847   0.970   3.203  0.3724  0.5004 -1.2557
 9034TIP3   OH248592   6.277   0.730  13.889 -0.3767  0.1275  0.2041
 9034TIP3    H148593   6.188   0.749  13.859 -0.5133  0.1681  0.6275
 9034TIP3    H248594   6.334   0.782  13.833 -0.7047  1.3024  0.9470
 9035TIP3   OH248595   1.578   4.741  12.325  0.0056  0.0008 -1.0887
 9035TIP3    H148596   1.549   4.735  12.415  1.2339 -0.7602 -0.7318
 9035TIP3    H248597   1.634   4.819  12.323 -0.9390  0.6835 -1.4671
 9036TIP3   OH248598   5.442   1.269  16.801 -0.3806  0.1742 -0.1632
 9036TIP3    H148599   5.459   1.252  16.708 -0.4331  0.0031 -0.1404
 9036TIP3    H248600   5.483   1.354  16.818  1.1161 -0.5803  0.0763
 9037TIP3   OH248601   2.689   4.534  14.741 -0.6078  0.3767 -0.0875
 9037TIP3    H148602   2.761   4.483  14.705 -2.1267 -1.0660 -1.1239
 9037TIP3    H248603   2.697   4.620  14.699 -0.0283 -0.0672 -0.8882
 9038TIP3   OH248604   3.462   0.172  12.404 -0.3252  0.1619  0.0976
 9038TIP3    H148605   3.520   0.158  12.479 -0.8833  2.7872  1.0495
 9038TIP3    H248606   3.513   0.144  12.329  1.0446 -0.4455  1.2224
 9039TIP3   OH248607   3.340   2.992  16.264 -0.7690  0.1575 -0.0933
 9039TIP3    H148608   3.264   2.996  16.321 -0.4915  1.0385  0.2139
 9039TIP3    H248609   3.390   3.071  16.285 -0.5611  0.3820 -1.3892
 9040TIP3   OH248610   3.811   2.442   5.363  0.5471  0.4625  0.4772
 9040TIP3    H148611   3.888   2.461   5.418  1.6884 -1.2236 -0.4846
 9040TIP3    H248612   3.812   2.510   5.296  1.5723  0.1103  0.1166
 9041TIP3   OH248613   1.384   3.933   4.427 -0.6898 -0.4754 -0.2857
 9041TIP3    H148614   1.290   3.916   4.418 -0.8513 -0.0130  0.4330
 9041TIP3    H248615   1.391   4.028   4.427 -0.3309 -0.4909  0.6292
 9042TIP3   OH248616   5.429   4.689  13.730 -0.2415 -0.0467  0.7179
 9042TIP3    H148617   5.435   4.714  13.638  1.2487  0.7521  1.0068
 9042TIP3    H248618   5.518   4.661  13.752 -1.3453 -3.5038  1.0178
 9043TIP3   OH248619   0.456   6.491   1.344 -0.7013 -0.2188  0.5918
 9043TIP3    H148620   0.379   6.445   1.376  0.2965 -2.4897 -0.1799
 9043TIP3    H248621   0.464   6.463   1.253  2.2419 -1.6835  1.2616
 9044TIP3   OH248622   6.759   6.001   3.127 -0.6606 -0.3007 -0.3483
 9044TIP3    H148623   6.807   5.952   3.193  0.2413  0.7654 -0.2051
 9044TIP3    H248624   6.668   5.998   3.156 -0.5154 -1.2892  0.0209
 9045TIP3   OH248625   6.805   4.127   1.680 -0.3221 -0.4869  0.0697
 9045TIP3    H148626   6.711   4.130   1.664 -0.2979 -0.7532 -0.1184
 9045TIP3    H248627   6.839   4.207   1.640 -0.7459  0.6781  1.9765
 9046TIP3   OH248628   3.125   1.452  15.471 -0.2505 -0.3339 -0.4684
 9046TIP3    H148629   3.065   1.480  15.402 -0.2329 -1.1151 -0.7977
 9046TIP3    H248630   3.210   1.488  15.444 -0.5897  0.9026  0.0773
 9047TIP3   OH248631   1.967   2.196  16.945  0.9727 -0.4344  0.2808
 9047TIP3    H148632   1.980   2.178  16.852 -0.9772 -0.2537 -0.0509
 9047TIP3    H248633   2.018   2.275  16.962  1.7409 -0.7516 -0.5032
 9048TIP3   OH248634   4.626   3.368   0.615 -0.1469  0.2274  0.0787
 9048TIP3    H148635   4.595   3.456   0.639  0.7200  0.9341 -1.3607
 9048TIP3    H248636   4.546   3.318   0.603 -0.6537  0.8083  0.8939
 9049TIP3   OH248637   4.575   5.247  14.714  0.5263  0.3140  0.2802
 9049TIP3    H148638   4.623   5.260  14.632  0.0036  1.1101  0.0878
 9049TIP3    H248639   4.630   5.288  14.780  1.4796 -1.2977  0.5089
 9050TIP3   OH248640   6.668   1.997   5.911  0.1232 -0.0856  0.4046
 9050TIP3    H148641   6.673   1.981   5.817 -0.4043  1.9964  0.0071
 9050TIP3    H248642   6.756   1.978   5.944  0.5252 -0.0235 -0.6227
 9051TIP3   OH248643   3.871   6.273  13.390  0.6830  0.6902  0.1289
 9051TIP3    H148644   3.827   6.340  13.337 -0.5716 -0.4246 -0.2734
 9051TIP3    H248645   3.926   6.322  13.451  0.6222  2.0464 -0.8922
 9052TIP3   OH248646   0.243   1.716   0.266 -0.2554 -0.0285  0.0346
 9052TIP3    H148647   0.319   1.773   0.268 -0.8783  0.7663  1.3519
 9052TIP3    H248648   0.186   1.754   0.199  0.6809 -0.8832 -1.2758
 9053TIP3   OH248649   2.095   1.238   3.161  0.3527  0.2414 -0.5065
 9053TIP3    H148650   2.096   1.331   3.139 -0.4700  0.1243 -1.0876
 9053TIP3    H248651   2.089   1.194   3.076  1.4210 -0.3656 -0.2745
 9054TIP3   OH248652   1.464   0.995   0.844  0.0001 -0.6002  0.3998
 9054TIP3    H148653   1.559   0.990   0.852  0.5239  1.7570 -3.3203
 9054TIP3    H248654   1.433   0.994   0.935  3.7350  1.2537  1.8187
 9055TIP3   OH248655   4.913   6.576  10.944 -0.2710 -0.1622  1.1182
 9055TIP3    H148656   4.909   6.658  10.994  0.7717  0.2261  0.5757
 9055TIP3    H248657   5.001   6.575  10.907 -0.1324 -1.7393  1.4622
 9056TIP3   OH248658   1.326   0.201   5.198 -0.9559  0.1497 -0.3248
 9056TIP3    H148659   1.275   0.282   5.194  0.0749  0.7576 -1.7135
 9056TIP3    H248660   1.367   0.202   5.284 -2.3126  0.2483  0.3298
 9057TIP3   OH248661   3.898   5.974   0.020  0.5089  0.5588  0.0985
 9057TIP3    H148662   3.903   5.884   0.053  1.5650  0.7768  0.5558
 9057TIP3    H248663   3.945   5.970  -0.064 -0.0951  0.5318 -0.2458
 9058TIP3   OH248664   4.966   0.095  12.897  0.1189  0.0397 -0.2534
 9058TIP3    H148665   4.948   0.015  12.848 -2.1112 -0.1419  0.8335
 9058TIP3    H248666   4.908   0.161  12.858 -1.2649  0.0257  1.7287
 9059TIP3   OH248667   5.146   2.157   4.238  0.1187  0.2693 -0.2802
 9059TIP3    H148668   5.056   2.142   4.209  0.5040 -0.0278 -1.3164
 9059TIP3    H248669   5.195   2.171   4.158  0.7982  1.5414  0.3420
 9060TIP3   OH248670   3.976   2.915   3.295  0.1416  0.5575 -0.2152
 9060TIP3    H148671   3.881   2.908   3.303  0.2486 -0.8068 -0.0180
 9060TIP3    H248672   4.000   2.983   3.358 -0.4948 -0.5247  1.2292
 9061TIP3   OH248673   3.909   4.639   5.932 -0.6622  0.6441  1.0835
 9061TIP3    H148674   3.920   4.576   5.860 -1.9119 -0.5473  1.9226
 9061TIP3    H248675   3.986   4.625   5.987 -0.8807 -0.1020  1.2153
 9062TIP3   OH248676   4.557   4.543   2.303  0.3562  0.1325  0.0681
 9062TIP3    H148677   4.567   4.631   2.267 -1.0762  0.0091 -0.6623
 9062TIP3    H248678   4.462   4.532   2.314  0.3836 -1.8827 -1.3091
 9063TIP3   OH248679   2.882   3.233  15.482 -0.3102 -0.5732 -0.7524
 9063TIP3    H148680   2.975   3.256  15.476 -0.4292  0.6845  1.6798
 9063TIP3    H248681   2.881   3.145  15.519 -0.1106  0.0293  0.7054
 9064TIP3   OH248682   3.755   6.530   0.777 -0.1794 -0.1086 -0.2659
 9064TIP3    H148683   3.701   6.463   0.819 -1.2304  0.7708 -0.2115
 9064TIP3    H248684   3.693   6.594   0.742  0.7011 -0.4595 -2.5777
 9065TIP3   OH248685   0.126   1.248  11.818 -0.2051 -0.3187  0.0173
 9065TIP3    H148686   0.034   1.232  11.838 -0.6409 -0.5391 -2.0183
 9065TIP3    H248687   0.125   1.329  11.766  0.9531  0.7584  1.6358
 9066TIP3   OH248688   0.148   1.337   0.899 -0.2368  0.1871 -0.4904
 9066TIP3    H148689   0.145   1.331   0.995  0.2036 -0.8361 -0.5338
 9066TIP3    H248690   0.144   1.430   0.881 -2.2566  0.3126  0.4648
 9067TIP3   OH248691   6.136   1.674  10.995 -0.2895  0.0302  0.0934
 9067TIP3    H148692   6.166   1.605  11.054 -0.7123  0.3549  0.6867
 9067TIP3    H248693   6.208   1.736  10.992  0.0928 -0.4308 -0.4423
 9068TIP3   OH248694   3.256   3.308  14.989  0.1711 -0.0128  0.6523
 9068TIP3    H148695   3.196   3.374  14.955  0.2315  0.2393  1.0368
 9068TIP3    H248696   3.264   3.328  15.082  1.0202  0.0928  0.5664
 9069TIP3   OH248697   0.473   5.374   1.898 -0.0084  0.0154  0.4955
 9069TIP3    H148698   0.411   5.359   1.969 -0.9186 -0.6453 -0.4151
 9069TIP3    H248699   0.543   5.311   1.913 -0.0981  0.0173  0.9187
 9070TIP3   OH248700   3.349   4.804  16.852  0.2734 -0.2712  0.3389
 9070TIP3    H148701   3.420   4.862  16.878  0.9329 -0.8609 -0.1003
 9070TIP3    H248702   3.376   4.772  16.765 -1.1511  0.5054 -0.3955
 9071TIP3   OH248703   0.925   1.243   3.802  0.3962 -0.4292 -0.0856
 9071TIP3    H148704   0.839   1.269   3.835 -0.2963 -0.3296 -1.9413
 9071TIP3    H248705   0.980   1.320   3.817 -0.3188  0.2018 -0.6558
 9072TIP3   OH248706   4.622   0.295  17.118 -0.3457 -0.2246  0.1302
 9072TIP3    H148707   4.682   0.305  17.044 -0.3903 -2.5949 -0.2714
 9072TIP3    H248708   4.666   0.341  17.190  0.8812 -0.0047 -0.7390
 9073TIP3   OH248709   5.173   5.451   5.510 -0.5948  0.0299  0.0343
 9073TIP3    H148710   5.089   5.407   5.501 -1.0226  0.8675 -0.1097
 9073TIP3    H248711   5.167   5.527   5.452 -0.0082  0.4859  0.5614
 9074TIP3   OH248712   4.506   6.417   3.588 -0.2923  0.1605 -0.3924
 9074TIP3    H148713   4.581   6.389   3.641  0.2748  1.4914 -0.4763
 9074TIP3    H248714   4.522   6.377   3.503 -1.0969 -1.8120  0.3487
 9075TIP3   OH248715   4.721   5.730  13.740  0.2629 -0.0077  0.0770
 9075TIP3    H148716   4.645   5.709  13.794 -0.2253  2.8218  0.5988
 9075TIP3    H248717   4.795   5.688  13.785 -0.4666  0.3420  1.6568
 9076TIP3   OH248718   4.574   0.990  16.033  0.3499 -0.1244 -0.1335
 9076TIP3    H148719   4.486   0.981  15.996 -0.4199 -1.4009  1.9485
 9076TIP3    H248720   4.599   1.081  16.013 -0.3065 -0.5339 -3.1066
 9077TIP3   OH248721   0.726   3.698  12.487 -0.2144  0.2372  0.2867
 9077TIP3    H148722   0.683   3.625  12.443 -0.0239  0.3595 -0.1041
 9077TIP3    H248723   0.713   3.681  12.580  4.1388 -2.9917  0.4211
 9078TIP3   OH248724   1.822   4.611   0.459 -0.3610 -0.3266  0.2923
 9078TIP3    H148725   1.782   4.551   0.522  1.0799 -1.4307  0.1895
 9078TIP3    H248726   1.754   4.625   0.393 -1.6381  0.3038  1.7251
 9079TIP3   OH248727   6.387   3.923  13.818  0.4394  0.5218  0.3531
 9079TIP3    H148728   6.422   3.848  13.865  0.4430  1.3283  1.6491
 9079TIP3    H248729   6.462   3.980  13.804  0.5620 -0.0033 -1.2084
 9080TIP3   OH248730   6.384   1.362  13.976 -0.0014 -0.0885 -0.0368
 9080TIP3    H148731   6.365   1.283  13.927 -1.3497  0.8091 -0.9915
 9080TIP3    H248732   6.469   1.392  13.942  0.8627 -1.4960  0.8445
 9081TIP3   OH248733   3.747   5.885  15.723  0.0100 -0.6877 -0.1002
 9081TIP3    H148734   3.682   5.858  15.658  0.7694 -0.1169 -1.1086
 9081TIP3    H248735   3.794   5.804  15.745 -1.1760 -1.1541  0.8251
 9082TIP3   OH248736   1.816   1.489   2.371  0.2282 -0.5628  0.0871
 9082TIP3    H148737   1.798   1.529   2.456  0.5017 -1.0053  0.3563
 9082TIP3    H248738   1.745   1.425   2.360  0.4138 -0.7793  0.1587
 9083TIP3   OH248739   2.090   6.257  11.878 -0.1881 -0.5346  0.0572
 9083TIP3    H148740   2.125   6.234  11.792  0.2422 -1.4889  0.4747
 9083TIP3    H248741   2.031   6.330  11.862  0.0974 -0.5399 -1.0119
 9084TIP3   OH248742   4.215   1.874   5.709 -0.2533 -0.5857  1.1898
 9084TIP3    H148743   4.213   1.875   5.613  1.2619 -1.0820  1.1440
 9084TIP3    H248744   4.148   1.937   5.735  1.1791  1.5858 -0.2197
 9085TIP3   OH248745   6.512   0.348   0.834  0.0735 -0.0116 -0.2608
 9085TIP3    H148746   6.532   0.321   0.745 -0.2759 -1.1956  0.0147
 9085TIP3    H248747   6.551   0.435   0.842 -0.4772  0.3943 -1.7775
 9086TIP3   OH248748   1.873   2.042   5.954 -0.1217  0.2527  0.3652
 9086TIP3    H148749   1.903   1.951   5.963  1.4177  0.7484  0.4514
 9086TIP3    H248750   1.932   2.092   6.011 -0.7509  1.3453  0.0708
 9087TIP3   OH248751   1.704   3.025   3.106 -0.2435  0.2082 -0.2719
 9087TIP3    H148752   1.665   3.013   3.192  1.7136  4.5242  1.3588
 9087TIP3    H248753   1.789   2.983   3.112 -0.5128 -0.3778 -0.4781
 9088TIP3   OH248754   3.713   1.185  16.162  0.3423 -0.0955  0.7832
 9088TIP3    H148755   3.748   1.151  16.079  2.2631 -0.7234  1.8229
 9088TIP3    H248756   3.673   1.109  16.204 -0.8627  0.2794  0.3157
 9089TIP3   OH248757   4.534   5.409   4.220  0.0556  0.0038 -0.0047
 9089TIP3    H148758   4.615   5.458   4.236 -0.3964  1.0968 -0.9397
 9089TIP3    H248759   4.536   5.338   4.284  2.6749 -1.1368 -1.3004
 9090TIP3   OH248760   0.436   1.120  16.514  0.0813  0.5443  0.0676
 9090TIP3    H148761   0.414   1.027  16.518 -0.9073  0.7664 -0.0202
 9090TIP3    H248762   0.374   1.156  16.450  1.2155  1.0475 -0.7620
 9091TIP3   OH248763   2.518   0.288   0.737  0.0327  0.0385  0.1035
 9091TIP3    H148764   2.591   0.316   0.682 -0.9035  0.4099 -0.9518
 9091TIP3    H248765   2.443   0.339   0.707 -0.9248 -1.1477  0.4161
 9092TIP3   OH248766   0.897   4.878  13.099  0.1263  0.8244  0.1568
 9092TIP3    H148767   0.984   4.848  13.125 -0.4679 -2.8284 -1.7338
 9092TIP3    H248768   0.885   4.843  13.010 -3.0984  1.5948  0.2252
 9093TIP3   OH248769   0.573   0.140   1.845 -0.1171  0.2726  0.2746
 9093TIP3    H148770   0.646   0.164   1.788 -1.1822 -0.0706 -1.2781
 9093TIP3    H248771   0.599   0.172   1.932  1.3394  1.2143 -0.4747
 9094TIP3   OH248772   3.100   0.888   6.124 -0.5753  0.0110  0.0651
 9094TIP3    H148773   3.097   0.795   6.104 -0.7340 -0.6097  2.7626
 9094TIP3    H248774   3.139   0.893   6.212 -1.4028  2.3983  0.3500
 9095TIP3   OH248775   0.630   6.472   0.862  0.1385 -0.0579 -0.0767
 9095TIP3    H148776   0.725   6.463   0.875 -0.0625  0.4300  1.7324
 9095TIP3    H248777   0.623   6.526   0.782  1.3633 -1.1733 -0.9668
 9096TIP3   OH248778   1.698   0.562   5.160 -0.0140  0.4889  0.3724
 9096TIP3    H148779   1.651   0.533   5.082  0.2634  3.1368 -0.8598
 9096TIP3    H248780   1.690   0.490   5.222 -3.3854 -0.1912 -0.7678
 9097TIP3   OH248781   3.221   2.800   3.316 -0.6240  0.2802 -0.1928
 9097TIP3    H148782   3.258   2.713   3.333 -1.7432 -0.2231 -0.2639
 9097TIP3    H248783   3.247   2.820   3.226 -1.3572 -0.5133 -0.5962
 9098TIP3   OH248784   6.400   5.851  13.885 -0.3573  0.1673 -0.3843
 9098TIP3    H148785   6.468   5.876  13.822 -0.2483 -0.9654 -0.7263
 9098TIP3    H248786   6.363   5.934  13.915  0.1475  0.7413 -1.3330
 9099TIP3   OH248787   1.631   1.158  14.609  0.1772  0.1060 -0.0035
 9099TIP3    H148788   1.636   1.208  14.528  0.7538 -0.3959 -0.2777
 9099TIP3    H248789   1.537   1.147  14.624  0.0681  0.0350 -0.7107
 9100TIP3   OH248790   4.250   3.668  17.062  0.3510 -0.3025  0.3226
 9100TIP3    H148791   4.283   3.646  17.150 -0.7992  0.1772  0.8875
 9100TIP3    H248792   4.260   3.763  17.056  0.8586 -0.3894 -0.2514
 9101TIP3   OH248793   4.267   0.397   2.799  0.0705 -0.3649  0.1465
 9101TIP3    H148794   4.214   0.384   2.878 -1.3510  0.0572 -0.7335
 9101TIP3    H248795   4.248   0.320   2.745 -0.0052  0.0178 -0.3716
 9102TIP3   OH248796   1.370   0.467   1.461  0.0055 -0.0562 -0.7842
 9102TIP3    H148797   1.367   0.542   1.400  1.9411  0.3953 -0.3596
 9102TIP3    H248798   1.462   0.462   1.488 -0.1991 -2.3233 -0.4474
 9103TIP3   OH248799   1.592   2.061  16.708  0.4857 -0.4743  0.4869
 9103TIP3    H148800   1.681   2.058  16.674  0.1595  0.3042 -0.4706
 9103TIP3    H248801   1.578   2.153  16.730 -0.1617 -0.5486  0.3938
 9104TIP3   OH248802   4.978   1.591  15.714 -0.2947 -0.0959 -0.6860
 9104TIP3    H148803   5.046   1.605  15.648  1.0552 -2.1665  0.2148
 9104TIP3    H248804   4.896   1.600  15.666  0.6566 -1.0180 -2.5353
 9105TIP3   OH248805   1.417   3.908   5.390  0.2954 -0.4285 -0.0823
 9105TIP3    H148806   1.328   3.925   5.358  0.4900 -1.8941 -1.4598
 9105TIP3    H248807   1.432   3.976   5.456 -1.0643  1.1000 -1.3196
 9106TIP3   OH248808   0.588   3.584  15.146 -0.0341 -0.4040  0.1685
 9106TIP3    H148809   0.635   3.517  15.196 -0.1698 -1.6659 -1.3837
 9106TIP3    H248810   0.558   3.539  15.067  0.2629  1.5889 -1.1101
 9107TIP3   OH248811   3.403   4.355  14.643  0.0290  0.0982  0.1216
 9107TIP3    H148812   3.395   4.332  14.551  1.0797  2.0078 -0.4832
 9107TIP3    H248813   3.433   4.276  14.686 -1.6001 -1.1448 -0.9785
 9108TIP3   OH248814   1.682   0.375   1.824 -0.0685  0.4864  0.4103
 9108TIP3    H148815   1.604   0.341   1.780 -0.5872  0.4464  1.3249
 9108TIP3    H248816   1.688   0.323   1.905  1.4396 -0.1291 -0.0813
 9109TIP3   OH248817   2.038   5.245  13.816  0.2225  0.3712 -0.2491
 9109TIP3    H148818   2.066   5.154  13.808  0.1049  0.4013 -1.0252
 9109TIP3    H248819   2.058   5.284  13.731 -0.5169  0.8516 -0.2040
 9110TIP3   OH248820   5.652   2.390  14.176 -0.9243  0.0584  0.3891
 9110TIP3    H148821   5.631   2.300  14.200  0.3695 -0.4293 -0.2321
 9110TIP3    H248822   5.656   2.389  14.081  1.6671  0.1331  0.4563
 9111TIP3   OH248823   3.189   2.543   0.718  1.2024 -0.1950  0.7595
 9111TIP3    H148824   3.283   2.552   0.700  0.6185 -0.1882 -2.7219
 9111TIP3    H248825   3.149   2.618   0.673 -0.5000 -0.3903  1.9002
 9112TIP3   OH248826   2.590   1.837   2.737  0.2863  0.0621 -0.3987
 9112TIP3    H148827   2.606   1.878   2.652  1.5002  0.8602  0.1930
 9112TIP3    H248828   2.578   1.911   2.797  1.6680 -0.4323  0.5216
 9113TIP3   OH248829   3.403   1.338  12.607  0.1638  0.0928 -0.2144
 9113TIP3    H148830   3.483   1.286  12.612  0.2223  0.2849  1.1907
 9113TIP3    H248831   3.433   1.429  12.604  0.0120  0.1486 -0.0458
 9114TIP3   OH248832   1.950   0.094   0.751  0.8925 -0.6492  0.1707
 9114TIP3    H148833   1.944   0.189   0.746  1.1300 -0.6518 -0.1906
 9114TIP3    H248834   2.039   0.074   0.722  1.3594 -0.8719  1.7094
 9115TIP3   OH248835   4.314   3.206  14.128 -0.0853  0.1446 -0.1955
 9115TIP3    H148836   4.224   3.174  14.119 -0.2395  0.5885 -0.2434
 9115TIP3    H248837   4.311   3.296  14.096  0.3792  0.1617 -0.1981
 9116TIP3   OH248838   0.537   5.606   3.885  0.4779  0.2330  0.0876
 9116TIP3    H148839   0.584   5.550   3.946 -1.1167 -0.6671  0.5301
 9116TIP3    H248840   0.454   5.626   3.930  0.7419  2.4258 -0.3150
 9117TIP3   OH248841   6.020   4.151  14.971 -0.3521 -0.1484  0.0349
 9117TIP3    H148842   5.984   4.075  15.016 -1.7478  1.3693  1.5088
 9117TIP3    H248843   5.956   4.171  14.903 -0.4398  0.2917  0.2514
 9118TIP3   OH248844   0.704   5.011   0.306  0.3244 -0.0199  0.1906
 9118TIP3    H148845   0.661   4.935   0.266  0.1722  0.2151 -0.0887
 9118TIP3    H248846   0.645   5.037   0.377  0.3295 -0.1006  0.2248
 9119TIP3   OH248847   0.920   2.292   3.922  0.3829  0.0281 -0.8050
 9119TIP3    H148848   0.839   2.296   3.872  1.0226  1.7735 -1.7784
 9119TIP3    H248849   0.904   2.347   3.999  0.4709 -0.0165 -0.7547
 9120TIP3   OH248850   5.561   0.581   1.809 -0.1695  0.7623  0.2140
 9120TIP3    H148851   5.651   0.557   1.830 -0.8709 -0.7957  1.4899
 9120TIP3    H248852   5.526   0.615   1.892 -1.4419 -0.7566  0.3016
 9121TIP3   OH248853   4.078   0.773  13.898  0.3447  0.0965 -0.5275
 9121TIP3    H148854   3.986   0.796  13.912  0.7112  1.4638 -0.2967
 9121TIP3    H248855   4.076   0.701  13.835 -0.8645  0.3929 -0.8275
 9122TIP3   OH248856   1.688   5.464  17.280 -0.0823 -0.0316  0.2922
 9122TIP3    H148857   1.707   5.446  17.372  0.5225 -0.1530  0.1463
 9122TIP3    H248858   1.680   5.559  17.275 -0.4361 -0.0468  0.5273
 9123TIP3   OH248859   0.027   0.349   4.146 -0.0609  0.3802  0.3701
 9123TIP3    H148860  -0.043   0.368   4.084  0.8653  1.0415 -0.4927
 9123TIP3    H248861   0.053   0.259   4.126 -1.6116 -0.3623  1.6433
 9124TIP3   OH248862   4.299   0.435  15.228  0.2043 -0.4854 -0.7669
 9124TIP3    H148863   4.218   0.481  15.207  0.5706  0.7027  0.3085
 9124TIP3    H248864   4.322   0.388  15.148 -0.1656  1.2472 -1.9181
 9125TIP3   OH248865   5.840   0.862   6.308 -0.0123  0.7245  0.1459
 9125TIP3    H148866   5.869   0.952   6.326 -1.7464  1.3240  0.0472
 9125TIP3    H248867   5.749   0.860   6.339 -0.6098 -0.4193 -1.6400
 9126TIP3   OH248868   0.228   6.656   3.555 -0.1236  0.0670  0.1834
 9126TIP3    H148869   0.153   6.632   3.500  0.8976  0.3153 -1.3442
 9126TIP3    H248870   0.222   6.752   3.563 -0.5979 -0.0233  1.0128
 9127TIP3   OH248871   3.217   4.412   5.575  0.4514  0.7690  0.3386
 9127TIP3    H148872   3.251   4.376   5.657  2.4724  0.7422 -0.4892
 9127TIP3    H248873   3.295   4.441   5.527 -0.8963  3.3599 -0.3677
 9128TIP3   OH248874   4.600   5.341   1.358 -0.0270 -0.1925  0.0199
 9128TIP3    H148875   4.510   5.309   1.368 -0.7510  1.1845 -1.7456
 9128TIP3    H248876   4.615   5.394   1.436  0.5633 -3.2679  2.1039
 9129TIP3   OH248877   0.202   5.378   6.464  0.1641  0.2755  0.0202
 9129TIP3    H148878   0.146   5.326   6.407 -0.4667  1.0052 -0.0407
 9129TIP3    H248879   0.216   5.324   6.541  1.1603 -0.7925 -0.8848
 9130TIP3   OH248880   5.931   4.587  16.731 -0.8718  0.1796  0.3735
 9130TIP3    H148881   5.959   4.543  16.651 -2.0464 -0.3978  0.2667
 9130TIP3    H248882   5.982   4.545  16.800  0.3856  0.9048 -0.1002
 9131TIP3   OH248883   2.332   3.961  12.107 -0.0930  0.0773 -0.1063
 9131TIP3    H148884   2.242   3.940  12.129  0.1081  0.4479  1.1072
 9131TIP3    H248885   2.331   4.054  12.084  0.6980  1.3050  4.2983
 9132TIP3   OH248886   6.615   6.609  11.730  0.3010  0.6615 -0.1036
 9132TIP3    H148887   6.609   6.659  11.812  1.8272 -0.4963  0.7480
 9132TIP3    H248888   6.544   6.545  11.736  0.9806 -0.0263  0.7605
 9133TIP3   OH248889   5.535   0.986   4.899  0.4869  0.5010  0.2983
 9133TIP3    H148890   5.571   0.899   4.881 -0.7979 -0.0292  0.2527
 9133TIP3    H248891   5.570   1.010   4.985  0.8021 -0.0827  0.3327
 9134TIP3   OH248892   1.440   3.177  17.273 -0.3730 -0.8671  0.1100
 9134TIP3    H148893   1.371   3.176  17.207 -0.8571 -0.5166  0.6109
 9134TIP3    H248894   1.493   3.100  17.253  0.1438 -0.1350 -1.3805
 9135TIP3   OH248895   5.164   0.533   5.669 -0.1829  0.7769  0.3612
 9135TIP3    H148896   5.193   0.563   5.583 -1.0388  2.6402  0.7133
 9135TIP3    H248897   5.078   0.493   5.653 -0.1185  0.6673  0.2845
 9136TIP3   OH248898   4.979   1.251   5.033  0.0983 -0.1330  0.1595
 9136TIP3    H148899   4.996   1.303   4.955  1.1238  0.0744  0.5045
 9136TIP3    H248900   5.061   1.255   5.082 -0.3995 -0.6062  1.0438
 9137TIP3   OH248901   2.665   2.866   3.410  0.1170 -0.3425 -0.6512
 9137TIP3    H148902   2.637   2.777   3.429 -0.3162 -0.0808 -0.0424
 9137TIP3    H248903   2.758   2.857   3.387 -0.4090 -1.1872 -2.5433
 9138TIP3   OH248904   3.131   1.346  15.165  0.5272  0.7358  0.4606
 9138TIP3    H148905   3.162   1.434  15.142 -0.0443  0.2375 -2.4263
 9138TIP3    H248906   3.211   1.295  15.175  0.8161  1.1305  0.1920
 9139TIP3   OH248907   3.379   4.070   5.454 -0.6633 -0.3088 -0.0542
 9139TIP3    H148908   3.354   3.999   5.394 -2.8154  1.6895 -1.6165
 9139TIP3    H248909   3.442   4.122   5.405  0.5257 -0.8210  0.9050
 9140TIP3   OH248910   4.619   0.787   1.365  0.0289  0.0076  0.5131
 9140TIP3    H148911   4.689   0.825   1.417  2.1076  0.2924 -2.3677
 9140TIP3    H248912   4.626   0.831   1.280 -2.5221 -1.2505 -0.4030
 9141TIP3   OH248913   2.330   5.828   4.336  0.0379 -0.1721 -0.3778
 9141TIP3    H148914   2.308   5.868   4.252 -2.1692 -1.1113 -0.2915
 9141TIP3    H248915   2.419   5.794   4.324  0.4266  1.2631 -1.7358
 9142TIP3   OH248916   5.539   5.596  14.476  0.4451  0.2193 -0.0910
 9142TIP3    H148917   5.570   5.631  14.560  0.5349 -0.0234 -0.0212
 9142TIP3    H248918   5.578   5.509  14.471 -1.7504 -0.8647  0.8931
 9143TIP3   OH248919   2.861   1.648   2.537  0.0972  0.2769  0.2173
 9143TIP3    H148920   2.836   1.561   2.506  2.0934 -0.9930  1.9927
 9143TIP3    H248921   2.934   1.674   2.481  0.8510 -0.1144  1.0038
 9144TIP3   OH248922   5.356   0.440   4.550  0.2073 -0.5165 -0.0817
 9144TIP3    H148923   5.291   0.404   4.489 -0.1734 -0.5976  0.3675
 9144TIP3    H248924   5.409   0.365   4.576  0.9890 -0.3157 -1.0574
 9145TIP3   OH248925   5.140   5.265   0.608 -0.5330  0.4697 -0.1252
 9145TIP3    H148926   5.084   5.311   0.546 -0.0290  0.0868 -0.8706
 9145TIP3    H248927   5.217   5.238   0.557 -0.6917 -0.9613  0.3496
 9146TIP3   OH248928   3.647   6.752   3.329  0.5329  0.4282  0.1332
 9146TIP3    H148929   3.579   6.695   3.365  0.8898 -0.8831 -1.2566
 9146TIP3    H248930   3.704   6.694   3.278  1.4280  1.8708 -0.5558
 9147TIP3   OH248931   6.019   6.009  12.659 -0.1568  0.9345 -0.1298
 9147TIP3    H148932   6.091   5.965  12.613  1.3803  1.1728  1.9876
 9147TIP3    H248933   5.942   5.990  12.606  1.5529  1.1883 -2.7948
 9148TIP3   OH248934   3.480   2.994  13.292 -0.1005 -0.2555 -0.1691
 9148TIP3    H148935   3.571   3.019  13.305  0.1861 -1.1140 -0.4872
 9148TIP3    H248936   3.435   3.076  13.271  0.7636  0.0353 -0.9112
 9149TIP3   OH248937   2.544   3.298  12.221 -0.1403 -0.2091  0.0459
 9149TIP3    H148938   2.603   3.368  12.247  0.5841 -0.4044 -1.0324
 9149TIP3    H248939   2.469   3.306  12.280 -0.0085  1.3952  0.0168
 9150TIP3   OH248940   2.270   1.777   2.201 -0.5957 -0.1520  0.4535
 9150TIP3    H148941   2.354   1.806   2.235 -0.1031  0.3425 -1.1600
 9150TIP3    H248942   2.236   1.718   2.268  0.8545 -0.0420  1.2934
 9151TIP3   OH248943   5.994   2.335   0.874  0.0660 -0.1430  0.0959
 9151TIP3    H148944   6.022   2.425   0.856 -1.8850  0.0796 -2.0564
 9151TIP3    H248945   6.066   2.281   0.842  0.1153  0.5696 -1.0305
 9152TIP3   OH248946   6.728   6.761  15.606  0.1114 -0.4470 -0.2341
 9152TIP3    H148947   6.645   6.716  15.620 -0.7061 -0.3862 -4.4730
 9152TIP3    H248948   6.782   6.697  15.560  1.6263  0.3372  0.4147
 9153TIP3   OH248949   4.613   3.946  11.568  0.5637 -0.0603 -0.1535
 9153TIP3    H148950   4.645   3.862  11.533  1.6624 -0.4455  1.7045
 9153TIP3    H248951   4.545   3.973  11.507  1.5137 -1.3704 -1.8331
 9154TIP3   OH248952   2.224   4.878   6.734 -0.2941 -0.7791  0.0980
 9154TIP3    H148953   2.306   4.877   6.783 -1.0518 -1.5262  1.3851
 9154TIP3    H248954   2.186   4.792   6.750 -1.6371 -0.2076  0.0137
 9155TIP3   OH248955   3.140   6.242   2.970  0.2653 -0.5765 -0.6390
 9155TIP3    H148956   3.144   6.336   2.984  0.4197 -0.6835  0.0391
 9155TIP3    H248957   3.207   6.225   2.903 -1.3280  0.1001 -2.4337
 9156TIP3   OH248958   1.546   3.314  12.750 -0.2093  0.3616 -0.3099
 9156TIP3    H148959   1.486   3.329  12.823  1.2024  0.2397  0.9144
 9156TIP3    H248960   1.565   3.220  12.754  0.0323  0.3917 -0.7083
 9157TIP3   OH248961   5.947   1.425  15.493 -0.7914 -0.0677  0.1723
 9157TIP3    H148962   5.889   1.453  15.422 -1.1659  0.5930  0.7242
 9157TIP3    H248963   5.985   1.506  15.526 -2.1643 -0.1344  2.0200
 9158TIP3   OH248964   2.496   2.208  16.240 -0.3122  0.1983 -0.1768
 9158TIP3    H148965   2.401   2.215  16.234 -0.3153 -0.9006 -1.7820
 9158TIP3    H248966   2.529   2.275  16.180 -0.0992 -0.2683 -0.5857
 9159TIP3   OH248967   3.184   6.552   3.791 -0.1833 -0.5696  0.3829
 9159TIP3    H148968   3.238   6.495   3.736  0.1946  0.4787 -0.3467
 9159TIP3    H248969   3.224   6.547   3.877  1.2282  0.3770 -0.2064
 9160TIP3   OH248970   5.290   1.899  12.241  0.0714  0.4270  0.1619
 9160TIP3    H148971   5.361   1.943  12.288  0.5437  2.8529 -2.6751
 9160TIP3    H248972   5.334   1.839  12.181 -0.3610  0.0635  0.2067
 9161TIP3   OH248973   5.679   1.922   3.285  0.1760  0.0804 -0.0615
 9161TIP3    H148974   5.619   1.870   3.339 -0.6198  0.1438 -0.8601
 9161TIP3    H248975   5.687   2.006   3.331  0.7498 -0.4166  0.7634
 9162TIP3   OH248976   0.337   5.849  11.075 -0.1708  0.5159 -0.0500
 9162TIP3    H148977   0.372   5.789  11.141  2.1753  0.6546 -1.1304
 9162TIP3    H248978   0.306   5.791  11.005 -2.2992  0.3882  0.9500
 9163TIP3   OH248979   6.308   3.998  11.495  0.3419  0.3774 -0.1317
 9163TIP3    H148980   6.219   3.983  11.528 -0.5188 -1.8568 -3.2776
 9163TIP3    H248981   6.312   4.092  11.481 -1.5661  0.5069 -0.0189
 9164TIP3   OH248982   0.508   6.186   2.173 -0.2833 -0.0231  0.2119
 9164TIP3    H148983   0.462   6.116   2.220 -1.4700 -0.7621 -1.9929
 9164TIP3    H248984   0.481   6.266   2.217 -1.4534 -0.6902  0.7378
 9165TIP3   OH248985   5.039   4.490   0.335  0.1244  0.2930  0.0423
 9165TIP3    H148986   5.068   4.447   0.415 -1.0331 -3.1745 -1.2867
 9165TIP3    H248987   4.967   4.547   0.362  0.6486  0.1963  1.6445
 9166TIP3   OH248988   2.675   4.552   1.325  0.0361  0.0122  0.5401
 9166TIP3    H148989   2.656   4.533   1.417  0.6551  0.0681  0.6796
 9166TIP3    H248990   2.605   4.507   1.277 -1.8633  2.1961  1.1440
 9167TIP3   OH248991   6.036   0.023   3.017 -0.3954 -0.6935  0.2558
 9167TIP3    H148992   5.979   0.030   3.094  1.1482  0.1354  1.3449
 9167TIP3    H248993   6.124   0.042   3.050 -0.0450  2.4358 -2.2260
 9168TIP3   OH248994   3.041   4.981  14.713 -0.9286 -0.0292  0.2370
 9168TIP3    H148995   2.974   4.981  14.781 -0.6812  0.2555  0.4874
 9168TIP3    H248996   3.097   5.056  14.735 -0.6874 -0.1026 -0.1215
 9169TIP3   OH248997   1.928   0.611  14.392 -0.5690 -0.9634 -0.3355
 9169TIP3    H148998   1.960   0.536  14.342  0.2498  0.3019 -1.7611
 9169TIP3    H248999   1.832   0.600  14.391 -0.6160 -0.6907 -2.6849
 9170TIP3   OH249000   4.976   2.063   1.858 -0.0797  0.0963  0.2004
 9170TIP3    H149001   4.958   2.058   1.952 -2.7109  0.7649 -0.2387
 9170TIP3    H249002   5.009   1.976   1.836 -0.9135 -0.5583  1.4723
 9171TIP3   OH249003   5.923   4.355   2.812 -0.3916  0.7501  0.1200
 9171TIP3    H149004   5.902   4.302   2.889 -1.1239  1.8958  0.7179
 9171TIP3    H249005   5.997   4.310   2.772 -0.1959 -0.0337  1.3263
 9172TIP3   OH249006   0.063   4.340   0.819  0.3197 -0.0014  0.0586
 9172TIP3    H149007   0.023   4.420   0.852  0.2827  0.5772 -1.3673
 9172TIP3    H249008   0.151   4.367   0.792  0.0142 -0.2452 -1.2207
 9173TIP3   OH249009   5.554   1.427   0.975 -0.5931  0.0240  0.2247
 9173TIP3    H149010   5.609   1.501   0.950 -0.3872  0.0701  0.7962
 9173TIP3    H249011   5.614   1.365   1.016 -1.0680  0.3955  1.5255
 9174TIP3   OH249012   5.917   5.704  11.531  0.3009 -0.4643 -0.4995
 9174TIP3    H149013   5.926   5.642  11.460 -1.2610 -1.2584 -0.0324
 9174TIP3    H249014   5.825   5.730  11.529  0.0375 -1.1120  1.7048
 9175TIP3   OH249015   4.256   3.237   2.189 -0.6752  0.2186  0.5387
 9175TIP3    H149016   4.280   3.199   2.104  0.1649 -0.7459  1.1915
 9175TIP3    H249017   4.341   3.254   2.231 -1.0868  0.9685  1.0623
 9176TIP3   OH249018   4.675   3.199  16.023 -0.3999 -0.2420  0.2643
 9176TIP3    H149019   4.619   3.156  16.088  1.4312 -0.2649  1.8728
 9176TIP3    H249020   4.752   3.143  16.017  0.5943  1.1290 -0.0258
 9177TIP3   OH249021   0.229   0.377  16.812  0.0565  0.3468  0.0100
 9177TIP3    H149022   0.291   0.358  16.741 -1.1561 -0.6691 -0.8104
 9177TIP3    H249023   0.157   0.422  16.769 -0.3372  0.4285  0.7506
 9178TIP3   OH249024   2.450   4.484   0.159  0.1086  0.2426  0.2372
 9178TIP3    H149025   2.496   4.504   0.241  1.3461 -1.1422 -0.0919
 9178TIP3    H249026   2.408   4.400   0.175  1.5184 -0.7256 -0.9859
 9179TIP3   OH249027   6.260   4.620  14.312 -0.5538  0.5140 -0.0066
 9179TIP3    H149028   6.215   4.703  14.298 -0.0003  0.5956 -1.3987
 9179TIP3    H249029   6.341   4.628  14.261 -0.6988 -1.0491 -0.4995
 9180TIP3   OH249030   6.010   2.325  11.112  0.5568 -0.4196  0.3945
 9180TIP3    H149031   6.029   2.416  11.136  1.8762 -0.3335 -0.9218
 9180TIP3    H249032   6.032   2.319  11.019  0.6334 -2.1255  0.5010
 9181TIP3   OH249033   4.062   1.979  12.049 -0.0687 -0.1007 -0.3415
 9181TIP3    H149034   4.052   1.980  12.145  2.1536  0.9804 -0.0993
 9181TIP3    H249035   4.099   2.065  12.029 -0.9147 -0.1677 -2.2332
 9182TIP3   OH249036   6.070   1.286   3.079 -0.7243  0.5343  0.2686
 9182TIP3    H149037   6.067   1.233   3.159  1.6619  0.8897  0.6240
 9182TIP3    H249038   6.008   1.357   3.094  0.5056  1.2201  2.2815
 9183TIP3   OH249039   5.491   1.380   2.742 -0.1257  0.1133 -0.3572
 9183TIP3    H149040   5.432   1.440   2.696 -0.0723 -0.9390 -1.8314
 9183TIP3    H249041   5.434   1.334   2.804 -0.5646  0.2064 -0.6839
 9184TIP3   OH249042   5.233   1.283  10.670  0.1450 -0.1690 -0.4871
 9184TIP3    H149043   5.221   1.373  10.699  0.6979  0.2238 -1.4658
 9184TIP3    H249044   5.325   1.278  10.642 -0.4299 -0.4590 -2.4030
 9185TIP3   OH249045   2.734   6.348  14.608  0.0338  0.2451 -0.0122
 9185TIP3    H149046   2.779   6.268  14.584  0.0412  0.1865  0.1901
 9185TIP3    H249047   2.786   6.384  14.681  0.2260  0.6098 -0.3246
 9186TIP3   OH249048   0.201   0.030   2.751  0.0721 -0.1382  0.5391
 9186TIP3    H149049   0.182  -0.063   2.761 -0.4749 -0.3647 -2.1544
 9186TIP3    H249050   0.115   0.071   2.741  0.3699  0.4661  0.4223
 9187TIP3   OH249051   4.905   5.062  14.345 -0.1039 -0.4389 -0.0678
 9187TIP3    H149052   4.968   4.991  14.332  1.1757  0.3907  1.4379
 9187TIP3    H249053   4.948   5.140  14.309  0.0130  0.2564  1.5278
 9188TIP3   OH249054   6.666   6.561   0.987 -0.0223  0.0584  0.3243
 9188TIP3    H149055   6.664   6.527   0.897  2.4084  1.9297 -0.5098
 9188TIP3    H249056   6.611   6.640   0.984 -0.2358 -0.0826  0.5557
 9189TIP3   OH249057   3.173   1.095  13.009  0.4168  0.3760  0.1987
 9189TIP3    H149058   3.199   1.138  12.927 -0.8951 -0.8667 -0.9076
 9189TIP3    H249059   3.090   1.135  13.031 -0.8310 -1.5305 -0.8555
 9190TIP3   OH249060   3.137   2.996  13.235 -0.7612 -0.4243  0.3458
 9190TIP3    H149061   3.179   3.081  13.245 -0.5968 -0.7723  2.9779
 9190TIP3    H249062   3.208   2.932  13.243 -1.2519 -0.8894  1.0639
 9191TIP3   OH249063   2.702   0.753   4.059 -0.0760 -0.0813 -0.1202
 9191TIP3    H149064   2.620   0.769   4.012 -1.5447 -0.8044  2.0979
 9191TIP3    H249065   2.702   0.659   4.075  0.0897  0.2156  1.7873
 9192TIP3   OH249066   6.017   5.932  13.467  0.1005 -1.3706 -0.3937
 9192TIP3    H149067   5.956   5.870  13.424 -1.1808 -0.1389 -0.4070
 9192TIP3    H249068   6.040   5.993  13.397 -1.2107  0.0635  0.3993
 9193TIP3   OH249069   6.612   2.748   1.630  0.2549 -0.6376 -0.2535
 9193TIP3    H149070   6.595   2.837   1.661  1.6820 -0.6438  0.5880
 9193TIP3    H249071   6.565   2.743   1.546 -0.3500  0.6912 -0.0116
 9194TIP3   OH249072   5.649   3.518  15.140 -0.3339 -0.1966  0.3016
 9194TIP3    H149073   5.702   3.477  15.072 -2.0777  0.1087 -1.2907
 9194TIP3    H249074   5.576   3.457  15.153 -1.0994  0.7352  0.4083
 9195TIP3   OH249075   4.459   0.540   2.655 -0.3498  0.4176  0.1094
 9195TIP3    H149076   4.456   0.625   2.699  0.1664  0.3860  0.2096
 9195TIP3    H249077   4.405   0.483   2.710  1.3610  0.0433  1.4680
 9196TIP3   OH249078   2.311   5.290   3.252  0.6789  0.5977 -0.5212
 9196TIP3    H149079   2.216   5.306   3.246  0.2042 -1.9461 -0.0760
 9196TIP3    H249080   2.343   5.364   3.304 -1.2817  0.7743  0.5191
 9197TIP3   OH249081   4.373   0.794   0.986 -0.0583 -0.0882  0.2681
 9197TIP3    H149082   4.405   0.877   0.950 -0.4006 -0.5898 -1.2491
 9197TIP3    H249083   4.424   0.728   0.940  1.8497 -0.6859  3.1173
 9198TIP3   OH249084   3.569   2.789   2.739  0.3763  0.0939 -0.8941
 9198TIP3    H149085   3.619   2.766   2.818 -1.0654 -1.1188 -0.3017
 9198TIP3    H249086   3.578   2.712   2.682  0.2298  0.3930 -1.3207
 9199TIP3   OH249087   2.498   5.243   2.370 -0.1993  0.7724  0.2350
 9199TIP3    H149088   2.476   5.178   2.304 -0.4059  0.2039  0.8531
 9199TIP3    H249089   2.578   5.285   2.338 -0.5468  0.8089 -0.5855
 9200TIP3   OH249090   3.169   2.686   1.550  0.0099 -0.1121  0.1081
 9200TIP3    H149091   3.149   2.593   1.538 -0.6371  0.0927 -0.4319
 9200TIP3    H249092   3.130   2.729   1.474  1.2699  0.4757 -0.2150
 9201TIP3   OH249093   1.541   6.590  11.867 -0.0377  0.3449 -0.3908
 9201TIP3    H149094   1.560   6.677  11.901 -1.6549 -0.2331  2.1873
 9201TIP3    H249095   1.451   6.596  11.833 -0.3674 -0.4044  0.3010
 9202TIP3   OH249096   1.807   6.195  15.198 -0.0220  0.2152  0.2454
 9202TIP3    H149097   1.794   6.141  15.120 -1.4472  1.4429 -0.4031
 9202TIP3    H249098   1.893   6.169  15.231  0.7520 -0.1183 -1.9163
 9203TIP3   OH249099   4.423   3.689  16.719  0.3450  0.2729 -0.0317
 9203TIP3    H149100   4.471   3.700  16.637 -1.7962 -1.3401 -1.5796
 9203TIP3    H249101   4.483   3.642  16.776  1.9208  1.5329 -0.6169
 9204TIP3   OH249102   3.529   6.320   5.111  0.0924 -0.2905  0.0585
 9204TIP3    H149103   3.607   6.277   5.075  0.3339 -0.3117  0.6071
 9204TIP3    H249104   3.488   6.362   5.035  0.8555  0.0583 -0.1665
 9205TIP3   OH249105   2.256   3.219   0.379  0.0509 -0.3142  0.5874
 9205TIP3    H149106   2.330   3.278   0.392  0.6156 -0.8602 -0.0753
 9205TIP3    H249107   2.211   3.253   0.302  0.0060 -0.3744  0.5869
 9206TIP3   OH249108   3.604   3.123   2.111 -0.1082  0.2632 -0.2619
 9206TIP3    H149109   3.521   3.158   2.077  0.1329  0.8447 -0.2534
 9206TIP3    H249110   3.586   3.106   2.203 -0.1015  0.7625 -0.1655
 9207TIP3   OH249111   0.076   4.582   5.795 -0.0013 -0.5137  0.0732
 9207TIP3    H149112   0.071   4.583   5.699 -0.9663  0.3580  0.1280
 9207TIP3    H249113   0.153   4.528   5.814 -1.1571 -2.6682 -1.1310
 9208TIP3   OH249114   1.880   6.249  11.270  0.1765 -0.0921  0.5113
 9208TIP3    H149115   1.885   6.278  11.361  0.3824 -0.0572  0.4917
 9208TIP3    H249116   1.972   6.243  11.242  0.0901  1.9566 -0.3364
 9209TIP3   OH249117   5.333   5.874  12.868 -0.5126  0.1593  0.5760
 9209TIP3    H149118   5.279   5.878  12.789  1.6090  0.2070 -0.9415
 9209TIP3    H249119   5.416   5.913  12.841  0.6673 -0.9492  2.5021
 9210TIP3   OH249120   4.653   1.892   3.271 -0.0734  0.3598  1.0435
 9210TIP3    H149121   4.581   1.835   3.242  0.6650  0.5508 -1.2952
 9210TIP3    H249122   4.633   1.977   3.233  0.9338  0.6223  1.0930
 9211TIP3   OH249123   3.594   1.863  14.611 -0.3610 -0.3413  0.3833
 9211TIP3    H149124   3.522   1.808  14.581 -1.5051  0.5384  1.4725
 9211TIP3    H249125   3.552   1.945  14.638  1.1848  0.6493 -0.1393
 9212TIP3   OH249126   2.446   2.915  16.460 -0.0104 -0.2095  0.2716
 9212TIP3    H149127   2.418   2.973  16.531  1.0139  2.8214 -1.7217
 9212TIP3    H249128   2.540   2.929  16.453  0.0693 -1.2955 -0.9817
 9213TIP3   OH249129   3.328   0.865  11.190 -0.4810  0.0405  0.6208
 9213TIP3    H149130   3.293   0.830  11.272 -2.6638  0.0691 -0.2574
 9213TIP3    H249131   3.293   0.954  11.185  0.5565  0.4282  0.2011
 9214TIP3   OH249132   1.621   5.064  16.995 -0.3718 -0.2651  0.1026
 9214TIP3    H149133   1.710   5.039  17.020 -0.3420 -0.3066 -0.0472
 9214TIP3    H249134   1.625   5.160  16.986 -0.7311 -0.0901  1.6659
 9215TIP3   OH249135   6.140   4.426   1.293 -0.3019 -0.5845 -0.0402
 9215TIP3    H149136   6.075   4.459   1.355 -0.4058  0.6400 -0.7809
 9215TIP3    H249137   6.103   4.344   1.260 -0.1353 -1.3743  1.6779
 9216TIP3   OH249138   0.184   4.568  11.982 -0.7221  0.2760  0.1437
 9216TIP3    H149139   0.207   4.660  11.976  0.8656 -0.0662  0.6273
 9216TIP3    H249140   0.220   4.529  11.902  1.1743 -0.4129  1.2970
 9217TIP3   OH249141   1.372   5.338   5.606 -0.2532  0.5077  0.6054
 9217TIP3    H149142   1.320   5.265   5.573 -0.0893  0.7057 -0.0952
 9217TIP3    H249143   1.459   5.301   5.619 -0.8044 -0.0964  2.7834
 9218TIP3   OH249144   2.393   6.706   2.133  0.4167  0.6152 -0.2849
 9218TIP3    H149145   2.380   6.709   2.038 -0.2705  1.0410 -0.1723
 9218TIP3    H249146   2.398   6.797   2.160 -0.1003  0.4977  0.1978
 9219TIP3   OH249147   1.976   2.574  15.638 -0.2084 -0.2640 -0.0703
 9219TIP3    H149148   1.927   2.624  15.572 -0.4444 -0.2736  0.0975
 9219TIP3    H249149   2.041   2.525  15.587  0.5843  0.8673 -0.1504
 9220TIP3   OH249150   0.488   5.319  15.874 -0.8257  0.4157  0.0548
 9220TIP3    H149151   0.583   5.325  15.886 -0.6193 -1.6899 -0.2840
 9220TIP3    H249152   0.459   5.410  15.869  1.1531  1.0966  0.3032
 9221TIP3   OH249153   4.793   5.951  16.601 -0.2805  0.5584 -0.1438
 9221TIP3    H149154   4.836   6.029  16.566 -0.0200 -0.8378 -3.0792
 9221TIP3    H249155   4.844   5.878  16.568  1.2021 -0.8958  4.9294
 9222TIP3   OH249156   4.947   1.544   0.277 -0.3826  0.6227 -0.7008
 9222TIP3    H149157   4.986   1.531   0.191  0.8776 -1.2708  0.1285
 9222TIP3    H249158   5.020   1.569   0.333 -1.1782  1.7435 -0.1521
 9223TIP3   OH249159   5.792   5.547  13.676  0.0866  0.1231  0.4890
 9223TIP3    H149160   5.866   5.534  13.617 -0.6965  2.0216 -0.9722
 9223TIP3    H249161   5.829   5.597  13.749  0.5728 -0.2843  0.5268
 9224TIP3   OH249162   1.183   4.555  13.392 -0.3200 -0.6063 -0.4911
 9224TIP3    H149163   1.222   4.558  13.479  0.8088 -1.6999 -0.9441
 9224TIP3    H249164   1.098   4.513  13.406  0.5871 -2.3896 -0.1526
 9225TIP3   OH249165   1.644   3.779   0.326  0.3942 -0.1008 -0.2058
 9225TIP3    H149166   1.667   3.831   0.250  2.0546 -0.7906 -0.1861
 9225TIP3    H249167   1.727   3.756   0.367 -0.4212 -0.6692  1.1980
 9226TIP3   OH249168   0.506   3.657   3.840 -0.1746 -0.3517  0.0706
 9226TIP3    H149169   0.446   3.611   3.898  1.6693 -2.1574  0.5871
 9226TIP3    H249170   0.449   3.710   3.784 -2.2447 -2.1413  0.4343
 9227TIP3   OH249171   1.991   3.658  14.030 -0.1846  0.1923 -0.0415
 9227TIP3    H149172   1.985   3.646  14.125  1.5061 -0.8387 -0.0349
 9227TIP3    H249173   1.954   3.577  13.994 -0.2343  0.3082 -0.2507
 9228TIP3   OH249174   4.618   2.620   5.961  0.0842 -0.3474  0.3801
 9228TIP3    H149175   4.650   2.599   5.874 -1.1231 -1.0522  0.0924
 9228TIP3    H249176   4.561   2.546   5.984 -1.6047  1.0163  0.7141
 9229TIP3   OH249177   6.320   3.368   2.870  0.0690  0.0065  0.7561
 9229TIP3    H149178   6.364   3.288   2.898  1.1680  0.6729  1.0037
 9229TIP3    H249179   6.385   3.412   2.814 -0.5739  0.6548  0.5110
 9230TIP3   OH249180   4.507   4.942  16.346  0.5173 -0.5607  0.5959
 9230TIP3    H149181   4.520   4.906  16.433  1.2388 -0.4398  0.5375
 9230TIP3    H249182   4.560   4.886  16.288  0.3943 -0.3728  0.2969
 9231TIP3   OH249183   3.929   6.602   5.573  0.2706 -0.3428 -0.3088
 9231TIP3    H149184   3.969   6.521   5.606 -0.2829 -0.7484 -0.6147
 9231TIP3    H249185   3.844   6.574   5.539  0.0589  0.3810 -0.3765
 9232TIP3   OH249186   6.001   0.583  15.039  0.5535 -0.1491  0.2345
 9232TIP3    H149187   6.096   0.587  15.035  0.6783 -1.9622  1.2246
 9232TIP3    H249188   5.973   0.589  14.948  1.5703  0.8813 -0.0246
 9233TIP3   OH249189   2.214   6.120   3.696  0.8719  0.1276  0.3926
 9233TIP3    H149190   2.146   6.131   3.630  0.3751 -0.2588  0.8333
 9233TIP3    H249191   2.265   6.201   3.691  1.7252 -0.5033 -1.4535
 9234TIP3   OH249192   1.345   3.084   4.699 -0.5838 -0.4495  0.2516
 9234TIP3    H149193   1.300   3.024   4.759  1.3454 -1.4319  0.7721
 9234TIP3    H249194   1.333   3.045   4.612 -2.2023  0.2304  0.1663
 9235TIP3   OH249195   2.549   0.293  11.549  0.6818 -0.1736  0.7952
 9235TIP3    H149196   2.505   0.210  11.532  0.6441 -0.3582  1.8068
 9235TIP3    H249197   2.634   0.285  11.504 -0.2466  0.1493 -1.0767
 9236TIP3   OH249198   3.712   6.197  15.081  0.3087  0.0019  0.2277
 9236TIP3    H149199   3.690   6.288  15.062  0.7296  0.2368  0.8517
 9236TIP3    H249200   3.700   6.151  14.998  0.1356  0.6335 -0.0963
 9237TIP3   OH249201   3.782   3.292  16.526 -0.2426  0.3388 -0.4056
 9237TIP3    H149202   3.771   3.202  16.556  0.7486  0.9466  1.8928
 9237TIP3    H249203   3.815   3.284  16.437 -0.1124 -1.5624 -0.2091
 9238TIP3   OH249204   5.461   1.328  14.127 -0.3421 -0.6328 -0.9015
 9238TIP3    H149205   5.443   1.365  14.213 -1.7761  0.5295 -1.6762
 9238TIP3    H249206   5.554   1.342  14.113  0.1400 -1.8270  0.9095
 9239TIP3   OH249207   3.107   2.845   0.943 -0.0305 -0.5101  0.5813
 9239TIP3    H149208   3.166   2.894   0.999 -0.3996  0.7232 -0.1061
 9239TIP3    H249209   3.108   2.756   0.979  0.0564  0.1760  2.2819
 9240TIP3   OH249210   6.442   3.274  14.772 -0.0400 -0.0661 -0.0388
 9240TIP3    H149211   6.389   3.195  14.778 -2.5584  1.6614  1.6652
 9240TIP3    H249212   6.495   3.274  14.851  0.6457 -0.5070 -0.4943
 9241TIP3   OH249213   1.134   5.574   1.527 -0.1133  0.1341 -0.5328
 9241TIP3    H149214   1.044   5.548   1.543 -0.3105  0.9017 -0.3690
 9241TIP3    H249215   1.159   5.624   1.604  0.4185  0.0145 -0.6219
 9242TIP3   OH249216   5.154   3.581  13.430 -0.2385 -0.1810  0.3367
 9242TIP3    H149217   5.074   3.534  13.451  0.2364 -0.8804  0.5686
 9242TIP3    H249218   5.181   3.545  13.345  0.4528 -0.7543  0.8024
 9243TIP3   OH249219   3.992   2.852  16.930  0.1471 -0.0512 -0.0070
 9243TIP3    H149220   4.087   2.843  16.917 -0.1504 -1.2398 -1.4796
 9243TIP3    H249221   3.973   2.943  16.906  0.7564 -0.1147 -0.7411
 9244TIP3   OH249222   0.941   2.186   1.625 -0.5450 -0.0947  0.0192
 9244TIP3    H149223   0.855   2.228   1.636 -0.4715  0.3090 -0.9210
 9244TIP3    H249224   0.941   2.116   1.690 -0.9798  0.8642  1.0640
 9245TIP3   OH249225   6.103   0.717  11.188  0.0258 -0.3000 -0.2454
 9245TIP3    H149226   6.088   0.632  11.147  0.3614 -0.1653 -0.6566
 9245TIP3    H249227   6.021   0.765  11.174 -1.0464 -1.3730  2.0664
 9246TIP3   OH249228   2.547   4.997   2.746 -0.2673 -0.2234 -0.0962
 9246TIP3    H149229   2.636   4.965   2.727  0.1059 -0.2234  1.6196
 9246TIP3    H249230   2.493   4.958   2.677  1.3310  1.2710 -2.2714
 9247TIP3   OH249231   5.243   3.912   2.940 -0.2535  0.3486  0.4102
 9247TIP3    H149232   5.261   3.920   2.847 -2.1041  1.0433  0.0863
 9247TIP3    H249233   5.201   3.826   2.949  0.2751  0.1195  0.6490
 9248TIP3   OH249234   5.053   4.575  12.387 -0.2289 -0.0609  0.0683
 9248TIP3    H149235   5.069   4.668  12.374 -0.9377 -0.0370 -0.6923
 9248TIP3    H249236   5.107   4.531  12.322 -0.5471 -0.1369 -0.1483
 9249TIP3   OH249237   0.151   0.067  13.427  0.1299  0.0848  0.2060
 9249TIP3    H149238   0.106   0.006  13.369 -0.4778 -0.2604  1.0431
 9249TIP3    H249239   0.085   0.093  13.491  1.0932 -0.3646  1.3871
 9250TIP3   OH249240   1.627   3.065   4.755 -0.0408 -0.1024 -0.7455
 9250TIP3    H149241   1.643   2.982   4.710  1.3027  0.4541 -1.3355
 9250TIP3    H249242   1.533   3.079   4.746 -0.4377 -2.0190  0.1739
 9251TIP3   OH249243   5.339   0.325  16.852  0.3035  0.1134  0.1943
 9251TIP3    H149244   5.409   0.335  16.789  0.1771 -1.1053 -0.1502
 9251TIP3    H249245   5.259   0.347  16.803  0.1178 -1.5864 -0.3269
 9252TIP3   OH249246   0.357   4.552   5.194 -0.3216 -0.2517  0.0069
 9252TIP3    H149247   0.294   4.502   5.142 -0.7724 -1.0447  1.2905
 9252TIP3    H249248   0.331   4.644   5.182 -1.4121 -0.5397  0.1043
 9253TIP3   OH249249   3.806   6.813  13.715  0.4677  0.0736 -0.7757
 9253TIP3    H149250   3.868   6.837  13.784 -0.1384  0.6757 -0.4360
 9253TIP3    H249251   3.830   6.868  13.641 -0.0193  0.7293 -0.4553
 9254TIP3   OH249252   1.252   4.208  12.924  0.1188  0.7859 -0.5037
 9254TIP3    H149253   1.165   4.202  12.886  0.5789  1.3018 -1.6471
 9254TIP3    H249254   1.309   4.160  12.864  0.6679  0.6783  0.0893
 9255TIP3   OH249255   5.992   6.502  12.932  0.3892  0.2208  0.0595
 9255TIP3    H149256   6.032   6.474  13.015  2.2137 -0.7880 -1.1148
 9255TIP3    H249257   5.943   6.580  12.954 -0.7941 -1.1596  2.4881
 9256TIP3   OH249258   2.355   0.868  12.185 -0.2575 -0.2017  0.0382
 9256TIP3    H149259   2.280   0.834  12.138 -1.0959  1.7682 -0.0865
 9256TIP3    H249260   2.431   0.827  12.143 -1.1649 -0.9235 -0.8986
 9257TIP3   OH249261   0.856   2.513  15.698 -0.1263  0.0122 -0.1985
 9257TIP3    H149262   0.919   2.442  15.688  0.7864  0.5692  1.3501
 9257TIP3    H249263   0.771   2.469  15.706  0.1547 -0.7851 -1.4699
 9258TIP3   OH249264   3.424   3.772   6.458 -0.0485  0.3896  0.2231
 9258TIP3    H149265   3.462   3.828   6.391  2.1802 -0.4822  0.7250
 9258TIP3    H249266   3.472   3.793   6.538 -1.6437  0.3239  1.2255
 9259TIP3   OH249267   6.732   3.756  12.976 -0.1825 -0.2098 -0.1149
 9259TIP3    H149268   6.783   3.681  12.946  0.7939  0.4659 -0.1846
 9259TIP3    H249269   6.713   3.806  12.897  2.0657  1.3687  0.2922
 9260TIP3   OH249270   6.651   5.176  16.305 -0.0210 -0.2757 -0.1092
 9260TIP3    H149271   6.658   5.259  16.352  2.3206 -1.0821  1.0289
 9260TIP3    H249272   6.728   5.174  16.248 -0.7227 -1.1205 -1.0430
 9261TIP3   OH249273   0.684   2.624   5.530  0.1181  0.2230  0.1948
 9261TIP3    H149274   0.670   2.531   5.548 -0.5432  0.4619  0.9470
 9261TIP3    H249275   0.636   2.640   5.449 -1.1217  0.2659  0.9300
 9262TIP3   OH249276   0.212   6.533  11.628  0.1811  0.5766 -0.0521
 9262TIP3    H149277   0.120   6.507  11.621  0.0923  0.6221  0.8553
 9262TIP3    H249278   0.260   6.462  11.585 -0.1402 -0.4874  1.3282
 9263TIP3   OH249279   0.986   1.113  16.260 -0.0770  0.5442 -0.1576
 9263TIP3    H149280   0.962   1.084  16.172  0.1159  0.8977 -0.3246
 9263TIP3    H249281   1.080   1.131  16.254  0.5664 -2.1557  0.8312
 9264TIP3   OH249282   1.708   6.424   0.571 -0.2047 -0.5049 -0.5540
 9264TIP3    H149283   1.789   6.470   0.595 -0.0646 -1.1222  0.1694
 9264TIP3    H249284   1.733   6.332   0.568 -0.8811 -0.6957 -0.3555
 9265TIP3   OH249285   0.709   4.086  14.705  0.4877  0.0792 -0.2779
 9265TIP3    H149286   0.622   4.122  14.723  1.6000  2.4958  0.5636
 9265TIP3    H249287   0.740   4.055  14.790 -0.2217 -2.4456 -0.8949
 9266TIP3   OH249288   6.393   0.399  13.509 -0.8496 -0.0121  0.0107
 9266TIP3    H149289   6.425   0.310  13.517 -1.9930 -0.1300  4.1244
 9266TIP3    H249290   6.465   0.454  13.541 -2.0398  0.1671  2.4599
 9267TIP3   OH249291   5.034   4.360  16.052  0.3380  0.4434 -0.2271
 9267TIP3    H149292   5.020   4.430  16.116  1.3058 -0.6233  1.1572
 9267TIP3    H249293   5.114   4.385  16.007 -0.7090  1.5540 -1.5535
 9268TIP3   OH249294   6.441   6.247   5.426  0.0166 -0.3826 -0.1995
 9268TIP3    H149295   6.424   6.205   5.341 -0.5817  1.0020 -0.7887
 9268TIP3    H249296   6.529   6.283   5.418  1.3798 -3.3003  1.0721
 9269TIP3   OH249297   6.151   5.269   5.280  0.0115  0.1272 -0.2162
 9269TIP3    H149298   6.201   5.190   5.303 -0.1043 -0.0151 -0.4539
 9269TIP3    H249299   6.217   5.337   5.271  0.2789 -0.3079 -1.6372
 9270TIP3   OH249300   0.390   2.183  12.024  0.7643 -1.1827  0.6907
 9270TIP3    H149301   0.328   2.245  11.986  2.2118  1.7879  2.9517
 9270TIP3    H249302   0.344   2.147  12.100  0.9441 -0.7634  0.9986
 9271TIP3   OH249303   6.000   3.221  14.768 -0.1551 -0.2172 -0.4290
 9271TIP3    H149304   5.939   3.149  14.786 -0.7169  0.5057  0.6031
 9271TIP3    H249305   6.082   3.193  14.809 -0.7543  0.3297  1.1871
 9272TIP3   OH249306   1.771   1.299  11.435 -0.2101  0.0049 -0.1955
 9272TIP3    H149307   1.701   1.245  11.472 -2.2627  2.9559  0.3531
 9272TIP3    H249308   1.811   1.242  11.369 -2.0503 -2.3303  0.6044
 9273TIP3   OH249309   5.778   2.553   3.980 -0.0615  0.0304 -0.0367
 9273TIP3    H149310   5.682   2.553   3.986 -0.0875  2.2851 -0.0437
 9273TIP3    H249311   5.797   2.495   3.907 -1.4118 -0.6494  0.1351
 9274TIP3   OH249312   5.154   3.336   3.758  0.2766  0.3658  0.2319
 9274TIP3    H149313   5.248   3.329   3.778  0.9096  0.8257 -2.4455
 9274TIP3    H249314   5.127   3.246   3.738  0.7035  0.5866 -1.3485
 9275TIP3   OH249315   2.566   1.747  15.991 -0.3069  0.4641  0.1622
 9275TIP3    H149316   2.525   1.744  15.904  0.4654 -0.3960 -0.1810
 9275TIP3    H249317   2.558   1.839  16.017  1.3405  1.1871 -1.7471
 9276TIP3   OH249318   6.759   4.200   3.210  0.0300  0.2390  0.3742
 9276TIP3    H149319   6.770   4.245   3.127 -0.0448 -0.2759  0.0819
 9276TIP3    H249320   6.737   4.110   3.186  0.0558  0.0757  0.9482
 9277TIP3   OH249321   5.000   1.904   4.377 -0.3916 -0.2111 -0.3257
 9277TIP3    H149322   5.044   1.950   4.448 -0.4584  1.5629 -1.4068
 9277TIP3    H249323   4.919   1.953   4.363 -2.1651 -2.6718  0.7820
 9278TIP3   OH249324   0.944   4.707   2.362 -0.1313 -0.2270  0.3203
 9278TIP3    H149325   0.875   4.729   2.299  0.3551  1.5365  0.3687
 9278TIP3    H249326   1.001   4.785   2.363  2.2489 -1.9069 -0.2303
 9279TIP3   OH249327   0.624   0.943  17.186  0.7015 -0.1389 -0.7998
 9279TIP3    H149328   0.560   0.880  17.218  0.4317  0.0890 -0.8785
 9279TIP3    H249329   0.688   0.950  17.256  0.1024  0.3789 -0.2869
 9280TIP3   OH249330   2.608   5.725  14.672 -0.5781  0.7800 -0.0083
 9280TIP3    H149331   2.618   5.630  14.664  0.6195  0.8201  0.9696
 9280TIP3    H249332   2.537   5.746  14.611 -0.5273 -0.6747 -0.5994
 9281TIP3   OH249333   4.599   4.301  13.439  0.6510 -0.1621 -0.0888
 9281TIP3    H149334   4.670   4.323  13.501  1.0480 -0.1550 -0.5438
 9281TIP3    H249335   4.520   4.333  13.482  0.7857 -1.1479  0.9318
 9282TIP3   OH249336   6.217   6.569   5.332  0.4308 -0.5295 -0.2064
 9282TIP3    H149337   6.167   6.626   5.274  0.7227 -2.4097 -2.3559
 9282TIP3    H249338   6.163   6.561   5.411 -0.6674  0.8453 -0.8112
 9283TIP3   OH249339   3.972   0.943   5.056  0.6128  0.3338 -0.2031
 9283TIP3    H149340   4.022   0.992   4.991  0.8603  1.9192  1.1517
 9283TIP3    H249341   4.017   0.859   5.063  0.8921  0.3449 -1.6719
 9284TIP3   OH249342   3.445   5.027  15.613  0.0276  0.5597  0.1940
 9284TIP3    H149343   3.489   4.959  15.664  0.5187  1.1463  0.5630
 9284TIP3    H249344   3.369   5.051  15.665  0.1790  0.7104  0.3453
 9285TIP3   OH249345   5.980   1.180  15.299  0.4824 -0.2017 -0.0835
 9285TIP3    H149346   6.040   1.204  15.229  0.0089 -1.9987 -1.1545
 9285TIP3    H249347   6.031   1.190  15.379  1.2425  1.2267 -0.7366
 9286TIP3   OH249348   5.046   4.906   0.987  0.3456  0.1443 -0.1359
 9286TIP3    H149349   5.012   4.991   0.959 -0.7680 -0.5590 -1.0092
 9286TIP3    H249350   5.119   4.926   1.045  0.7522  1.6837 -1.1674
 9287TIP3   OH249351   1.482   6.587  15.232 -0.4648  0.3528 -0.3399
 9287TIP3    H149352   1.566   6.543  15.218 -0.2629  0.6285 -0.0106
 9287TIP3    H249353   1.455   6.560  15.320 -1.9896 -1.8097 -1.4340
 9288TIP3   OH249354   0.836   0.848  14.799  0.2940  0.6060  0.3291
 9288TIP3    H149355   0.888   0.917  14.759  0.8994 -0.4570 -0.7503
 9288TIP3    H249356   0.766   0.832  14.736  1.2759 -1.1069 -0.3617
 9289TIP3   OH249357   3.570   3.535  13.781  0.4846 -0.3610 -0.4004
 9289TIP3    H149358   3.612   3.622  13.785  0.6089 -0.3673 -1.3642
 9289TIP3    H249359   3.644   3.474  13.776  0.4265 -0.6142  1.4624
 9290TIP3   OH249360   5.683   0.273   0.088  0.3932 -0.2809 -0.4521
 9290TIP3    H149361   5.601   0.318   0.065  0.6226  1.2486  1.5900
 9290TIP3    H249362   5.741   0.290   0.014 -1.3251 -1.9276 -2.2254
 9291TIP3   OH249363   4.892   6.455  14.729 -0.1077 -0.4167 -0.4896
 9291TIP3    H149364   4.816   6.428  14.677 -0.1566 -1.1368 -0.0548
 9291TIP3    H249365   4.854   6.479  14.814  0.2024 -1.2784 -0.0998
 9292TIP3   OH249366   6.557   1.901  11.818  0.2686  0.3328 -0.3656
 9292TIP3    H149367   6.649   1.876  11.816  0.0689 -0.3100 -2.4440
 9292TIP3    H249368   6.558   1.993  11.843  1.3405 -0.1697  1.5781
 9293TIP3   OH249369   0.323   0.911   3.920 -0.2243 -0.1467  0.0824
 9293TIP3    H149370   0.270   0.940   3.846  0.6821  0.4052 -0.3667
 9293TIP3    H249371   0.264   0.858   3.974 -1.2118  0.4514 -0.4098
 9294TIP3   OH249372   6.343   3.491   0.426 -0.1603 -0.2682 -0.2504
 9294TIP3    H149373   6.309   3.573   0.390  0.5591 -0.4517 -1.3821
 9294TIP3    H249374   6.324   3.425   0.359  0.8428 -0.6898 -0.1319
 9295TIP3   OH249375   5.924   1.727  15.259 -0.0133 -0.1378  0.5448
 9295TIP3    H149376   6.005   1.775  15.275  0.6269 -0.7627 -0.7856
 9295TIP3    H249377   5.949   1.656  15.200 -1.9274  0.9095 -1.5857
 9296TIP3   OH249378   5.344   2.920  11.492  0.1403 -0.1817 -0.3768
 9296TIP3    H149379   5.266   2.950  11.445 -1.3751 -1.8359  1.0047
 9296TIP3    H249380   5.326   2.941  11.584  2.3459  1.5131 -0.2882
 9297TIP3   OH249381   1.848   6.560  13.267  0.6378 -0.5558 -0.1772
 9297TIP3    H149382   1.836   6.516  13.183  0.7706  0.2731 -0.6422
 9297TIP3    H249383   1.939   6.541  13.291  0.7700 -0.3285 -0.4970
 9298TIP3   OH249384   2.734   4.607   2.981  0.1965 -0.0476  0.5535
 9298TIP3    H149385   2.693   4.601   3.067  0.2274 -2.3655  0.4397
 9298TIP3    H249386   2.767   4.519   2.964  0.5324  0.4788 -1.6654
 9299TIP3   OH249387   6.053   6.499   5.530  0.0290  0.2742 -0.8626
 9299TIP3    H149388   5.959   6.495   5.543  0.1753  0.5530  0.3758
 9299TIP3    H249389   6.074   6.421   5.479 -0.8704  0.2342 -1.1727
 9300TIP3   OH249390   2.447   3.979  13.185  0.9090  0.2864  0.2333
 9300TIP3    H149391   2.490   3.922  13.249  1.0471 -0.8930 -0.8929
 9300TIP3    H249392   2.354   3.971  13.206  1.0420  1.0030  1.1655
 9301TIP3   OH249393   2.599   1.124   5.974  0.1866 -0.0802  0.1894
 9301TIP3    H149394   2.682   1.166   5.952  0.2512 -0.0773  0.4304
 9301TIP3    H249395   2.604   1.111   6.069  0.9985 -2.4355 -0.1502
 9302TIP3   OH249396   5.058   2.791  13.758 -0.3247 -0.5955  0.1914
 9302TIP3    H149397   4.994   2.849  13.800 -2.5967 -1.8814 -1.3787
 9302TIP3    H249398   5.034   2.792  13.665  0.6815 -2.7106 -0.1058
 9303TIP3   OH249399   4.606   4.457   3.342 -0.6164 -0.4444  0.0145
 9303TIP3    H149400   4.587   4.368   3.314  0.2289 -0.8017  0.5548
 9303TIP3    H249401   4.610   4.452   3.438  1.5220 -0.2588 -0.0508
 9304TIP3   OH249402   2.794   6.260  12.701 -0.2226 -0.3597  0.4405
 9304TIP3    H149403   2.801   6.338  12.646  0.3852 -1.8242 -1.6376
 9304TIP3    H249404   2.882   6.224  12.704 -0.6636 -1.4616  0.6047
 9305TIP3   OH249405   5.381   2.479  14.749  0.0506  0.2695 -0.2166
 9305TIP3    H149406   5.357   2.500  14.839 -0.2030  0.2279 -0.2757
 9305TIP3    H249407   5.449   2.412  14.758 -0.4383 -0.2142 -0.0662
 9306TIP3   OH249408   6.096   0.264  11.358  0.1676 -0.3829 -0.1265
 9306TIP3    H149409   6.115   0.189  11.301  0.7205 -0.3065 -0.0516
 9306TIP3    H249410   6.099   0.229  11.447  0.5603 -0.2486 -0.0842
 9307TIP3   OH249411   0.572   2.905  12.677 -0.7860  0.0692  0.4623
 9307TIP3    H149412   0.492   2.882  12.724 -1.1763 -0.0603 -0.2610
 9307TIP3    H249413   0.625   2.826  12.680 -1.2945 -0.3030 -0.3133
 9308TIP3   OH249414   5.114   4.440  11.898 -0.0286  0.1976  0.1619
 9308TIP3    H149415   5.113   4.363  11.841 -1.6249  0.4891 -0.2293
 9308TIP3    H249416   5.193   4.430  11.950 -0.0192 -1.5281 -0.1382
 9309TIP3   OH249417   5.085   1.078  13.372 -0.0610 -0.2822  0.0672
 9309TIP3    H149418   5.003   1.116  13.340 -0.6740 -1.2982  0.3875
 9309TIP3    H249419   5.057   1.008  13.432  1.0379 -0.7465  0.0524
 9310TIP3   OH249420   4.314   6.228   3.190 -0.2861  0.0784  0.4903
 9310TIP3    H149421   4.315   6.313   3.147 -2.1569 -0.9801 -1.7476
 9310TIP3    H249422   4.224   6.218   3.223 -0.5243 -1.6363 -0.5927
 9311TIP3   OH249423   0.137   4.923  12.334  0.8011  0.0877  0.1118
 9311TIP3    H149424   0.122   4.834  12.366  0.2309 -0.6742 -2.1699
 9311TIP3    H249425   0.067   4.937  12.271  1.9614  1.4787 -0.8774
 9312TIP3   OH249426   5.647   5.827  14.319  0.3421 -0.3716  0.3133
 9312TIP3    H149427   5.635   5.732  14.320 -1.5712 -0.1690 -0.3069
 9312TIP3    H249428   5.693   5.844  14.237 -1.0651 -0.6126 -0.5531
 9313TIP3   OH249429   5.566   0.286   1.281  0.3671  0.2598  0.0600
 9313TIP3    H149430   5.566   0.252   1.191  0.6158  0.2704  0.0555
 9313TIP3    H249431   5.474   0.280   1.309  0.5835 -1.4089  0.4509
 9314TIP3   OH249432   5.085   1.533   3.857  0.2040 -0.4027 -0.1960
 9314TIP3    H149433   5.069   1.574   3.772 -0.3543  0.3608  0.2707
 9314TIP3    H249434   5.004   1.545   3.906  1.2753  1.2513  1.2798
 9315TIP3   OH249435   3.495   1.207  11.903  0.2840 -0.5090  0.5822
 9315TIP3    H149436   3.475   1.297  11.876  1.6172 -0.2186  0.5022
 9315TIP3    H249437   3.412   1.172  11.936 -0.0041  1.1233  1.6597
 9316TIP3   OH249438   1.977   1.541   5.433 -0.3768  0.1815 -0.1598
 9316TIP3    H149439   1.977   1.609   5.366  0.1304  0.3174 -0.0259
 9316TIP3    H249440   2.069   1.529   5.454 -0.4625 -0.6086 -0.2412
 9317TIP3   OH249441   0.326   4.686   0.049 -0.0110  0.5763  0.3877
 9317TIP3    H149442   0.333   4.590   0.050  0.8377  0.6268  0.0047
 9317TIP3    H249443   0.389   4.715   0.115 -0.3022  0.8682  0.5354
 9318TIP3   OH249444   1.469   3.697   5.136 -0.3012  0.2816 -0.2771
 9318TIP3    H149445   1.455   3.645   5.057 -0.2413  1.8534 -1.3378
 9318TIP3    H249446   1.510   3.636   5.198 -1.1391 -1.1900 -1.1451
 9319TIP3   OH249447   1.231   2.969   1.019 -0.1421 -0.8843 -0.1297
 9319TIP3    H149448   1.250   3.063   1.007 -0.3680 -0.6235  1.4352
 9319TIP3    H249449   1.293   2.925   0.961  0.6581  0.2052 -0.1296
 9320TIP3   OH249450   1.435   5.953  11.881  0.0518 -0.4269  0.3798
 9320TIP3    H149451   1.528   5.969  11.900  0.3405  0.4919 -1.6409
 9320TIP3    H249452   1.402   5.907  11.959  2.6327 -2.4707  0.3392
 9321TIP3   OH249453   4.666   2.353   3.095 -0.5962 -0.0698  0.6156
 9321TIP3    H149454   4.636   2.393   3.014  1.2731 -0.6862 -0.3963
 9321TIP3    H249455   4.756   2.327   3.078 -0.1848 -0.2626  2.8709
 9322TIP3   OH249456   1.732   4.105   2.450 -0.4046  0.3182 -0.4185
 9322TIP3    H149457   1.733   4.010   2.437 -0.4581  0.1331  0.8560
 9322TIP3    H249458   1.732   4.116   2.545  1.7443  1.6154 -0.5362
 9323TIP3   OH249459   3.202   2.149  12.621 -0.0243 -0.2030  0.2459
 9323TIP3    H149460   3.244   2.180  12.702 -0.3000  1.6444 -0.2971
 9323TIP3    H249461   3.193   2.054  12.634  1.9734 -0.2786  1.4498
 9324TIP3   OH249462   6.445   2.095   2.788 -0.4277 -0.4670 -0.2347
 9324TIP3    H149463   6.532   2.113   2.826 -0.8615 -0.8788  0.9730
 9324TIP3    H249464   6.413   2.181   2.761  0.2779 -0.2855 -0.4957
 9325TIP3   OH249465   2.439   5.955  13.839 -0.0772 -0.2655  0.2963
 9325TIP3    H149466   2.429   5.891  13.910  2.9207 -1.3622 -0.2163
 9325TIP3    H249467   2.444   5.902  13.760  4.2572  0.3848  0.0237
 9326TIP3   OH249468   1.112   2.734  14.944  0.4378 -0.5850 -0.4628
 9326TIP3    H149469   1.199   2.711  14.975  0.4180 -0.1078 -0.0617
 9326TIP3    H249470   1.088   2.812  14.992 -0.6591 -1.3346  0.2394
 9327TIP3   OH249471   5.938   4.904  15.819  0.2134  0.1073  0.5213
 9327TIP3    H149472   5.853   4.946  15.831 -0.5030 -1.1078 -0.2458
 9327TIP3    H249473   6.001   4.970  15.846 -0.9844  0.9022  1.4323
 9328TIP3   OH249474   6.351   2.720   3.137  0.0109  0.4768  0.1625
 9328TIP3    H149475   6.385   2.693   3.051  2.8631 -0.5374  1.5444
 9328TIP3    H249476   6.301   2.645   3.167 -1.2595  0.9521 -0.7345
 9329TIP3   OH249477   3.159   4.778  12.089 -0.4550 -0.0225 -0.0326
 9329TIP3    H149478   3.206   4.821  12.160 -0.4504 -0.9680  0.5326
 9329TIP3    H249479   3.068   4.806  12.100 -0.2542  0.7844 -0.3729
 9330TIP3   OH249480   2.721   2.588   3.721  0.4912  0.8129 -0.1928
 9330TIP3    H149481   2.800   2.628   3.685  0.5401 -0.2303 -1.2760
 9330TIP3    H249482   2.676   2.660   3.764  1.0598  1.8408 -1.2728
 9331TIP3   OH249483   6.127   0.169   1.825 -0.4560  0.1601 -0.6234
 9331TIP3    H149484   6.082   0.250   1.802 -0.9783  0.5243  1.5936
 9331TIP3    H249485   6.080   0.137   1.902  1.6459 -0.6458  0.3401
 9332TIP3   OH249486   5.367   2.207  14.354 -0.0056 -0.0708  0.2183
 9332TIP3    H149487   5.277   2.190  14.383 -0.2026 -1.9050 -1.3808
 9332TIP3    H249488   5.363   2.200  14.259  1.2910  2.6286 -0.0768
 9333TIP3   OH249489   6.778   0.436   1.635  0.2547  0.6103  0.3721
 9333TIP3    H149490   6.732   0.506   1.588  0.2918 -0.4836 -1.3636
 9333TIP3    H249491   6.717   0.407   1.702 -1.7779 -0.9957 -2.0725
 9334TIP3   OH249492   2.593   1.069   1.512 -0.0317 -0.0095  0.1627
 9334TIP3    H149493   2.547   1.041   1.591 -0.5524  2.6370  0.8614
 9334TIP3    H249494   2.523   1.091   1.450  0.3692 -2.6542 -1.3189
 9335TIP3   OH249495   1.828   5.241  14.702  0.3590 -0.0415  0.3901
 9335TIP3    H149496   1.875   5.277  14.627  2.1083 -0.6680  1.1574
 9335TIP3    H249497   1.867   5.155  14.716 -1.7119 -1.0273  0.4410
 9336TIP3   OH249498   6.184   6.203  16.811 -0.3899  0.3971  0.1084
 9336TIP3    H149499   6.255   6.205  16.875  0.8023  3.0208 -1.2390
 9336TIP3    H249500   6.228   6.193  16.727 -1.6935  1.0190 -0.6577
 9337TIP3   OH249501   5.112   6.287   4.058  0.0534 -0.1658  0.1409
 9337TIP3    H149502   5.162   6.359   4.096 -0.5936  0.1178  0.4601
 9337TIP3    H249503   5.047   6.265   4.125 -0.9831  0.2117 -0.7204
 9338TIP3   OH249504   0.476   4.214  15.562 -0.2306  0.1315 -0.3178
 9338TIP3    H149505   0.439   4.281  15.505  1.1494  0.8490 -0.3907
 9338TIP3    H249506   0.517   4.152  15.503  0.9261  0.7097 -0.1356
 9339TIP3   OH249507   2.883   4.634  13.902  0.4311 -0.2642  0.0022
 9339TIP3    H149508   2.958   4.631  13.960  0.6873  0.7824 -0.2542
 9339TIP3    H249509   2.852   4.544  13.897  0.7245 -0.4434  1.3333
 9340TIP3   OH249510   4.287   5.232  15.417 -0.3918  0.7508  0.4719
 9340TIP3    H149511   4.208   5.283  15.438 -1.6164 -1.9845  2.8202
 9340TIP3    H249512   4.305   5.182  15.497  0.0871 -3.3131 -2.0716
 9341TIP3   OH249513   6.582   2.839   5.849  0.1547  0.1838  0.0674
 9341TIP3    H149514   6.677   2.846   5.860  0.2713 -0.9569 -0.1045
 9341TIP3    H249515   6.555   2.925   5.818  1.4930 -0.2387 -2.4267
 9342TIP3   OH249516   5.962   3.994   4.819  0.3612 -0.0272  0.0112
 9342TIP3    H149517   6.044   3.945   4.815  0.3147 -0.0911 -0.1848
 9342TIP3    H249518   5.930   3.982   4.908  0.3631 -0.3293 -0.0290
 9343TIP3   OH249519   3.900   5.040  12.706 -0.4697  0.2015  0.5579
 9343TIP3    H149520   3.985   5.006  12.734 -0.0415  0.8237  0.0332
 9343TIP3    H249521   3.848   4.962  12.686  0.0693 -0.1736  0.6132
 9344TIP3   OH249522   1.693   6.062   5.857  0.1449  0.2289  0.0454
 9344TIP3    H149523   1.722   6.036   5.944  0.5651  0.0715 -0.1431
 9344TIP3    H249524   1.750   6.014   5.797  0.2238  0.7620 -0.3103
 9345TIP3   OH249525   1.317   1.557   1.410  0.1013 -0.1130  0.2291
 9345TIP3    H149526   1.408   1.568   1.383 -0.3638  1.2863 -0.8521
 9345TIP3    H249527   1.294   1.640   1.452 -0.4704 -0.7175  1.1321
 9346TIP3   OH249528   4.415   1.374  13.500  0.1097 -0.1367 -0.0034
 9346TIP3    H149529   4.373   1.294  13.533 -0.3226 -0.1367 -0.5445
 9346TIP3    H249530   4.410   1.435  13.573  0.2802 -0.5443  0.3522
 9347TIP3   OH249531   6.742   2.144  14.194 -0.3863  0.1633 -0.5322
 9347TIP3    H149532   6.834   2.120  14.188 -0.0526  1.8320 -2.6991
 9347TIP3    H249533   6.704   2.081  14.256  2.1995 -0.5017  0.4112
 9348TIP3   OH249534   0.153   4.867  17.218  0.2345 -0.3869 -0.0637
 9348TIP3    H149535   0.226   4.812  17.246  1.2692  2.1274  2.5328
 9348TIP3    H249536   0.086   4.854  17.286 -0.6560 -0.6176 -0.9772
 9349TIP3   OH249537   4.080   1.369  11.807  0.1311 -0.2754 -0.6888
 9349TIP3    H149538   4.165   1.401  11.840  0.3508 -0.7814 -0.7673
 9349TIP3    H249539   4.070   1.283  11.846  0.9696 -1.4054 -2.8861
 9350TIP3   OH249540   1.504   2.140  16.382  0.1609  0.1611  0.4093
 9350TIP3    H149541   1.554   2.220  16.398 -0.3427  0.8043 -1.1120
 9350TIP3    H249542   1.472   2.149  16.292 -0.9242 -1.1962  0.6356
 9351TIP3   OH249543   3.218   6.543  14.953  0.2226 -0.3937 -0.9095
 9351TIP3    H149544   3.244   6.456  14.924  1.6140 -0.5784  0.8154
 9351TIP3    H249545   3.299   6.593  14.955 -0.0400  0.0086  1.2363
 9352TIP3   OH249546   2.123   2.175   0.078 -0.4623 -0.3409 -0.5458
 9352TIP3    H149547   2.140   2.262   0.041 -1.5538  0.9308  1.8160
 9352TIP3    H249548   2.209   2.144   0.106 -0.1226  0.1615 -1.0206
 9353TIP3   OH249549   3.711   4.008  15.101  0.6151 -0.1104  0.5541
 9353TIP3    H149550   3.771   3.932  15.097  0.9870  0.0264  2.9314
 9353TIP3    H249551   3.747   4.063  15.170 -0.9207  1.1722  0.3499
 9354TIP3   OH249552   3.584   5.621  12.237  0.0512 -0.4791  0.3661
 9354TIP3    H149553   3.525   5.697  12.234  1.9624  1.0405 -1.6403
 9354TIP3    H249554   3.594   5.601  12.330 -1.1146  1.2466  0.8886
 9355TIP3   OH249555   6.156   1.198   0.259  0.0595  0.3661 -0.6827
 9355TIP3    H149556   6.138   1.150   0.340 -2.4851  1.7588 -0.3807
 9355TIP3    H249557   6.236   1.247   0.278 -0.6772  0.9274  1.1319
 9356TIP3   OH249558   5.562   3.597   1.084 -0.0210  0.0606 -0.0863
 9356TIP3    H149559   5.520   3.511   1.080  0.4994 -0.1540 -1.5325
 9356TIP3    H249560   5.528   3.643   1.007  1.4833  0.2861 -0.6309
 9357TIP3   OH249561   1.843   1.329  16.185 -0.0814  0.9185 -0.2282
 9357TIP3    H149562   1.929   1.286  16.190  0.0750  1.3529  1.0565
 9357TIP3    H249563   1.827   1.339  16.091  1.5205  1.2954 -0.4906
 9358TIP3   OH249564   0.846   0.358  16.661 -0.4982 -0.2000 -0.3298
 9358TIP3    H149565   0.842   0.426  16.729 -0.6782 -0.0475 -0.4921
 9358TIP3    H249566   0.844   0.275  16.710  0.5277 -0.0835 -0.0907
 9359TIP3   OH249567   2.581   5.459  14.607 -0.3337 -0.6390  0.0558
 9359TIP3    H149568   2.583   5.386  14.669 -0.6305 -0.7508 -0.0707
 9359TIP3    H249569   2.642   5.433  14.538 -0.2942 -0.6809  0.1054
 9360TIP3   OH249570   3.073   0.864   3.041 -0.1406 -0.2048 -0.1221
 9360TIP3    H149571   3.080   0.935   2.977 -0.2670  0.4885  0.6255
 9360TIP3    H249572   3.119   0.791   3.000  4.2498  1.7010  1.1321
 9361TIP3   OH249573   2.812   4.991  13.573  0.0374 -0.0727 -0.7704
 9361TIP3    H149574   2.736   5.049  13.568 -0.2194 -0.4773 -1.6252
 9361TIP3    H249575   2.783   4.917  13.626  1.0104  1.5496  2.1039
 9362TIP3   OH249576   1.899   6.174  14.874  0.0954 -0.3742 -0.3097
 9362TIP3    H149577   1.861   6.254  14.910 -0.7321 -0.0001 -1.9463
 9362TIP3    H249578   1.993   6.186  14.882 -0.0464  0.2596  0.4914
 9363TIP3   OH249579   5.485   6.784  12.323 -0.0081  0.2789  0.7164
 9363TIP3    H149580   5.518   6.869  12.353 -0.1642  1.5511 -2.6085
 9363TIP3    H249581   5.553   6.750  12.266 -0.2207 -1.5896  1.5375
 9364TIP3   OH249582   1.644   4.338   0.031 -0.4081 -0.0892 -0.5849
 9364TIP3    H149583   1.681   4.405  -0.025  0.5163  1.1266  1.4082
 9364TIP3    H249584   1.564   4.310  -0.013  0.3201  0.7944 -2.4908
 9365TIP3   OH249585   2.880   2.500   4.025  0.2028 -0.4800  0.0450
 9365TIP3    H149586   2.828   2.421   4.038 -0.1396 -0.3271 -0.3654
 9365TIP3    H249587   2.930   2.482   3.945  0.1639 -0.3003 -0.0185
 9366TIP3   OH249588   4.607   2.477  13.716 -0.0505 -0.0958  0.0933
 9366TIP3    H149589   4.675   2.533  13.754  1.1348 -2.1836  1.1523
 9366TIP3    H249590   4.545   2.463  13.788 -0.2550 -0.2695 -0.1180
 9367TIP3   OH249591   6.604   5.777   4.913  0.3295 -0.0129 -0.0096
 9367TIP3    H149592   6.659   5.765   4.835  0.3663 -0.8137  0.1346
 9367TIP3    H249593   6.665   5.802   4.982  0.1701  1.6776 -0.4668
 9368TIP3   OH249594   4.694   1.028   0.583  0.0530  0.6137  0.0320
 9368TIP3    H149595   4.645   0.946   0.576  0.0567  0.5434  0.7321
 9368TIP3    H249596   4.751   1.029   0.507 -2.3929  1.6056 -1.8533
 9369TIP3   OH249597   5.400   5.551   5.279 -0.1486  0.2813 -0.8870
 9369TIP3    H149598   5.361   5.638   5.276 -0.9763 -0.1361 -2.7627
 9369TIP3    H249599   5.381   5.513   5.194  0.8324 -1.4772 -0.3501
 9370TIP3   OH249600   2.604   3.677  12.082 -0.0524 -0.0803 -0.4207
 9370TIP3    H149601   2.589   3.637  12.167  2.9119 -2.2965 -0.8706
 9370TIP3    H249602   2.601   3.604  12.020  1.1262  1.0052 -1.7987
 9371TIP3   OH249603   3.079   4.730  13.091  0.2756 -0.5372 -0.0411
 9371TIP3    H149604   3.150   4.708  13.030  0.4023 -0.8152  0.2043
 9371TIP3    H249605   3.119   4.788  13.155  0.9939 -2.8293  1.6691
 9372TIP3   OH249606   1.306   1.682  14.891  0.3000 -0.0438 -0.0903
 9372TIP3    H149607   1.275   1.704  14.803  0.2340  0.8992  0.1569
 9372TIP3    H249608   1.342   1.594  14.883  1.4441  0.5296 -1.3516
 9373TIP3   OH249609   4.492   3.303   0.151 -0.4493 -0.1535 -0.3508
 9373TIP3    H149610   4.531   3.335   0.069  2.3802 -0.7944  0.6621
 9373TIP3    H249611   4.432   3.234   0.124  0.1614 -0.0877 -1.9183
 9374TIP3   OH249612   6.750   5.092  14.441 -0.2002 -0.5825  0.1500
 9374TIP3    H149613   6.725   5.048  14.522 -1.7896 -0.1026 -0.0552
 9374TIP3    H249614   6.843   5.111  14.452  0.0549 -2.2176  1.0546
 9375TIP3   OH249615   5.594   0.026   2.422 -0.3787 -0.4001  0.5573
 9375TIP3    H149616   5.549  -0.011   2.346 -0.2835  2.0315 -0.7522
 9375TIP3    H249617   5.530   0.086   2.461 -0.0909 -0.9014  1.8237
 9376TIP3   OH249618   0.186   3.947  11.987  0.0890  0.0108 -0.6737
 9376TIP3    H149619   0.165   3.856  11.966 -0.1332  0.0224 -0.5153
 9376TIP3    H249620   0.229   3.943  12.072  0.9011 -0.0278 -1.0802
 9377TIP3   OH249621   3.552   6.422  12.242 -0.1407 -0.7387 -0.2989
 9377TIP3    H149622   3.548   6.333  12.278 -0.4826  0.3396  2.5170
 9377TIP3    H249623   3.643   6.433  12.216  0.0348 -1.7361 -0.1510
 9378TIP3   OH249624   2.874   6.742  15.662  0.0335  0.5044  0.2889
 9378TIP3    H149625   2.904   6.829  15.637  2.1848 -0.2532  0.0772
 9378TIP3    H249626   2.922   6.722  15.743 -2.3370  0.5059  1.7633
 9379TIP3   OH249627   2.174   0.894   0.431  0.3963 -0.0897 -0.8986
 9379TIP3    H149628   2.173   0.971   0.488 -2.0525  0.7889 -2.0872
 9379TIP3    H249629   2.258   0.900   0.385  1.5851  0.1829  1.2569
 9380TIP3   OH249630   5.558   3.365   0.199  0.2128 -0.1786  0.5617
 9380TIP3    H149631   5.614   3.302   0.245 -0.0698 -0.3850  0.6230
 9380TIP3    H249632   5.470   3.329   0.207  0.3220 -0.9104 -1.2892
 9381TIP3   OH249633   1.619   3.227   2.017  0.0729  0.7616 -0.5559
 9381TIP3    H149634   1.665   3.157   1.970 -1.0316 -0.2998 -0.0675
 9381TIP3    H249635   1.602   3.293   1.951 -0.5861 -0.2890 -1.4565
 9382TIP3   OH249636   3.764   2.459  14.002 -0.4405 -0.2537 -0.0024
 9382TIP3    H149637   3.737   2.550  13.992  0.8617  0.2712  1.0855
 9382TIP3    H249638   3.779   2.428  13.913 -0.0915  0.8393 -0.3222
 9383TIP3   OH249639   1.843   0.410  13.582  0.2204  0.1215 -0.0412
 9383TIP3    H149640   1.819   0.501  13.595  0.9302  0.2770  0.1942
 9383TIP3    H249641   1.889   0.385  13.662  2.2252  0.2920 -1.0895
 9384TIP3   OH249642   0.784   5.440   5.410  0.4637  0.3108 -0.6698
 9384TIP3    H149643   0.698   5.464   5.443  0.5987  1.9247 -1.4818
 9384TIP3    H249644   0.829   5.523   5.396  1.8568 -0.4889 -1.0549
 9385TIP3   OH249645   2.695   1.859   6.901 -0.0727  0.5035 -0.0758
 9385TIP3    H149646   2.625   1.879   6.962  0.1335 -0.9058  0.6368
 9385TIP3    H249647   2.761   1.813   6.953  1.4271  1.8800 -0.7153
 9386TIP3   OH249648   5.002   1.151   3.923 -0.6375 -0.4580 -0.0013
 9386TIP3    H149649   5.079   1.096   3.939  0.5599  1.3848  0.6752
 9386TIP3    H249650   5.031   1.214   3.857 -0.5451  2.2651  2.5502
 9387TIP3   OH249651   5.258   1.199  15.968 -0.1150 -0.2142  0.5964
 9387TIP3    H149652   5.197   1.231  15.901 -0.3610 -2.5876 -0.3361
 9387TIP3    H249653   5.223   1.233  16.050 -0.3935  1.8626 -0.3492
 9388TIP3   OH249654   5.079   0.214   1.565 -0.0658 -0.2829 -0.0370
 9388TIP3    H149655   5.028   0.233   1.644  1.7104 -2.4238  1.7164
 9388TIP3    H249656   5.114   0.299   1.538 -1.8453  0.6897  0.6627
 9389TIP3   OH249657   6.113   2.600  14.336 -0.1247 -0.2550  0.5176
 9389TIP3    H149658   6.022   2.600  14.364 -0.2900  1.1135  0.0047
 9389TIP3    H249659   6.111   2.634  14.246  0.7218 -1.7124 -0.0886
 9390TIP3   OH249660   3.730   0.505  13.526 -0.2475  1.0101 -0.4199
 9390TIP3    H149661   3.718   0.591  13.488 -1.0972  1.4035  0.7024
 9390TIP3    H249662   3.666   0.500  13.597  0.3585 -0.2154  0.0807
 9391TIP3   OH249663   2.578   5.046   3.159 -0.8560 -0.1978  0.0260
 9391TIP3    H149664   2.499   5.051   3.213 -1.5261 -1.5721 -0.7868
 9391TIP3    H249665   2.622   5.129   3.174 -2.4500  0.5935  0.5244
 9392TIP3   OH249666   4.045   5.445  15.250  0.1109 -0.3714  0.0073
 9392TIP3    H149667   4.135   5.461  15.224 -0.6453  0.1754 -2.4059
 9392TIP3    H249668   3.992   5.498  15.189 -1.8141 -0.2827  1.6896
 9393TIP3   OH249669   1.383   2.763   5.754 -0.1624 -0.2090 -0.3376
 9393TIP3    H149670   1.458   2.707   5.734 -0.3469 -0.6399  0.1761
 9393TIP3    H249671   1.362   2.743   5.845 -0.7559  0.0839 -0.4098
 9394TIP3   OH249672   1.306   0.776  11.434 -0.2592 -0.1035 -0.2389
 9394TIP3    H149673   1.331   0.850  11.378 -1.7523  1.9705  1.7203
 9394TIP3    H249674   1.387   0.751  11.478  0.3355  0.1067 -1.1894
 9395TIP3   OH249675   4.999   3.401  15.855 -0.5480 -0.5811 -0.1911
 9395TIP3    H149676   5.014   3.421  15.948 -1.5808  0.3490 -0.2143
 9395TIP3    H249677   5.078   3.354  15.828  0.1044 -0.1796  0.9681
 9396TIP3   OH249678   3.411   4.714   3.630  0.1716 -0.1354  0.8692
 9396TIP3    H149679   3.343   4.733   3.565  0.3359 -0.7705  0.5186
 9396TIP3    H249680   3.457   4.798   3.641  0.9745 -0.3486 -0.7892
 9397TIP3   OH249681   4.811   1.101   5.336 -0.0736 -0.2581 -0.7570
 9397TIP3    H149682   4.838   1.176   5.390  0.6659 -0.5334 -0.7451
 9397TIP3    H249683   4.785   1.034   5.400 -0.4266 -0.1309 -0.7641
 9398TIP3   OH249684   0.308   3.546   0.154 -0.0892 -0.0875  0.1573
 9398TIP3    H149685   0.285   3.589   0.237 -0.5556 -0.8031  0.4049
 9398TIP3    H249686   0.258   3.464   0.155  1.7880 -1.2584  0.2926
 9399TIP3   OH249687   6.358   0.545   2.862  0.4794 -0.2828 -0.5028
 9399TIP3    H149688   6.295   0.550   2.790  0.9548 -0.4531 -0.9297
 9399TIP3    H249689   6.438   0.583   2.827  0.5024  0.3032  0.1690
 9400TIP3   OH249690   1.903   5.458  13.162  0.3075  1.0430  0.0770
 9400TIP3    H149691   1.889   5.484  13.071 -2.0018 -0.0706  0.0847
 9400TIP3    H249692   1.994   5.428  13.164  0.2818  0.7713 -1.9336
 9401TIP3   OH249693   0.374   5.690  15.372 -0.2977  0.3580  0.4080
 9401TIP3    H149694   0.368   5.782  15.346  3.0957  0.7954  0.9344
 9401TIP3    H249695   0.351   5.690  15.465 -0.6112  0.6509  0.3309
 9402TIP3   OH249696   3.032   0.307  14.462 -0.4241 -0.0691  0.1606
 9402TIP3    H149697   3.074   0.234  14.416  0.2691 -0.0102  0.6848
 9402TIP3    H249698   2.951   0.270  14.497  0.0414 -0.6565  0.6306
 9403TIP3   OH249699   1.245   3.185   5.024 -0.2271  0.6283  0.2071
 9403TIP3    H149700   1.240   3.278   5.005  0.5502  0.4047 -1.2136
 9403TIP3    H249701   1.319   3.175   5.083  1.7331  0.5745 -2.1824
 9404TIP3   OH249702   3.577   6.724   0.339 -0.4005  0.1597 -0.0367
 9404TIP3    H149703   3.653   6.673   0.313  0.5513 -0.4886  3.6523
 9404TIP3    H249704   3.583   6.805   0.289  3.1289  0.4225  0.6904
 9405TIP3   OH249705   5.076   1.357   1.154 -0.3792  0.1082  0.2112
 9405TIP3    H149706   5.145   1.382   1.092 -0.7737  1.5127  0.3192
 9405TIP3    H249707   5.048   1.270   1.125  1.2718 -0.3816  0.0358
 9406TIP3   OH249708   3.106   1.026   0.386 -0.3583 -0.7932  0.1800
 9406TIP3    H149709   3.077   1.084   0.316  0.6358 -1.5228 -0.8423
 9406TIP3    H249710   3.200   1.041   0.393 -0.3176 -1.3017  0.8155
 9407TIP3   OH249711   6.050   5.301   2.943  0.1334  0.1353 -0.3669
 9407TIP3    H149712   6.131   5.315   2.991 -0.3679 -1.0516  0.8747
 9407TIP3    H249713   5.983   5.294   3.010 -0.8770  0.2870 -1.3380
 9408TIP3   OH249714   0.593   1.187  17.047  0.1709 -0.4461  0.1716
 9408TIP3    H149715   0.598   1.109  17.102  0.0187  0.5421  1.6173
 9408TIP3    H249716   0.560   1.155  16.963 -1.8575 -1.6471  1.3847
 9409TIP3   OH249717   1.822   0.944  13.595  0.6277 -0.0488  0.1865
 9409TIP3    H149718   1.907   0.979  13.569 -0.0187  1.7310  0.3418
 9409TIP3    H249719   1.780   1.016  13.643 -1.8884 -0.0474 -1.8853
 9410TIP3   OH249720   4.480   2.563   1.701  0.3153 -0.0716 -0.0079
 9410TIP3    H149721   4.476   2.472   1.675 -0.6306 -0.2383  0.6881
 9410TIP3    H249722   4.391   2.584   1.729  0.4198  1.1893 -0.5892
 9411TIP3   OH249723   6.164   6.492   3.218 -0.0300  0.5070  0.3258
 9411TIP3    H149724   6.075   6.520   3.240 -0.4925 -0.7690  0.1568
 9411TIP3    H249725   6.218   6.571   3.227 -1.4734  1.7173 -1.3011
 9412TIP3   OH249726   5.396   6.044   4.456  0.1819  0.3532  0.1152
 9412TIP3    H149727   5.382   6.105   4.529  1.1559  1.0116 -0.2393
 9412TIP3    H249728   5.311   6.040   4.412  0.5121  2.8395 -0.8846
 9413TIP3   OH249729   1.554   2.883   4.551  0.5856 -0.0469 -0.0483
 9413TIP3    H149730   1.492   2.814   4.576  0.0513  0.2128 -0.6569
 9413TIP3    H249731   1.615   2.839   4.491  0.1658  0.0442 -0.5398
 9414TIP3   OH249732   1.441   3.725  11.607 -0.5594 -0.4398 -0.1625
 9414TIP3    H149733   1.517   3.732  11.549 -1.5788 -0.7533 -1.5658
 9414TIP3    H249734   1.376   3.784  11.569 -1.4645 -1.1345  0.2829
 9415TIP3   OH249735   2.016   1.318   5.275  0.2945 -0.0185  0.4413
 9415TIP3    H149736   1.922   1.333   5.282  0.3412 -0.1831  1.5864
 9415TIP3    H249737   2.052   1.402   5.247 -0.1391  0.1819  0.4871
 9416TIP3   OH249738   1.265   6.577   4.424  0.3961 -0.2030 -0.4205
 9416TIP3    H149739   1.351   6.548   4.455  0.2181 -1.5385 -1.1766
 9416TIP3    H249740   1.217   6.599   4.504  1.4099  0.4871  0.0101
 9417TIP3   OH249741   1.329   3.332   2.985 -0.1651 -0.3501  0.0946
 9417TIP3    H149742   1.327   3.259   3.048 -1.2688 -1.1839 -0.8882
 9417TIP3    H249743   1.251   3.319   2.931 -0.5494  1.7684  0.1245
 9418TIP3   OH249744   0.724   3.655  14.245 -0.3645  0.1032  0.3723
 9418TIP3    H149745   0.723   3.750  14.251 -0.5052  0.1615 -0.4546
 9418TIP3    H249746   0.694   3.637  14.155  0.7530 -0.6810  0.1474
 9419TIP3   OH249747   5.044   5.871  10.594 -0.3386 -0.2382 -0.0577
 9419TIP3    H149748   5.066   5.931  10.523  0.0475 -0.5104 -0.1725
 9419TIP3    H249749   5.012   5.927  10.665  1.1427  0.2088  0.2758
 9420TIP3   OH249750   1.784   4.141   1.858 -0.3516 -0.7059 -0.1063
 9420TIP3    H149751   1.708   4.137   1.915 -0.3519 -0.5878 -0.0980
 9420TIP3    H249752   1.834   4.062   1.878  0.2535 -0.0770  0.9081
 9421TIP3   OH249753   6.041   1.132   5.158  0.9356  0.0542  0.6475
 9421TIP3    H149754   6.047   1.226   5.138 -2.2914  0.4678  1.4826
 9421TIP3    H249755   5.999   1.128   5.243  0.5702 -2.1851  0.3851
 9422TIP3   OH249756   2.233   0.387  15.391 -0.5708 -0.1195 -0.0871
 9422TIP3    H149757   2.284   0.452  15.439 -1.8875  0.7983  0.1042
 9422TIP3    H249758   2.256   0.303  15.431  1.3027  0.1846 -0.4729
 9423TIP3   OH249759   1.147   6.384  16.362 -0.0131  0.0598 -0.5781
 9423TIP3    H149760   1.139   6.469  16.405  0.6989 -0.7683  1.2716
 9423TIP3    H249761   1.182   6.404  16.275 -1.0311  1.7413 -0.6190
 9424TIP3   OH249762   2.631   5.732   1.455 -0.5707  0.0497  0.6120
 9424TIP3    H149763   2.664   5.722   1.366  1.1163  3.9533  0.6995
 9424TIP3    H249764   2.552   5.784   1.447 -0.1468  0.8417  1.3944
 9425TIP3   OH249765   1.815   4.994   4.623  0.3709 -0.0359 -0.4651
 9425TIP3    H149766   1.889   5.052   4.603  1.0692 -0.4809  0.7561
 9425TIP3    H249767   1.828   4.917   4.567 -1.0206  1.3168 -2.7144
 9426TIP3   OH249768   1.310   5.118  13.700 -0.5904  0.1872  0.2241
 9426TIP3    H149769   1.333   5.192  13.757  1.5279 -0.1265 -0.1908
 9426TIP3    H249770   1.334   5.040  13.750 -1.9228 -0.2218  0.2621
 9427TIP3   OH249771   6.794   5.468  16.106 -0.4728  0.3334 -0.4122
 9427TIP3    H149772   6.877   5.459  16.153 -0.9107 -1.8645  0.0065
 9427TIP3    H249773   6.818   5.458  16.014  0.1397  2.8876 -0.5651
 9428TIP3   OH249774   3.592   4.196   3.807 -0.0798  0.1633 -0.5548
 9428TIP3    H149775   3.637   4.235   3.732  1.3031 -1.2075 -0.4518
 9428TIP3    H249776   3.510   4.163   3.771  0.3958 -0.1263 -1.3929
 9429TIP3   OH249777   0.889   6.382  14.485  0.0053  0.4588 -0.0116
 9429TIP3    H149778   0.890   6.463  14.435  1.4774  0.9698  0.8090
 9429TIP3    H249779   0.977   6.346  14.474  0.3591  0.5721  2.1590
 9430TIP3   OH249780   1.702   1.361   4.427 -0.1844 -0.1295  0.0895
 9430TIP3    H149781   1.766   1.317   4.371 -0.3247 -1.0263  0.6345
 9430TIP3    H249782   1.647   1.411   4.367  1.1668  0.8399 -0.3796
 9431TIP3   OH249783   1.845   3.968  16.461 -0.1288 -0.6430 -0.2361
 9431TIP3    H149784   1.829   3.978  16.554 -0.6281 -1.6531 -0.2032
 9431TIP3    H249785   1.934   4.002  16.448 -0.0939 -0.4217  0.5870
 9432TIP3   OH249786   0.301   1.809   4.523  0.4252 -0.4736  0.1259
 9432TIP3    H149787   0.253   1.813   4.440  4.4256 -1.0246 -2.3349
 9432TIP3    H249788   0.244   1.759   4.581 -2.5720  0.0760 -2.1879
 9433TIP3   OH249789   3.966   5.235  17.057 -0.0161 -0.5344  0.5268
 9433TIP3    H149790   3.969   5.176  16.981 -0.6783  0.4082 -0.2460
 9433TIP3    H249791   4.046   5.215  17.106  0.1632 -1.5155 -0.1508
 9434TIP3   OH249792   0.495   1.089   4.366 -0.3216  0.0542 -0.5359
 9434TIP3    H149793   0.521   1.083   4.274 -1.7397  0.0574 -0.9533
 9434TIP3    H249794   0.413   1.039   4.372  0.3509 -0.9177  0.9762
 9435TIP3   OH249795   1.387   0.449  10.723  0.9874 -0.6757 -0.1708
 9435TIP3    H149796   1.383   0.364  10.765  1.4139 -0.6173 -0.0081
 9435TIP3    H249797   1.480   0.469  10.717  0.8320  0.9428  2.1773
 9436TIP3   OH249798   6.486   3.649  12.361 -0.0256  0.1318 -0.4410
 9436TIP3    H149799   6.557   3.619  12.418 -0.6385  1.1817  0.8970
 9436TIP3    H249800   6.457   3.731  12.400 -2.9982 -1.0290 -0.0694
 9437TIP3   OH249801   2.343   4.797  12.367 -0.7224 -0.3190  0.0192
 9437TIP3    H149802   2.314   4.888  12.369 -0.2095 -0.1076 -1.3693
 9437TIP3    H249803   2.409   4.791  12.436  1.3791  1.1238 -1.8008
 9438TIP3   OH249804   0.658   1.465  14.341 -0.3606 -0.2897 -0.2770
 9438TIP3    H149805   0.716   1.540  14.332 -0.5078 -0.2461 -0.8746
 9438TIP3    H249806   0.594   1.492  14.407  0.4150 -0.4200  0.5495
 9439TIP3   OH249807   2.046   0.474   3.257  0.3183  0.0885  0.1716
 9439TIP3    H149808   2.057   0.396   3.204 -1.0109 -1.3379  1.9218
 9439TIP3    H249809   2.105   0.462   3.332 -0.2481  0.5096  0.6975
 9440TIP3   OH249810   3.623   1.620   4.230 -0.5044 -0.2012  0.3944
 9440TIP3    H149811   3.667   1.630   4.146 -1.6450  0.6045 -0.1084
 9440TIP3    H249812   3.694   1.595   4.290  0.7233  1.4779 -0.3000
 9441TIP3   OH249813   5.434   6.757   0.228  0.0472 -0.2640  0.2460
 9441TIP3    H149814   5.436   6.676   0.279  1.3295 -0.4759 -0.1402
 9441TIP3    H249815   5.405   6.823   0.291 -0.6144 -0.9377  0.6633
 9442TIP3   OH249816   5.527   5.788   3.686 -0.2512  0.6760  0.4497
 9442TIP3    H149817   5.594   5.842   3.728  0.7417 -1.0606  1.1394
 9442TIP3    H249818   5.445   5.830   3.709  0.5958  3.0865 -0.7641
 9443TIP3   OH249819   2.791   6.072   1.804 -0.4241  0.0546  0.3034
 9443TIP3    H149820   2.863   6.010   1.817 -0.6111  0.2567  2.5698
 9443TIP3    H249821   2.724   6.022   1.757 -0.9372 -1.7761  2.8985
 9444TIP3   OH249822   5.440   0.141   0.412  0.2242  0.4463  0.1260
 9444TIP3    H149823   5.530   0.115   0.430 -0.2055 -0.3997  1.0591
 9444TIP3    H249824   5.449   0.219   0.356  1.5246  0.5949  0.5204
 9445TIP3   OH249825   2.401   2.087   2.826 -0.6923  0.2471  0.4648
 9445TIP3    H149826   2.372   2.123   2.742  1.3300  1.3870  0.2086
 9445TIP3    H249827   2.324   2.043   2.861 -1.0164 -2.1626 -2.9767
 9446TIP3   OH249828   3.599   3.542   3.108  0.4771  0.2040  0.0144
 9446TIP3    H149829   3.519   3.489   3.113  1.3691 -1.1397  0.1412
 9446TIP3    H249830   3.635   3.540   3.196 -0.3977  2.4829  0.4437
 9447TIP3   OH249831   1.332   1.417  14.678  0.1567 -0.5620  0.5043
 9447TIP3    H149832   1.309   1.499  14.636  0.5953 -0.3474  0.6750
 9447TIP3    H249833   1.309   1.349  14.615  0.3192 -0.2751  0.1390
 9448TIP3   OH249834   3.476   2.252   3.405  0.1639 -0.9441 -0.1194
 9448TIP3    H149835   3.430   2.335   3.394 -0.6443 -1.6955 -2.7919
 9448TIP3    H249836   3.566   2.270   3.381 -0.1673 -0.9986 -1.4217
 9449TIP3   OH249837   2.062   1.295   1.751 -0.4227 -0.0728 -0.8442
 9449TIP3    H149838   2.039   1.282   1.843 -2.2768 -0.2916 -1.3233
 9449TIP3    H249839   2.145   1.248   1.741  0.8691  1.6546  1.1812
 9450TIP3   OH249840   1.930   3.009  14.842  0.3477  0.0660  0.2124
 9450TIP3    H149841   1.939   3.090  14.892  1.2726  0.7835 -1.1026
 9450TIP3    H249842   1.954   2.940  14.905  1.4063  0.9409  0.7909
 9451TIP3   OH249843   1.224   6.640  14.421  0.4675 -0.1343 -0.2052
 9451TIP3    H149844   1.290   6.645  14.352  1.1411 -0.9424  0.3735
 9451TIP3    H249845   1.153   6.697  14.391  0.1749 -1.4897 -2.1886
 9452TIP3   OH249846   6.412   1.131  12.764 -0.5736 -0.1297 -0.0408
 9452TIP3    H149847   6.481   1.190  12.795 -0.8133  0.3951 -0.5045
 9452TIP3    H249848   6.438   1.045  12.797  0.7665 -0.0823 -0.9361
 9453TIP3   OH249849   5.718   2.004   1.296  0.3591 -0.0381 -0.1098
 9453TIP3    H149850   5.630   1.992   1.259  0.3017 -2.1152  0.6222
 9453TIP3    H249851   5.703   2.021   1.389  0.7730 -1.7699  0.2817
 9454TIP3   OH249852   0.834   4.210  12.420  0.2109 -0.3405 -0.1581
 9454TIP3    H149853   0.893   4.153  12.469 -0.0528 -1.9627 -1.6304
 9454TIP3    H249854   0.844   4.181  12.329 -0.3338  1.6416 -0.8657
 9455TIP3   OH249855   2.197   3.298   1.796  0.4032  0.1983 -0.4407
 9455TIP3    H149856   2.176   3.266   1.883  0.3240 -0.5625 -0.7395
 9455TIP3    H249857   2.277   3.251   1.772  0.3980  0.3719 -0.8011
 9456TIP3   OH249858   3.436   4.851  15.827 -0.8518 -0.3751  0.3736
 9456TIP3    H149859   3.491   4.784  15.787 -0.9569  0.0490 -0.5071
 9456TIP3    H249860   3.491   4.890  15.895 -0.2934 -0.3960 -0.0605
 9457TIP3   OH249861   2.272   4.060   3.431 -0.1395 -0.0864  0.5373
 9457TIP3    H149862   2.306   3.982   3.387 -1.0566  0.0586 -0.4705
 9457TIP3    H249863   2.348   4.099   3.473  0.8565 -0.0702 -1.2045
 9458TIP3   OH249864   5.878   2.577  13.344 -0.5967  0.5796 -0.2395
 9458TIP3    H149865   5.831   2.496  13.361  1.1390 -0.6109 -1.0737
 9458TIP3    H249866   5.873   2.589  13.249  0.7469  0.4614 -0.3333
 9459TIP3   OH249867   0.102   0.342  16.330  0.2099 -0.9850 -0.0699
 9459TIP3    H149868   0.041   0.323  16.400 -0.6307  0.6079 -0.3408
 9459TIP3    H249869   0.049   0.340  16.250  0.7296 -0.7071 -0.4281
 9460TIP3   OH249870   2.536   2.573  16.755 -0.3548 -0.1727  0.2194
 9460TIP3    H149871   2.560   2.665  16.766  0.0645 -0.2290 -0.2200
 9460TIP3    H249872   2.498   2.568  16.667 -0.9217 -0.3077  0.4671
 9461TIP3   OH249873   4.883   0.428  13.586 -0.4959 -0.0091  0.1727
 9461TIP3    H149874   4.804   0.444  13.533  0.9284  2.2583 -1.3565
 9461TIP3    H249875   4.941   0.380  13.527  0.6510  1.4993  0.0488
 9462TIP3   OH249876   4.269   1.963  12.644 -0.0133  0.0291 -0.4727
 9462TIP3    H149877   4.284   1.966  12.550 -3.6446 -0.0537 -1.1248
 9462TIP3    H249878   4.192   2.019  12.658  0.4981  0.0924  2.4508
 9463TIP3   OH249879   1.634   4.880  15.362 -0.0453  0.1350  0.2420
 9463TIP3    H149880   1.608   4.860  15.272 -0.9685 -0.2898  0.5897
 9463TIP3    H249881   1.557   4.922  15.400  0.3387  0.3081  0.8386
 9464TIP3   OH249882   4.493   0.251   2.927 -0.1244 -0.1084 -0.1331
 9464TIP3    H149883   4.414   0.268   2.875 -0.4764 -0.0891  0.4021
 9464TIP3    H249884   4.524   0.338   2.952  0.1572 -0.1099 -0.4744
 9465TIP3   OH249885   3.949   2.260   5.908 -0.2023 -0.0890 -0.2898
 9465TIP3    H149886   4.013   2.243   5.977 -0.9148 -1.3587  0.0694
 9465TIP3    H249887   4.002   2.278   5.830  0.5877 -0.6470  0.1151
 9466TIP3   OH249888   3.135   2.092   1.594 -0.1975 -0.7565  0.0449
 9466TIP3    H149889   3.147   2.168   1.538  0.7712  0.4286  1.8093
 9466TIP3    H249890   3.056   2.049   1.560 -3.0123  3.1229  1.2775
 9467TIP3   OH249891   4.935   1.603  17.110 -0.0266 -0.3837 -0.1315
 9467TIP3    H149892   4.903   1.611  17.200 -2.2192 -1.7202 -0.7525
 9467TIP3    H249893   5.009   1.664  17.105 -1.4744  1.5966  1.8330
 9468TIP3   OH249894   4.834   6.394  11.158  0.3998 -0.3976 -0.3640
 9468TIP3    H149895   4.845   6.340  11.080 -0.7568  1.1525 -1.6291
 9468TIP3    H249896   4.848   6.484  11.128 -1.9004  0.3840  0.7819
 9469TIP3   OH249897   0.162   0.512   3.881 -0.4597 -0.6164 -0.0767
 9469TIP3    H149898   0.157   0.606   3.865  0.9515 -0.4594  0.2647
 9469TIP3    H249899   0.072   0.485   3.901 -0.8510  0.6818 -0.0645
 9470TIP3   OH249900   6.122   5.073  16.734 -0.0353 -0.4010 -0.7465
 9470TIP3    H149901   6.038   5.116  16.753  0.9121  1.2526 -0.2049
 9470TIP3    H249902   6.165   5.131  16.670  0.7003 -1.2342 -1.0169
 9471TIP3   OH249903   2.816   0.756  11.856 -0.2288  0.1143 -0.2254
 9471TIP3    H149904   2.761   0.807  11.796 -0.7505 -0.0298  0.1204
 9471TIP3    H249905   2.845   0.681  11.804 -1.9461 -0.8337  0.1224
 9472TIP3   OH249906   3.521   6.374  14.340  0.0038  0.0742 -0.2742
 9472TIP3    H149907   3.586   6.432  14.301  1.1201 -2.1593 -1.8579
 9472TIP3    H249908   3.438   6.401  14.301  0.6901 -0.2021 -1.9320
 9473TIP3   OH249909   5.012   2.555  10.878  0.0953 -0.3091 -0.0736
 9473TIP3    H149910   4.959   2.632  10.901  1.6690  0.6027  0.5415
 9473TIP3    H249911   4.983   2.532  10.789 -0.4261  0.9463 -0.2376
 9474TIP3   OH249912   3.167   2.447   5.000 -0.0819  0.0384  0.2880
 9474TIP3    H149913   3.167   2.454   4.904  0.0329  2.0007  0.4067
 9474TIP3    H249914   3.239   2.503   5.028  0.4813 -1.2570  1.4973
 9475TIP3   OH249915   0.948   3.116   4.712  0.4614 -0.3279 -0.3336
 9475TIP3    H149916   0.860   3.101   4.748  0.6619 -0.2758  0.1894
 9475TIP3    H249917   0.971   3.204   4.742 -1.0132  1.3894 -4.0085
 9476TIP3   OH249918   5.342   1.691   1.240 -0.3655 -0.5867 -0.3295
 9476TIP3    H149919   5.399   1.768   1.234 -0.1588 -0.9320 -4.8676
 9476TIP3    H249920   5.379   1.638   1.310  2.2214  1.2769 -0.2183
 9477TIP3   OH249921   3.301   3.207  13.299 -0.2468  0.0406  0.2461
 9477TIP3    H149922   3.339   3.282  13.252 -0.6676  0.4739  0.5943
 9477TIP3    H249923   3.292   3.238  13.389 -0.0174 -0.5801  0.4869
 9478TIP3   OH249924   4.904   2.059   2.141 -0.5626  0.7970  0.0449
 9478TIP3    H149925   4.938   2.080   2.228  1.1856  1.4899 -0.7892
 9478TIP3    H249926   4.903   1.963   2.139  1.0098  0.7561  0.2321
 9479TIP3   OH249927   2.971   4.120  16.674 -0.8631 -0.2579 -0.7991
 9479TIP3    H149928   3.060   4.088  16.685 -0.8097 -0.5172 -1.9314
 9479TIP3    H249929   2.920   4.075  16.742 -0.1815 -0.2941 -0.3166
 9480TIP3   OH249930   0.156   5.532   5.443 -0.5767  0.5737 -0.0290
 9480TIP3    H149931   0.233   5.579   5.412 -0.3368  0.1940 -0.0114
 9480TIP3    H249932   0.153   5.550   5.537  0.5936 -0.9729  0.3189
 9481TIP3   OH249933   2.163   3.657  12.010 -0.6988  0.6400  0.1487
 9481TIP3    H149934   2.134   3.580  11.960 -0.8288  0.8531 -0.1058
 9481TIP3    H249935   2.082   3.693  12.047 -0.5611  0.2857  0.7933
 9482TIP3   OH249936   0.183   4.749   1.720  0.6090 -0.4101  0.0604
 9482TIP3    H149937   0.112   4.751   1.656  1.1392  1.8243 -0.4985
 9482TIP3    H249938   0.258   4.786   1.674  1.0707  0.9783  1.8732
 9483TIP3   OH249939   4.727   4.440  15.795  0.2584  0.7788 -0.0366
 9483TIP3    H149940   4.745   4.367  15.736  1.9447  1.2000 -0.0862
 9483TIP3    H249941   4.755   4.517  15.747 -1.2822  1.4474  0.1146
 9484TIP3   OH249942   3.817   0.838   3.891 -0.0179  0.4139  0.0490
 9484TIP3    H149943   3.857   0.833   3.978 -0.2626  1.3265  0.2247
 9484TIP3    H249944   3.769   0.756   3.882  0.2981  0.1586  0.6278
 9485TIP3   OH249945   0.215   5.939   0.531  0.3835  0.4165 -0.4878
 9485TIP3    H149946   0.193   5.853   0.495 -0.3046  0.7692 -0.9134
 9485TIP3    H249947   0.131   5.980   0.550  0.7365  0.3350  1.3296
 9486TIP3   OH249948   3.876   6.427   6.003 -1.0147  0.1318 -0.4462
 9486TIP3    H149949   3.906   6.485   6.072 -2.0978 -0.0467  0.1961
 9486TIP3    H249950   3.877   6.340   6.042 -0.6243 -0.1111 -0.9923
 9487TIP3   OH249951   0.383   5.828   5.727  0.3989 -0.2442 -0.2387
 9487TIP3    H149952   0.471   5.802   5.753  0.3451  0.4593  0.6995
 9487TIP3    H249953   0.389   5.923   5.713  0.4926 -0.6374 -3.1385
 9488TIP3   OH249954   0.978   3.822   2.901  0.2406 -0.2481  0.0050
 9488TIP3    H149955   0.996   3.871   2.820 -0.0350  0.0363  0.1173
 9488TIP3    H249956   1.014   3.877   2.971 -1.7995  0.7362  0.3170
 9489TIP3   OH249957   1.710   5.483  16.154  0.0180  0.0616  0.0987
 9489TIP3    H149958   1.623   5.448  16.136 -0.8320  1.4041  1.4366
 9489TIP3    H249959   1.694   5.574  16.180  1.8578  0.4453 -0.0128
 9490TIP3   OH249960   3.931   1.359  12.063  0.4525 -0.3217  0.1035
 9490TIP3    H149961   3.984   1.438  12.066  1.4159 -0.9906  0.8920
 9490TIP3    H249962   3.916   1.336  12.154 -0.8278 -0.3925 -0.1145
 9491TIP3   OH249963   1.584   1.495  13.906 -0.0127 -0.0313  0.3703
 9491TIP3    H149964   1.557   1.413  13.866 -0.1931  0.0076  0.4105
 9491TIP3    H249965   1.677   1.484  13.925 -0.2185 -0.5182  1.1044
 9492TIP3   OH249966   2.602   4.977  11.167  0.8682 -0.0012  0.7848
 9492TIP3    H149967   2.603   4.953  11.074 -1.1452  0.1348  0.7106
 9492TIP3    H249968   2.559   5.062  11.169  1.9487  0.5347  1.7394
 9493TIP3   OH249969   5.492   3.110  12.837 -0.0175  0.2208 -0.4510
 9493TIP3    H149970   5.533   3.093  12.752 -1.0502  1.2142 -1.1536
 9493TIP3    H249971   5.481   3.205  12.841 -1.7038  0.0390 -0.0443
 9494TIP3   OH249972   6.272   5.558  14.210  0.1584 -0.3022  0.3163
 9494TIP3    H149973   6.345   5.587  14.265 -1.4149  2.1328  1.1969
 9494TIP3    H249974   6.279   5.463  14.209  2.8749 -0.1587  1.0335
 9495TIP3   OH249975   5.237   2.985   4.652  0.2061 -0.0304  0.2541
 9495TIP3    H149976   5.293   2.925   4.701 -3.9836 -3.3063  1.3428
 9495TIP3    H249977   5.251   2.960   4.560  1.0671 -0.2850  0.4455
 9496TIP3   OH249978   4.185   0.378  11.805 -0.1058 -0.2453 -0.5598
 9496TIP3    H149979   4.112   0.324  11.835  0.8179 -1.6491 -0.7872
 9496TIP3    H249980   4.147   0.465  11.791 -2.0567 -1.3207 -2.1479
 9497TIP3   OH249981   1.575   0.753  12.389 -0.3243  0.4345 -0.7626
 9497TIP3    H149982   1.546   0.669  12.353 -0.7141 -0.0238  0.6138
 9497TIP3    H249983   1.669   0.742  12.404 -0.8193 -0.5740  1.6614
 9498TIP3   OH249984   2.661   5.346   0.310 -0.7004 -0.2258 -0.1074
 9498TIP3    H149985   2.712   5.415   0.266  0.3742 -0.5003  0.6832
 9498TIP3    H249986   2.715   5.322   0.386 -1.8816 -0.7372  0.5703
 9499TIP3   OH249987   6.031   3.748   5.548  0.9987  0.2280  0.0243
 9499TIP3    H149988   6.119   3.712   5.546  0.6665 -0.4977 -2.3744
 9499TIP3    H249989   5.973   3.672   5.545  0.2652  0.7277  0.9262
 9500TIP3   OH249990   2.114   4.289   0.573  0.2991  0.0125 -0.0771
 9500TIP3    H149991   2.064   4.364   0.607 -1.5015 -1.5147  0.7211
 9500TIP3    H249992   2.131   4.235   0.649  1.4854 -0.4548 -0.6680
 9501TIP3   OH249993   3.612   1.065  10.943  0.0955  0.1013  0.5617
 9501TIP3    H149994   3.686   1.008  10.922 -0.3035 -1.0336  2.1117
 9501TIP3    H249995   3.652   1.142  10.983  0.5988  0.6623 -0.9887
 9502TIP3   OH249996   4.906   0.213   2.677 -0.6649  0.0504 -0.3675
 9502TIP3    H149997   4.857   0.239   2.599 -0.6267  0.6923 -0.1783
 9502TIP3    H249998   4.900   0.117   2.678 -3.3419  0.1748  0.5541
 9503TIP3   OH249999   4.698   2.886  15.845  0.4558 -0.0169  0.6021
 9503TIP3    H150000   4.653   2.970  15.843 -0.2884 -0.3292  2.8133
 9503TIP3    H250001   4.789   2.906  15.822  0.7140  1.6949  3.0205
 9504TIP3   OH250002   1.345   6.151  12.787 -0.8925  0.2797  0.2748
 9504TIP3    H150003   1.308   6.092  12.722  0.5005 -1.2672  0.8692
 9504TIP3    H250004   1.394   6.095  12.846  2.3078  2.2353 -0.3889
 9505TIP3   OH250005   1.513   1.903   0.648  0.4122 -0.1318  0.2650
 9505TIP3    H150006   1.481   1.917   0.737  1.0295 -0.3159  0.5162
 9505TIP3    H250007   1.435   1.877   0.598  0.3112 -1.4079  1.0541
 9506TIP3   OH250008   5.201   6.108  12.601  0.0288  0.4639  0.7981
 9506TIP3    H150009   5.145   6.135  12.674  0.0417 -0.0239  0.9896
 9506TIP3    H250010   5.239   6.190  12.569  0.0464  0.6834  1.3616
 9507TIP3   OH250011   5.324   2.995   2.933  0.2078 -0.3285 -0.1595
 9507TIP3    H150012   5.350   2.903   2.935  0.7200 -0.1750  1.9104
 9507TIP3    H250013   5.245   2.999   2.988  0.6310  0.5663  0.4090
 9508TIP3   OH250014   5.883   5.719   5.446 -0.3805  0.1888  0.3429
 9508TIP3    H150015   5.966   5.733   5.492 -1.4181  0.3428  2.2123
 9508TIP3    H250016   5.909   5.682   5.362  1.5594 -0.5215  1.2078
 9509TIP3   OH250017   6.046   3.803  16.671 -0.1119 -0.3531  0.3484
 9509TIP3    H150018   6.139   3.804  16.648  0.1048  1.4812  1.1776
 9509TIP3    H250019   6.043   3.763  16.758 -0.0953 -0.4613  0.3005
 9510TIP3   OH250020   4.032   4.490  16.845  0.2496  0.1607 -0.8573
 9510TIP3    H150021   3.996   4.499  16.757  0.3052  0.5858 -0.8354
 9510TIP3    H250022   3.958   4.508  16.903  0.3069  0.2631 -0.8164
 9511TIP3   OH250023   4.560   4.926  17.083  0.8060 -0.2848 -0.0417
 9511TIP3    H150024   4.605   4.943  17.000  3.0550  1.0544  1.3952
 9511TIP3    H250025   4.607   4.979  17.147  1.5514 -4.1806  2.7969
 9512TIP3   OH250026   1.485   1.165  12.791 -0.3264  0.3344  0.0231
 9512TIP3    H150027   1.493   1.105  12.864  1.6182 -1.0412 -1.2835
 9512TIP3    H250028   1.450   1.112  12.720  0.0351  1.0858 -0.7309
 9513TIP3   OH250029   3.978   1.904  13.704  0.6023  0.2981  0.0066
 9513TIP3    H150030   4.058   1.956  13.697  1.7066 -1.3357  0.1879
 9513TIP3    H250031   3.959   1.878  13.613  0.0188  1.0630 -0.0920
 9514TIP3   OH250032   6.624   0.633   4.759  0.0078 -0.7921  0.0172
 9514TIP3    H150033   6.618   0.541   4.784  0.0861 -1.4536 -2.2842
 9514TIP3    H250034   6.713   0.658   4.783 -0.3063 -1.0374  1.4985
 9515TIP3   OH250035   5.616   3.326  14.863 -0.2194  1.0294  0.2591
 9515TIP3    H150036   5.703   3.293  14.884 -1.4886 -1.2863  2.0429
 9515TIP3    H250037   5.560   3.249  14.866 -2.4361  2.5815 -0.3966
 9516TIP3   OH250038   2.254   5.892   0.182 -0.2073  0.3066  0.7426
 9516TIP3    H150039   2.314   5.957   0.219 -0.1158  1.7027 -1.7886
 9516TIP3    H250040   2.186   5.944   0.138 -0.0507 -1.2830 -1.4586
 9517TIP3   OH250041   3.118   3.117  12.686 -0.1725  0.3469 -0.0470
 9517TIP3    H150042   3.071   3.187  12.731 -3.4003 -1.4313 -0.4170
 9517TIP3    H250043   3.153   3.063  12.757  1.5298  1.7831  0.2361
 9518TIP3   OH250044   3.732   5.297   4.038 -0.1384 -0.3016  0.2476
 9518TIP3    H150045   3.706   5.206   4.029 -2.3042  0.2276  0.8832
 9518TIP3    H250046   3.719   5.317   4.131  1.3138  0.3616  0.3185
 9519TIP3   OH250047   0.156   1.123   2.745 -0.1590 -0.3386 -0.3025
 9519TIP3    H150048   0.146   1.028   2.739 -0.0903 -0.3062 -0.9564
 9519TIP3    H250049   0.220   1.136   2.814 -1.1278 -0.7202  0.6870
 9520TIP3   OH250050   6.570   5.870   1.078 -0.6620 -0.2343 -0.3347
 9520TIP3    H150051   6.506   5.896   1.144  0.3579 -0.8500  0.9349
 9520TIP3    H250052   6.544   5.916   0.998 -1.8597  0.5921  0.5271
 9521TIP3   OH250053   4.906   1.771   5.066 -0.1388  0.2479  0.4435
 9521TIP3    H150054   4.869   1.715   5.135 -2.1702  1.4102  0.3313
 9521TIP3    H250055   4.833   1.786   5.006  0.7767  1.8246 -0.2905
 9522TIP3   OH250056   6.403   2.125  10.853  0.0568  0.2383  0.0141
 9522TIP3    H150057   6.443   2.163  10.775 -0.7774 -0.3888 -0.7197
 9522TIP3    H250058   6.469   2.139  10.922  0.8130  0.7531 -0.7920
 9523TIP3   OH250059   6.080   3.672  15.102 -0.1093 -0.2949 -0.0725
 9523TIP3    H150060   6.082   3.577  15.104  0.3883 -0.2697  0.8228
 9523TIP3    H250061   6.119   3.699  15.185  0.3651  0.6938 -0.6045
 9524TIP3   OH250062   3.034   2.047  12.977  0.4629 -0.1721 -0.2559
 9524TIP3    H150063   3.058   1.982  13.043 -1.7049 -0.3638  0.3745
 9524TIP3    H250064   3.065   2.010  12.894 -0.7073 -1.9845  0.0952
 9525TIP3   OH250065   6.289   0.857  10.618 -0.4699  0.0796  0.1942
 9525TIP3    H150066   6.229   0.808  10.561  0.9754  1.3115 -2.4582
 9525TIP3    H250067   6.316   0.794  10.684 -1.8791 -1.5060 -0.7065
 9526TIP3   OH250068   5.512   2.358   5.648  0.4151 -1.1435  0.4349
 9526TIP3    H150069   5.581   2.405   5.696  2.2106 -2.4771 -0.7778
 9526TIP3    H250070   5.498   2.278   5.699 -2.0271  0.2343  2.0240
 9527TIP3   OH250071   2.888   1.384   4.666 -0.0965  0.1769  0.2705
 9527TIP3    H150072   2.924   1.295   4.664 -3.2247 -1.1793  0.9829
 9527TIP3    H250073   2.920   1.421   4.749 -0.1100 -0.8754  0.7484
 9528TIP3   OH250074   3.173   3.722   4.397  0.1263  0.1020  0.6923
 9528TIP3    H150075   3.205   3.785   4.461  1.6782  0.4456 -0.3883
 9528TIP3    H250076   3.078   3.720   4.411 -0.2858  4.2639 -0.5945
 9529TIP3   OH250077   6.265   1.219   5.472 -0.0866  0.2805 -0.0680
 9529TIP3    H150078   6.269   1.124   5.481 -1.1602  0.1844 -0.5411
 9529TIP3    H250079   6.330   1.252   5.534  0.0414 -0.7443  0.3508
 9530TIP3   OH250080   5.633   1.072   6.112  0.6638  0.1216  0.1271
 9530TIP3    H150081   5.690   1.147   6.097 -1.3625  1.2200 -2.4363
 9530TIP3    H250082   5.681   0.997   6.076  2.6035  0.1262  2.5259
 9531TIP3   OH250083   1.502   1.274   3.014  0.6616 -0.1254  0.1517
 9531TIP3    H150084   1.468   1.185   3.007  1.1576 -0.2403 -0.8372
 9531TIP3    H250085   1.519   1.286   3.108 -0.6504 -0.5930  0.4581
 9532TIP3   OH250086   0.103   4.104  11.183  0.0092 -0.0390  0.0930
 9532TIP3    H150087   0.129   4.136  11.269  0.4921  1.2398 -0.5088
 9532TIP3    H250088   0.068   4.182  11.138  2.4770 -0.0124 -1.8932
 9533TIP3   OH250089   5.219   5.441   0.861  0.0622  0.2142 -0.3404
 9533TIP3    H150090   5.132   5.403   0.865  0.5817 -0.9324  0.4365
 9533TIP3    H250091   5.253   5.416   0.775  0.7647 -1.9523  0.5254
 9534TIP3   OH250092   6.772   3.108   4.357 -0.1652 -0.4609  0.0216
 9534TIP3    H150093   6.854   3.158   4.362 -0.4231  0.4117 -3.1983
 9534TIP3    H250094   6.797   3.025   4.317 -0.0697 -2.2349  3.6141
 9535TIP3   OH250095   3.875   4.197  13.579 -0.1305 -0.0525 -0.4055
 9535TIP3    H150096   3.829   4.140  13.518 -0.6075  0.5697 -0.6268
 9535TIP3    H250097   3.840   4.173  13.665 -0.9925  0.5330 -0.5896
 9536TIP3   OH250098   0.638   3.909  16.395  0.0652 -0.0206 -0.0791
 9536TIP3    H150099   0.581   3.898  16.319 -1.1212 -0.7513  0.8887
 9536TIP3    H250100   0.587   3.961  16.457  1.2514  1.0821 -0.0219
 9537TIP3   OH250101   5.774   0.978   5.629  0.1648  0.3379  0.6408
 9537TIP3    H150102   5.703   0.927   5.591  1.8726 -1.3667 -0.3783
 9537TIP3    H250103   5.821   0.916   5.686  0.8249  1.4301  1.3071
 9538TIP3   OH250104   3.117   2.143  17.039 -0.5687 -0.1223  0.0647
 9538TIP3    H150105   3.202   2.184  17.056 -1.0022  0.9634 -0.3001
 9538TIP3    H250106   3.101   2.088  17.116 -0.0556  0.5638  0.6766
 9539TIP3   OH250107   5.294   6.687  16.051  0.2877  0.3364  0.2762
 9539TIP3    H150108   5.218   6.660  16.102 -1.0049 -1.0035 -2.2297
 9539TIP3    H250109   5.270   6.773  16.017  0.3096  0.3523  0.3044
 9540TIP3   OH250110   5.825   6.668  13.117  0.0999  0.2667 -0.1788
 9540TIP3    H150111   5.894   6.722  13.155  1.2510 -0.0553 -1.7838
 9540TIP3    H250112   5.744   6.708  13.149  0.9930  1.3996  0.7185
 9541TIP3   OH250113   5.078   6.125  15.553  0.3964  0.3419  0.0506
 9541TIP3    H150114   5.105   6.038  15.523  1.2704  0.4199  0.5866
 9541TIP3    H250115   5.155   6.180  15.537 -0.0358  0.9423  0.0325
 9542TIP3   OH250116   2.563   5.087  16.494 -0.0523 -0.1720 -0.5527
 9542TIP3    H150117   2.583   5.149  16.564  1.7422  0.3049 -1.4690
 9542TIP3    H250118   2.642   5.084  16.441 -0.3457 -2.6958 -0.9437
 9543TIP3   OH250119   1.878   1.334   3.669 -0.2516  0.6539 -0.0264
 9543TIP3    H150120   1.929   1.276   3.726 -0.1814  1.0472  0.3101
 9543TIP3    H250121   1.943   1.393   3.630 -0.2797  0.2881 -0.6356
 9544TIP3   OH250122   6.383   0.912  13.732  0.5444  0.4603 -0.3589
 9544TIP3    H150123   6.363   0.881  13.644  0.2206 -0.0326 -0.1171
 9544TIP3    H250124   6.468   0.955  13.724 -0.6836  2.7928 -1.4697
 9545TIP3   OH250125   1.462   1.751  16.315 -0.3817  0.0725 -0.2435
 9545TIP3    H150126   1.399   1.802  16.366 -0.1230 -1.0562  1.2347
 9545TIP3    H250127   1.547   1.788  16.338 -0.3390  0.1760 -0.5735
 9546TIP3   OH250128   2.067   3.749   1.390 -0.5843 -0.4897  0.2067
 9546TIP3    H150129   2.129   3.688   1.351 -0.5766 -0.8800  0.8180
 9546TIP3    H250130   2.104   3.835   1.374 -0.5115 -0.6495 -0.5204
 9547TIP3   OH250131   1.254   4.543  15.739  0.7292 -0.2224  0.3293
 9547TIP3    H150132   1.321   4.508  15.681  0.8409 -0.8981  0.8662
 9547TIP3    H250133   1.273   4.637  15.742  1.0975 -0.2708 -0.2297
 9548TIP3   OH250134   0.720   1.646  11.905 -0.0136  0.4213  0.6186
 9548TIP3    H150135   0.803   1.693  11.897  0.6806 -0.9475 -0.5602
 9548TIP3    H250136   0.655   1.704  11.866  0.7027  0.7283 -0.1237
 9549TIP3   OH250137   6.220   2.238   2.403  0.3386  0.0435  0.3395
 9549TIP3    H150138   6.141   2.275   2.363  0.6879  0.1322 -0.2846
 9549TIP3    H250139   6.291   2.270   2.348  0.5758 -2.5062 -0.9334
 9550TIP3   OH250140   5.329   3.438  16.347  0.0563  0.1843  0.6075
 9550TIP3    H150141   5.386   3.416  16.421 -0.5154 -1.7013  0.4993
 9550TIP3    H250142   5.245   3.397  16.369 -0.5379  0.8361 -0.4250
 9551TIP3   OH250143   4.163   4.399  10.543 -0.4114 -0.7776  0.4078
 9551TIP3    H150144   4.152   4.442  10.458  1.7895 -0.3487  0.3133
 9551TIP3    H250145   4.075   4.370  10.567 -0.8377 -2.3496 -2.7862
 9552TIP3   OH250146   6.058   0.428  15.652 -0.2443  0.0608 -0.3759
 9552TIP3    H150147   6.033   0.517  15.630 -4.1765 -0.8165  0.2584
 9552TIP3    H250148   6.024   0.375  15.580 -0.3448 -1.2141  0.5957
 9553TIP3   OH250149   6.579   1.357   1.605 -0.3016  0.4719  0.2109
 9553TIP3    H150150   6.580   1.448   1.635 -0.8857 -0.3480  2.8879
 9553TIP3    H250151   6.668   1.325   1.622 -0.9891 -0.3711  2.3802
 9554TIP3   OH250152   5.003   4.171   2.787  0.1693 -0.2246 -0.0463
 9554TIP3    H150153   4.969   4.086   2.813  0.2129 -0.0308  0.6599
 9554TIP3    H250154   4.933   4.210   2.735 -0.0217 -0.5168 -0.0068
 9555TIP3   OH250155   3.405   2.729  13.387  0.4838  0.1242  0.7374
 9555TIP3    H150156   3.486   2.777  13.403  0.8643 -0.2697  0.0135
 9555TIP3    H250157   3.421   2.680  13.307  0.0965 -1.1891  1.4339
 9556TIP3   OH250158   3.912   6.133   4.645 -0.2948  0.8434  0.2655
 9556TIP3    H150159   3.858   6.183   4.584 -0.6561  1.9847  1.4958
 9556TIP3    H250160   3.977   6.196   4.677  0.9982 -0.2015 -0.2653
 9557TIP3   OH250161   6.065   1.985   0.438 -0.0069 -0.1547 -0.6765
 9557TIP3    H150162   6.008   2.028   0.502  0.7112  1.0524 -0.8468
 9557TIP3    H250163   6.050   1.891   0.453 -0.9707  0.1297  0.2378
 9558TIP3   OH250164   0.007   0.138  13.640  0.1321 -0.0489 -0.2716
 9558TIP3    H150165  -0.064   0.077  13.662  0.5523 -0.4398 -0.0020
 9558TIP3    H250166  -0.015   0.219  13.686  0.5118 -0.5621  0.8189
 9559TIP3   OH250167   1.669   6.013  15.588  0.6709 -0.2295  0.2990
 9559TIP3    H150168   1.621   6.053  15.516  0.9542 -1.5932 -0.6553
 9559TIP3    H250169   1.604   5.959  15.633  0.6802  0.0079  0.5999
 9560TIP3   OH250170   2.296   3.581   0.998  0.0651 -0.5652  0.1671
 9560TIP3    H150171   2.391   3.585   1.007  0.3622 -1.6817 -1.9977
 9560TIP3    H250172   2.272   3.665   0.959  0.6279 -1.5456 -2.4251
 9561TIP3   OH250173   5.642   6.494   3.389  0.1458  0.1137  0.0158
 9561TIP3    H150174   5.575   6.451   3.442  0.1433  0.7095  0.5000
 9561TIP3    H250175   5.649   6.582   3.426  0.5333  0.3526 -0.6288
 9562TIP3   OH250176   6.459   1.945  15.674 -0.4207  0.0052  0.2237
 9562TIP3    H150177   6.418   1.865  15.706  0.1519  0.2142  1.4963
 9562TIP3    H250178   6.388   1.992  15.630 -0.8425 -1.0320 -0.2267
 9563TIP3   OH250179   2.516   4.778   2.260 -0.3395 -0.1256  0.2435
 9563TIP3    H150180   2.444   4.769   2.197 -0.3957  1.5492  0.0354
 9563TIP3    H250181   2.595   4.776   2.206 -0.3581  0.6691  0.1822
 9564TIP3   OH250182   6.196   3.039  11.494  0.3314  0.1040  0.5360
 9564TIP3    H150183   6.288   3.064  11.496  0.2292  0.4003  3.1183
 9564TIP3    H250184   6.149   3.115  11.528 -1.0250  0.3918 -1.8271
 9565TIP3   OH250185   2.233   1.096  12.886  0.5677 -0.5294 -0.1397
 9565TIP3    H150186   2.327   1.115  12.889  0.1057  1.8758  0.4533
 9565TIP3    H250187   2.215   1.080  12.794  1.7184 -1.9416 -0.1381
 9566TIP3   OH250188   1.950   5.736  13.318 -0.6211  0.2570  0.3629
 9566TIP3    H150189   1.961   5.661  13.259 -0.5200 -1.0902  2.0534
 9566TIP3    H250190   2.039   5.757  13.346 -0.9707 -1.8057  3.2618
 9567TIP3   OH250191   0.279   3.296   3.407 -0.0484 -0.2783  0.3913
 9567TIP3    H150192   0.333   3.356   3.459  1.6567 -1.2164 -0.2312
 9567TIP3    H250193   0.314   3.209   3.427 -1.2410 -0.9016 -0.1561
 9568TIP3   OH250194   3.958   1.184  10.795 -0.1615  0.0527 -0.4651
 9568TIP3    H150195   3.942   1.278  10.801  0.1923  0.0330  0.9262
 9568TIP3    H250196   3.878   1.148  10.758 -1.4542  0.5525  1.7562
 9569TIP3   OH250197   4.382   6.134   5.363 -0.2334  0.0146 -0.1642
 9569TIP3    H150198   4.451   6.135   5.430  0.5697 -2.6142 -0.8676
 9569TIP3    H250199   4.316   6.194   5.396  1.2230  0.6040  1.8204
 9570TIP3   OH250200   5.969   0.136   0.226  0.3526  0.5068  0.1735
 9570TIP3    H150201   5.982   0.159   0.318  0.3200  1.5265 -0.0635
 9570TIP3    H250202   5.964   0.221   0.181 -1.7512  0.0636 -0.4843
 9571TIP3   OH250203   2.108   3.998   6.391  0.3981 -0.2596 -0.6424
 9571TIP3    H150204   2.101   3.919   6.444  1.1147  0.2957  0.3002
 9571TIP3    H250205   2.018   4.028   6.380  0.0977 -1.4027 -1.3025
 9572TIP3   OH250206   3.149   2.183  15.569 -0.9515 -0.3345 -0.0722
 9572TIP3    H150207   3.076   2.125  15.590 -0.3956 -1.4740 -1.1551
 9572TIP3    H250208   3.140   2.200  15.475 -0.5401  0.5327  0.0403
 9573TIP3   OH250209   1.267   6.170   5.101  0.1189 -0.1070 -0.1444
 9573TIP3    H150210   1.251   6.259   5.070 -0.5368 -0.4118 -0.7038
 9573TIP3    H250211   1.345   6.177   5.156  0.4043  0.7104 -0.6454
 9574TIP3   OH250212   6.137   2.480   2.870 -0.1635  0.2647 -0.4654
 9574TIP3    H150213   6.079   2.430   2.812 -1.7921  0.0294  1.3171
 9574TIP3    H250214   6.201   2.415   2.900 -0.8214 -0.2071 -0.0523
 9575TIP3   OH250215   1.755   6.207   4.301  0.4971  0.4527  0.0430
 9575TIP3    H150216   1.847   6.180   4.305  0.7834  1.0294 -2.0250
 9575TIP3    H250217   1.722   6.168   4.220 -1.0758  0.2828  0.7572
 9576TIP3   OH250218   3.433   3.963  15.768 -0.1245 -0.1183 -0.6372
 9576TIP3    H150219   3.494   3.922  15.830  0.4873 -1.0017 -1.7980
 9576TIP3    H250220   3.373   3.893  15.743 -1.7769  0.8033  0.6509
 9577TIP3   OH250221   1.982   2.187  14.455 -0.2401 -0.2410  0.2002
 9577TIP3    H150222   2.075   2.186  14.477 -0.2390 -0.5819  0.1930
 9577TIP3    H250223   1.979   2.177  14.360 -0.3049 -1.1911  0.2951
 9578TIP3   OH250224   3.516   0.133   1.733 -0.0891  0.3420  0.0049
 9578TIP3    H150225   3.438   0.152   1.682  0.2790  0.2353 -0.6016
 9578TIP3    H250226   3.584   0.186   1.693 -0.2350  1.8065  1.6359
 9579TIP3   OH250227   3.181   0.446   5.411 -0.6257 -0.0447  0.9526
 9579TIP3    H150228   3.206   0.436   5.319  1.9764 -0.6206  1.6818
 9579TIP3    H250229   3.120   0.519   5.412 -0.6555 -0.0248 -1.2396
 9580TIP3   OH250230   3.740   1.715  13.726 -0.4555  0.1968 -0.2542
 9580TIP3    H150231   3.709   1.672  13.806 -0.9130  0.5970 -0.2146
 9580TIP3    H250232   3.696   1.800  13.726 -0.3161  0.2711 -0.8390
 9581TIP3   OH250233   5.927   2.560  14.787 -0.1498 -0.2926  0.0695
 9581TIP3    H150234   5.986   2.636  14.786 -1.0841  0.4673  0.8360
 9581TIP3    H250235   5.933   2.527  14.876  1.4971 -2.1407 -0.6969
 9582TIP3   OH250236   3.560   1.686  16.700  0.5596  0.3972  0.6560
 9582TIP3    H150237   3.477   1.705  16.658 -0.7494 -2.3396  1.8476
 9582TIP3    H250238   3.584   1.767  16.745 -0.6509  1.6779 -0.9677
 9583TIP3   OH250239   3.962   2.601   1.779  0.0712  0.1630 -0.0864
 9583TIP3    H150240   3.896   2.546   1.736  1.0168 -0.9348 -0.1729
 9583TIP3    H250241   3.939   2.599   1.872 -1.0962  1.3080 -0.3384
 9584TIP3   OH250242   6.351   2.944  13.507  0.3222  0.5883 -0.1302
 9584TIP3    H150243   6.263   2.919  13.532  0.3909  0.6530  0.1770
 9584TIP3    H250244   6.360   2.914  13.417  0.0566  0.4094 -0.0959
 9585TIP3   OH250245   4.179   3.489   0.069 -0.0084 -0.1979 -0.2126
 9585TIP3    H150246   4.248   3.555   0.079  0.4625 -0.6013 -0.8392
 9585TIP3    H250247   4.108   3.521   0.125  0.3876  0.6147 -0.1668
 9586TIP3   OH250248   4.018   5.785   5.402  0.3086  0.4188  0.7750
 9586TIP3    H150249   4.065   5.717   5.450  1.6457 -0.1167 -1.2598
 9586TIP3    H250250   3.990   5.743   5.321  1.0413  2.2607 -0.4457
 9587TIP3   OH250251   4.836   2.072  12.652 -0.4174  0.0298  0.6264
 9587TIP3    H150252   4.880   1.989  12.632 -1.2773 -0.0967 -0.8385
 9587TIP3    H250253   4.831   2.075  12.747  0.3662 -1.2136  0.7108
 9588TIP3   OH250254   1.957   6.376   0.958  0.7937 -0.4350  0.1021
 9588TIP3    H150255   1.983   6.464   0.932 -4.9095  1.4000  0.0355
 9588TIP3    H250256   1.961   6.325   0.878  0.7463  0.6196 -0.5760
 9589TIP3   OH250257   1.917   1.874  13.883 -0.4432  0.4934 -0.0831
 9589TIP3    H150258   1.831   1.855  13.922 -1.1694 -0.9541 -2.2452
 9589TIP3    H250259   1.899   1.945  13.821  0.2886  1.3752  0.7013
 9590TIP3   OH250260   1.982   4.435   2.120 -0.2081 -0.2791  0.2524
 9590TIP3    H150261   1.914   4.418   2.185  0.4631 -3.8282  0.0933
 9590TIP3    H250262   2.064   4.423   2.167  0.2816 -1.0278 -0.7831
 9591TIP3   OH250263   1.861   6.040  12.493  0.5453 -0.1594  0.1269
 9591TIP3    H150264   1.810   6.083  12.561  0.6318  0.5975 -0.2785
 9591TIP3    H250265   1.947   6.025  12.534  1.0516  1.5618 -0.2477
 9592TIP3   OH250266   6.030   2.713   2.556 -0.7381  0.6635 -0.0247
 9592TIP3    H150267   5.981   2.721   2.474 -0.4884 -0.3936 -0.2832
 9592TIP3    H250268   6.102   2.776   2.548  0.1967 -0.5412 -1.2741
 9593TIP3   OH250269   3.689   1.960  17.260 -0.2927 -0.4257  0.4542
 9593TIP3    H150270   3.707   1.998  17.174  0.6700 -2.3762 -0.2260
 9593TIP3    H250271   3.598   1.984  17.278 -0.1136  1.0720 -0.5116
 9594TIP3   OH250272   2.176   1.152  13.150 -0.3668  0.0957 -0.2209
 9594TIP3    H150273   2.268   1.152  13.177 -0.5237  1.3383  0.3584
 9594TIP3    H250274   2.177   1.111  13.064  0.6330 -0.5752  0.0998
 9595TIP3   OH250275   1.753   4.463   1.588  0.2581 -0.2083  0.2320
 9595TIP3    H150276   1.807   4.410   1.529 -0.2996 -0.0628 -0.4208
 9595TIP3    H250277   1.673   4.479   1.538  0.9945  2.5065 -0.1634
 9596TIP3   OH250278   2.918   2.738  15.695  0.0247  1.0327  0.0406
 9596TIP3    H150279   2.994   2.680  15.684 -1.3007 -1.0370  1.2577
 9596TIP3    H250280   2.928   2.774  15.783 -1.8926 -1.6527  1.4518
 9597TIP3   OH250281   0.619   1.461  15.982  0.8975  0.0926 -0.8874
 9597TIP3    H150282   0.550   1.440  16.045  0.8891  0.1704 -0.8697
 9597TIP3    H250283   0.694   1.409  16.010  1.6402  1.9382  0.6180
 9598TIP3   OH250284   4.544   0.736  14.876  0.3249 -0.3488 -0.1027
 9598TIP3    H150285   4.520   0.759  14.966  0.5233 -1.0020  0.1199
 9598TIP3    H250286   4.615   0.795  14.854  0.4763 -0.3901  0.2766
 9599TIP3   OH250287   5.328   4.163  11.652 -0.3766  0.2295 -0.2366
 9599TIP3    H150288   5.312   4.079  11.695  1.7792  0.0126  0.1969
 9599TIP3    H250289   5.366   4.140  11.567  0.9757  0.7659  0.2098
 9600TIP3   OH250290   1.025   1.032  14.711  1.4105  0.4160  0.2843
 9600TIP3    H150291   1.028   0.996  14.623 -1.6492 -0.7105  0.5630
 9600TIP3    H250292   1.097   0.989  14.757  0.1359 -2.6306 -0.4179
 9601TIP3   OH250293   2.793   0.484  14.954  0.5705  0.2824 -0.1453
 9601TIP3    H150294   2.841   0.464  14.873  2.0675  1.1989  0.4802
 9601TIP3    H250295   2.790   0.580  14.956  0.6403  0.2651  0.9326
 9602TIP3   OH250296   5.322   5.468   2.758 -0.1340  0.5637  1.1005
 9602TIP3    H150297   5.283   5.402   2.816  2.5954 -0.4957  1.8323
 9602TIP3    H250298   5.357   5.534   2.817  2.4711 -0.4049  0.7229
 9603TIP3   OH250299   6.336   6.263   3.644  0.0139  0.0215  0.1966
 9603TIP3    H150300   6.319   6.173   3.617  0.6772 -0.2651  0.7093
 9603TIP3    H250301   6.342   6.312   3.562  1.4562 -0.7344 -0.1739
 9604TIP3   OH250302   3.078   5.727   6.085  0.3355  0.2346  0.2872
 9604TIP3    H150303   3.040   5.679   6.159 -0.4465 -2.0349 -1.5192
 9604TIP3    H250304   3.154   5.772   6.122 -0.2023 -0.6445  2.5210
 9605TIP3   OH250305   6.548   3.340   0.535 -0.8256  0.2147  0.0243
 9605TIP3    H150306   6.550   3.294   0.451 -1.3755 -1.1963  0.7654
 9605TIP3    H250307   6.484   3.410   0.523 -0.0024  0.7869 -1.1097
 9606TIP3   OH250308   3.887   4.857  15.592  0.3569  0.2638 -0.0359
 9606TIP3    H150309   3.961   4.830  15.646  0.3358  0.8779  0.2974
 9606TIP3    H250310   3.924   4.870  15.505  0.3359 -1.0174 -0.2519
 9607TIP3   OH250311   2.254   4.495   4.817 -0.0397  0.4290  0.3270
 9607TIP3    H150312   2.169   4.456   4.838  0.1948  0.6434  1.7167
 9607TIP3    H250313   2.311   4.419   4.804 -0.2823  0.2908  0.0450
 9608TIP3   OH250314   4.620   4.216   3.795  0.4634  0.2982 -0.9564
 9608TIP3    H150315   4.708   4.211   3.832  0.0940  1.1595  0.0446
 9608TIP3    H250316   4.562   4.228   3.871 -0.3247  1.8401 -1.7761
 9609TIP3   OH250317   5.568   0.469   5.334  0.7171 -0.1178 -0.1738
 9609TIP3    H150318   5.633   0.531   5.302  0.1759 -0.1776 -1.4095
 9609TIP3    H250319   5.572   0.477   5.430 -0.0517  2.5466 -0.3259
 9610TIP3   OH250320   0.009   5.402  13.795 -0.2146 -0.0843 -0.0489
 9610TIP3    H150321   0.059   5.406  13.714 -3.1049 -0.2899 -1.9365
 9610TIP3    H250322   0.009   5.309  13.818  0.7577 -0.0028  0.2959
 9611TIP3   OH250323   2.752   0.332   5.607 -0.1031  0.2973  0.6244
 9611TIP3    H150324   2.699   0.361   5.533  1.6216  0.3549 -0.6075
 9611TIP3    H250325   2.796   0.411   5.637 -0.3336  0.1557  1.3509
 9612TIP3   OH250326   2.357   6.416  14.154 -0.0598  0.1146 -0.5006
 9612TIP3    H150327   2.343   6.333  14.107 -0.3390 -0.0317 -0.1620
 9612TIP3    H250328   2.450   6.434  14.144 -0.0778 -0.0342 -0.9225
 9613TIP3   OH250329   1.936   5.640   3.840  1.0031  0.6456  0.5152
 9613TIP3    H150330   1.960   5.654   3.932 -1.3932  0.0657  1.2737
 9613TIP3    H250331   1.920   5.546   3.833 -0.8809  0.9782  0.0649
 9614TIP3   OH250332   0.785   1.041  15.243  0.2691  0.3794  0.0523
 9614TIP3    H150333   0.839   1.100  15.190 -0.0757  0.6557  0.0020
 9614TIP3    H250334   0.756   0.974  15.181  0.8910 -0.0003  0.1688
 9615TIP3   OH250335   6.428   3.107  17.005 -0.1588  0.3123  0.1072
 9615TIP3    H150336   6.403   3.093  17.096  0.0253  0.5249  0.1911
 9615TIP3    H250337   6.346   3.101  16.957 -0.1190 -0.8775  0.1577
 9616TIP3   OH250338   1.124   4.521   2.800  0.2750 -0.4186 -0.2905
 9616TIP3    H150339   1.110   4.446   2.744  0.1699  0.0896 -0.9478
 9616TIP3    H250340   1.074   4.592   2.759 -1.1228 -0.4452  1.3222
 9617TIP3   OH250341   0.827   5.023  14.957 -0.0453 -0.0964 -0.0620
 9617TIP3    H150342   0.765   5.083  14.998  0.0390  0.0734 -0.1796
 9617TIP3    H250343   0.898   5.015  15.021  0.0639  0.1308 -0.1519
 9618TIP3   OH250344   4.966   3.350  12.693 -0.1143  0.6856  0.6196
 9618TIP3    H150345   4.957   3.272  12.639  4.1252  0.4449  0.1254
 9618TIP3    H250346   4.953   3.423  12.633  1.0446  0.3864 -0.0035
 9619TIP3   OH250347   1.307   5.882   6.035  0.3233 -0.0817 -0.0079
 9619TIP3    H150348   1.219   5.916   6.046 -0.3728 -1.4284 -1.3440
 9619TIP3    H250349   1.301   5.791   6.064  1.2986 -0.1628 -0.0469
 9620TIP3   OH250350   0.307   5.350   0.323 -0.1533  0.1272  0.2735
 9620TIP3    H150351   0.344   5.389   0.245 -1.1552 -0.1444 -0.3553
 9620TIP3    H250352   0.349   5.395   0.396  1.2408 -0.0577 -0.4187
 9621TIP3   OH250353   4.858   3.275   3.653 -1.3118  0.0512 -0.8730
 9621TIP3    H150354   4.898   3.358   3.680 -1.9716  0.0485  0.1228
 9621TIP3    H250355   4.916   3.241   3.585 -0.5430  0.8782 -0.6289
 9622TIP3   OH250356   2.676   1.910  13.840 -0.6641 -0.0241  0.1990
 9622TIP3    H150357   2.651   1.956  13.920  1.7013  0.4117  0.7359
 9622TIP3    H250358   2.699   1.980  13.779 -0.8135 -0.3974 -0.2851
 9623TIP3   OH250359   3.480   0.160   3.251  0.0092  0.0036  0.3544
 9623TIP3    H150360   3.561   0.202   3.222  0.9731 -1.9198  0.1293
 9623TIP3    H250361   3.509   0.087   3.306 -1.4844 -1.7382 -1.0993
 9624TIP3   OH250362   1.445   3.840   5.747  0.1597  0.5233 -0.0247
 9624TIP3    H150363   1.363   3.887   5.762  0.6805  1.8219 -1.2066
 9624TIP3    H250364   1.427   3.785   5.671 -0.1419 -0.4687  0.7589
 9625TIP3   OH250365   1.130   0.239  16.124  0.0924  0.3220 -0.2160
 9625TIP3    H150366   1.185   0.163  16.104 -0.1708  0.0432  0.1246
 9625TIP3    H250367   1.096   0.223  16.212 -0.4823  0.5221 -0.3955
 9626TIP3   OH250368   2.936   2.799   0.273 -0.4279  0.1071  0.0546
 9626TIP3    H150369   2.851   2.763   0.248 -0.2611 -0.8839  0.8807
 9626TIP3    H250370   2.997   2.768   0.206 -0.7883  1.1599 -0.7647
 9627TIP3   OH250371   5.515   1.891   5.884  0.4540 -0.0456 -0.3954
 9627TIP3    H150372   5.467   1.821   5.840 -1.4457  0.0843  1.4035
 9627TIP3    H250373   5.488   1.971   5.839 -1.3500  0.0678  0.8474
 9628TIP3   OH250374   6.268   1.281  15.724  0.2446  0.6071 -0.2232
 9628TIP3    H150375   6.291   1.227  15.799 -0.8030  0.8239  0.2556
 9628TIP3    H250376   6.190   1.329  15.751  0.0667  0.9575 -1.3139
 9629TIP3   OH250377   4.837   0.571   2.688 -0.0100  0.4444  0.3581
 9629TIP3    H150378   4.825   0.487   2.731  2.5043 -1.0569 -1.7602
 9629TIP3    H250379   4.843   0.634   2.760 -0.3858 -1.3899  2.0297
 9630TIP3   OH250380   1.633   3.563  12.670 -0.1007  0.4763 -0.2110
 9630TIP3    H150381   1.696   3.572  12.742 -0.6861 -0.4830  0.4421
 9630TIP3    H250382   1.581   3.487  12.694  0.0263 -0.1674 -1.9316
 9631TIP3   OH250383   1.240   2.689  16.140  0.8209  0.4983 -0.5181
 9631TIP3    H150384   1.154   2.660  16.112 -0.1409  1.4686  1.3175
 9631TIP3    H250385   1.285   2.715  16.059 -0.2471 -0.8929 -1.5751
 9632TIP3   OH250386   5.038   1.474  16.867 -0.1228 -0.1153 -0.0018
 9632TIP3    H150387   5.002   1.555  16.904  2.6410  0.8138  0.7931
 9632TIP3    H250388   5.082   1.431  16.940  0.8728 -0.8915 -1.0250
 9633TIP3   OH250389   4.233   2.023  15.197 -0.5124  0.5196  0.3405
 9633TIP3    H150390   4.285   1.982  15.128 -0.6591  0.0165  0.5206
 9633TIP3    H250391   4.142   2.002  15.173 -0.4968 -0.8638  1.4342
 9634TIP3   OH250392   6.240   1.349  10.420 -0.6958  0.0426 -0.6443
 9634TIP3    H150393   6.293   1.269  10.414  1.7540  1.4372  1.6087
 9634TIP3    H250394   6.295   1.410  10.469 -3.2170  2.5648 -0.8975
 9635TIP3   OH250395   2.124   1.476  16.331 -0.2203  0.1512 -0.0327
 9635TIP3    H150396   2.029   1.487  16.325 -0.4405 -1.5567  0.1451
 9635TIP3    H250397   2.160   1.554  16.289 -1.7043  0.1170 -1.3950
 9636TIP3   OH250398   4.363   2.575   2.902 -0.4317 -0.1952  0.5226
 9636TIP3    H150399   4.445   2.526   2.904  0.0764  0.6664  1.6053
 9636TIP3    H250400   4.320   2.547   2.822  1.5915  0.3888 -0.8065
 9637TIP3   OH250401   4.371   2.250  11.662 -0.1223  0.5165  0.0225
 9637TIP3    H150402   4.331   2.163  11.657  0.6383  0.1663 -0.0182
 9637TIP3    H250403   4.354   2.278  11.752  2.3916 -1.0366  1.0442
 9638TIP3   OH250404   1.948   2.655   6.610 -0.0741  0.3557 -0.1214
 9638TIP3    H150405   1.949   2.747   6.583  1.9894  0.6972  1.0553
 9638TIP3    H250406   2.015   2.614   6.555 -1.9894 -0.7941 -1.6857
 9639TIP3   OH250407   6.250   1.753   2.860  0.8075 -0.4147 -0.0992
 9639TIP3    H150408   6.257   1.663   2.893  0.4591 -0.5259 -0.3268
 9639TIP3    H250409   6.305   1.755   2.781  0.8725 -0.4064 -0.0542
 9640TIP3   OH250410   5.525   3.019   2.634 -0.1174  0.2880 -0.0351
 9640TIP3    H150411   5.537   3.004   2.540 -1.9914 -1.9935  0.0390
 9640TIP3    H250412   5.610   2.998   2.673  0.2641 -0.1539 -1.0985
 9641TIP3   OH250413   1.670   4.125  11.767  0.2280 -0.2962 -0.6648
 9641TIP3    H150414   1.698   4.098  11.679 -1.1279  0.8099 -1.4631
 9641TIP3    H250415   1.585   4.082  11.779 -0.3281  0.8126 -0.5500
 9642TIP3   OH250416   4.643   5.688  14.775  0.2498 -0.4225  0.2594
 9642TIP3    H150417   4.555   5.652  14.785  0.3415 -0.6165  0.3634
 9642TIP3    H250418   4.680   5.687  14.864  0.4771 -0.6477  0.1631
 9643TIP3   OH250419   0.789   4.163   4.757 -0.8888  0.0077  0.3529
 9643TIP3    H150420   0.762   4.128   4.842 -0.8494  0.0888  0.3987
 9643TIP3    H250421   0.866   4.217   4.776 -2.8478  2.7612  0.7840
 9644TIP3   OH250422   1.245   1.566   5.561  0.1033  0.8242 -0.3160
 9644TIP3    H150423   1.334   1.602   5.562 -0.7201  2.8856  0.2392
 9644TIP3    H250424   1.203   1.609   5.486  0.1285 -1.6031 -1.7787
 9645TIP3   OH250425   0.885   0.168  16.846 -0.3146 -0.2852  0.3267
 9645TIP3    H150426   0.952   0.119  16.894  0.6015  0.7863  0.1524
 9645TIP3    H250427   0.841   0.220  16.913 -0.6248 -0.5772  0.3534
 9646TIP3   OH250428   1.041   2.479  11.816 -0.7868 -0.2263  0.9660
 9646TIP3    H150429   0.953   2.510  11.795 -0.3756  0.2485 -0.0649
 9646TIP3    H250430   1.094   2.559  11.820  0.3605 -0.7953 -2.0588
 9647TIP3   OH250431   0.468   4.291  14.346 -0.0592 -0.2568  0.6111
 9647TIP3    H150432   0.435   4.204  14.369  0.6259 -0.6942 -0.0669
 9647TIP3    H250433   0.453   4.344  14.425 -1.8571 -0.5933  0.5224
 9648TIP3   OH250434   1.406   4.687   2.065 -0.5082 -0.4677 -0.2467
 9648TIP3    H150435   1.492   4.712   2.030 -0.1674 -0.0575  0.8667
 9648TIP3    H250436   1.349   4.683   1.988 -0.0311  1.5160 -0.7441
 9649TIP3   OH250437   6.498   4.071  15.580 -0.3933  0.3543  0.2430
 9649TIP3    H150438   6.541   3.993  15.616 -0.0758  0.0848 -0.7051
 9649TIP3    H250439   6.531   4.143  15.633  1.1435  0.1384 -0.3857
 9650TIP3   OH250440   3.503   2.201  13.992  0.4643  0.2793  1.1498
 9650TIP3    H150441   3.495   2.198  14.088  2.0800  0.3538  1.3008
 9650TIP3    H250442   3.590   2.166  13.975 -0.2003 -0.6899 -0.3743
 9651TIP3   OH250443   6.306   0.436  13.913 -0.4058 -0.4190  0.0338
 9651TIP3    H150444   6.323   0.530  13.904  0.5552 -0.4904  1.0326
 9651TIP3    H250445   6.252   0.429  13.992  1.1877 -0.8701  1.1078
 9652TIP3   OH250446   4.342   6.512  15.348  0.1181  0.1472  0.8339
 9652TIP3    H150447   4.284   6.441  15.320  0.5329 -0.3613  1.2523
 9652TIP3    H250448   4.297   6.552  15.422 -1.2095  1.8011 -0.8103
 9653TIP3   OH250449   5.411   2.447   3.502 -0.4178 -0.6991  0.4162
 9653TIP3    H150450   5.402   2.488   3.588  0.5540  0.4085  0.0133
 9653TIP3    H250451   5.417   2.520   3.441 -2.0537 -1.4855 -0.7100
 9654TIP3   OH250452   2.486   1.554   3.378 -0.1493 -0.3392  0.6624
 9654TIP3    H150453   2.490   1.503   3.297 -0.4728  0.0064  0.4254
 9654TIP3    H250454   2.397   1.589   3.380  0.4201  1.1600  0.2353
 9655TIP3   OH250455   2.052   0.993  12.274 -0.0992 -0.1517 -0.0195
 9655TIP3    H150456   1.961   0.973  12.252 -0.3475 -0.9798  1.6699
 9655TIP3    H250457   2.104   0.942  12.211 -0.7661  2.7527 -3.0564
 9656TIP3   OH250458   5.567   5.844  16.021 -0.3583 -0.7162 -0.1704
 9656TIP3    H150459   5.547   5.846  15.928  0.1155  0.8283 -0.2478
 9656TIP3    H250460   5.483   5.863  16.064 -0.0099  1.2923 -0.3653
 9657TIP3   OH250461   0.988   1.293  12.629 -0.0156 -0.0661 -0.5708
 9657TIP3    H150462   1.049   1.359  12.594 -1.3401  1.1718 -0.6126
 9657TIP3    H250463   1.014   1.284  12.721  0.5881  0.0349 -0.7239
 9658TIP3   OH250464   0.135   0.104   0.826  0.6743 -0.1113 -0.7617
 9658TIP3    H150465   0.127   0.031   0.765  2.3129 -0.9440 -0.0314
 9658TIP3    H250466   0.207   0.078   0.884 -0.6274  0.7874  1.3073
 9659TIP3   OH250467   2.255   3.269   5.462  0.3473 -0.0753 -0.3291
 9659TIP3    H150468   2.232   3.362   5.460  0.3645 -0.0833 -0.9712
 9659TIP3    H250469   2.351   3.269   5.459  0.3233 -0.1338 -1.2013
 9660TIP3   OH250470   1.747   0.149   1.382  0.3392 -0.0764 -0.4575
 9660TIP3    H150471   1.812   0.135   1.451 -0.0948  1.2902  0.2342
 9660TIP3    H250472   1.707   0.233   1.403  0.3973  0.5015 -2.5233
 9661TIP3   OH250473   5.765   2.871  16.095 -0.2573 -0.0436 -0.4747
 9661TIP3    H150474   5.775   2.807  16.024  1.6459 -0.0134 -0.2615
 9661TIP3    H250475   5.756   2.817  16.174 -1.3223 -0.0684 -0.6107
 9662TIP3   OH250476   6.040   4.971  12.229 -0.0412 -0.3034  0.1863
 9662TIP3    H150477   5.961   4.937  12.270 -0.6899  0.1379 -0.6840
 9662TIP3    H250478   6.028   5.066  12.228  0.9478 -0.1562  0.9481
 9663TIP3   OH250479   0.406   4.216   4.156  0.7429 -0.5253  0.4762
 9663TIP3    H150480   0.364   4.149   4.210 -0.2920  0.4817  0.9384
 9663TIP3    H250481   0.334   4.256   4.108  1.4110 -0.0266 -0.1121
 9664TIP3   OH250482   6.781   4.125   2.393 -0.0759 -0.4034  1.2249
 9664TIP3    H150483   6.763   4.207   2.347  1.3423 -0.2642  0.8703
 9664TIP3    H250484   6.697   4.098   2.429 -0.6215  1.0412  1.0732
 9665TIP3   OH250485   6.814   3.001  13.319  0.1965 -0.6169 -0.1794
 9665TIP3    H150486   6.872   2.933  13.354 -0.2220 -0.2295  1.3131
 9665TIP3    H250487   6.870   3.056  13.266  0.9074 -1.0881  0.0767
 9666TIP3   OH250488   0.605   6.105  13.670  0.1486  0.5176  0.7616
 9666TIP3    H150489   0.654   6.127  13.749  0.9249  1.6042 -0.0078
 9666TIP3    H250490   0.647   6.026  13.637  1.3055  1.3387  0.2031
 9667TIP3   OH250491   3.959   0.645   4.908  0.1459 -0.1647 -0.0036
 9667TIP3    H150492   3.964   0.690   4.824 -0.0648 -1.6654 -0.8385
 9667TIP3    H250493   3.867   0.619   4.916 -0.4957  2.4756  2.0592
 9668TIP3   OH250494   5.140   5.532  13.808  0.5612  0.4065  0.6553
 9668TIP3    H150495   5.159   5.501  13.897 -1.5021  1.1964  1.3834
 9668TIP3    H250496   5.199   5.607  13.795  0.4684  0.6324  1.5539
 9669TIP3   OH250497   4.447   4.174  14.027 -0.1592  0.1483  0.9934
 9669TIP3    H150498   4.409   4.172  13.940  1.0624 -0.8009  0.4574
 9669TIP3    H250499   4.387   4.227  14.079 -1.5713 -0.3592 -0.1028
 9670TIP3   OH250500   1.761   6.299  14.523 -0.0684  0.3193  0.3872
 9670TIP3    H150501   1.763   6.350  14.603  1.4539  0.6895  0.1360
 9670TIP3    H250502   1.827   6.340  14.467  1.6234 -2.2927  0.4093
 9671TIP3   OH250503   1.619   3.731  14.083  0.8685  0.6218 -0.5042
 9671TIP3    H150504   1.692   3.755  14.140 -0.3608  3.3993  0.0081
 9671TIP3    H250505   1.650   3.750  13.995  0.6281  2.2442 -0.2513
 9672TIP3   OH250506   2.261   6.754  16.547  0.6650 -0.1875  0.3961
 9672TIP3    H150507   2.316   6.826  16.519  0.0821 -0.4425 -1.4822
 9672TIP3    H250508   2.244   6.704  16.467 -0.4899 -1.3314  1.3292
 9673TIP3   OH250509   1.546   4.468   4.489 -0.2698 -0.4955 -0.7711
 9673TIP3    H150510   1.617   4.430   4.437 -0.4583 -0.2021 -1.2436
 9673TIP3    H250511   1.591   4.517   4.558 -0.0229 -1.2462 -0.3883
 9674TIP3   OH250512   1.175   4.749  14.207  0.0188  0.1540  0.0961
 9674TIP3    H150513   1.248   4.704  14.250  0.2258 -0.3708 -0.7885
 9674TIP3    H250514   1.120   4.679  14.174 -0.7801  0.5516  0.5708
 9675TIP3   OH250515   3.147   2.630  13.193 -0.3031  0.5790  0.3955
 9675TIP3    H150516   3.090   2.649  13.118  0.7388 -0.3290 -0.6311
 9675TIP3    H250517   3.217   2.694  13.186 -0.0847  0.3462  0.4680
 9676TIP3   OH250518   3.158   4.818  15.349  0.5613 -0.5260 -0.0595
 9676TIP3    H150519   3.134   4.735  15.308 -1.8978 -0.4530  1.1050
 9676TIP3    H250520   3.110   4.818  15.432 -0.2346  2.4621 -0.4693
 9677TIP3   OH250521   3.296   0.128  15.125  0.0537  0.8075 -0.4005
 9677TIP3    H150522   3.240   0.075  15.182  1.1919  1.3107  1.2055
 9677TIP3    H250523   3.360   0.066  15.090  0.3132  0.7915  0.1017
 9678TIP3   OH250524   3.095   5.909   4.595 -0.1918  0.0015  0.3384
 9678TIP3    H150525   3.032   5.898   4.524  1.2090 -2.1945 -0.6002
 9678TIP3    H250526   3.132   5.996   4.581 -0.2110 -0.2519 -1.3669
 9679TIP3   OH250527   4.522   2.211   0.201  0.5766  0.4224  0.2680
 9679TIP3    H150528   4.606   2.202   0.247  2.0989 -2.1112 -2.7831
 9679TIP3    H250529   4.542   2.264   0.124 -0.3873 -0.8920 -0.9268
 9680TIP3   OH250530   6.275   3.305   5.333  0.1385 -0.7705 -0.2585
 9680TIP3    H150531   6.211   3.265   5.274  0.9935 -1.3748 -0.7918
 9680TIP3    H250532   6.328   3.361   5.277 -1.5815  1.8153  0.6346
 9681TIP3   OH250533   4.406   0.836   5.307  0.1204 -0.2463  0.0256
 9681TIP3    H150534   4.437   0.824   5.397  0.7193  1.9690  0.1436
 9681TIP3    H250535   4.311   0.826   5.312  0.2855 -1.7327  0.5942
 9682TIP3   OH250536   0.289   6.598   3.815 -0.3441  0.1058  0.0830
 9682TIP3    H150537   0.278   6.692   3.834 -1.4607 -0.2513  1.2373
 9682TIP3    H250538   0.285   6.593   3.719 -1.7864  1.0602  0.0676
 9683TIP3   OH250539   4.635   2.523  11.135  0.0501 -0.2440 -0.2844
 9683TIP3    H150540   4.701   2.470  11.089 -0.0376 -0.6871  0.0996
 9683TIP3    H250541   4.675   2.610  11.141 -0.1114 -0.0658 -1.5795
 9684TIP3   OH250542   2.941   5.419  12.030  0.8539 -0.0082 -0.6524
 9684TIP3    H150543   2.991   5.338  12.035 -0.3698 -0.7484 -0.2195
 9684TIP3    H250544   2.886   5.409  11.952 -1.0047 -0.5909  0.7150
 9685TIP3   OH250545   4.371   6.593  12.050 -0.2925  0.3842  0.5110
 9685TIP3    H150546   4.317   6.671  12.042  1.0530  1.2678 -0.2752
 9685TIP3    H250547   4.449   6.623  12.097 -0.1392 -0.6766  0.9469
 9686TIP3   OH250548   0.381   0.178  13.142 -0.4612  0.1470 -0.2434
 9686TIP3    H150549   0.378   0.087  13.172 -0.4021  0.3737  0.4518
 9686TIP3    H250550   0.450   0.178  13.075  1.7914  0.3375  2.0350
 9687TIP3   OH250551   3.476   4.572  11.184  0.2765  0.3437  0.2741
 9687TIP3    H150552   3.511   4.607  11.102  1.4360 -3.5156 -1.0012
 9687TIP3    H250553   3.542   4.593  11.249 -0.6347  3.4153  0.2815
 9688TIP3   OH250554   1.175   4.295  12.019  0.1669 -0.4952 -0.0246
 9688TIP3    H150555   1.244   4.279  11.954  0.0260  0.9931 -0.5604
 9688TIP3    H250556   1.189   4.385  12.046 -0.9515 -0.5127  0.6225
 9689TIP3   OH250557   0.855   1.799   6.454 -0.0937  0.1153 -0.4182
 9689TIP3    H150558   0.917   1.824   6.523 -2.1183 -1.0356  1.8914
 9689TIP3    H250559   0.769   1.816   6.492 -1.2647 -1.1038 -2.4499
 9690TIP3   OH250560   3.473   5.381  16.783 -0.5537 -0.3484 -0.0795
 9690TIP3    H150561   3.403   5.441  16.811 -0.7977 -0.6481 -0.0418
 9690TIP3    H250562   3.500   5.414  16.698 -0.2113  0.2245  0.2458
 9691TIP3   OH250563   1.967   1.924   2.700 -0.0580 -0.4315  0.2323
 9691TIP3    H150564   1.927   1.952   2.618 -1.3381  2.8893  1.8765
 9691TIP3    H250565   2.028   1.995   2.722  0.7536 -1.5884  1.8102
 9692TIP3   OH250566   1.729   2.058   3.798 -1.0996 -0.1677 -0.3782
 9692TIP3    H150567   1.752   2.018   3.881 -0.5312 -2.1307 -1.4381
 9692TIP3    H250568   1.635   2.040   3.788 -1.4922  1.3432  0.4988
 9693TIP3   OH250569   1.704   1.167  10.884 -0.3683  0.0073 -0.1209
 9693TIP3    H150570   1.788   1.209  10.867 -0.5785 -0.6357 -3.1454
 9693TIP3    H250571   1.646   1.202  10.815 -2.1681 -0.6688  1.0202
 9694TIP3   OH250572   3.560   0.570  13.151  0.2562  0.0960 -0.1426
 9694TIP3    H150573   3.533   0.618  13.072 -0.1257  0.0104 -0.0659
 9694TIP3    H250574   3.573   0.639  13.216 -1.2450  0.0273  0.2421
 9695TIP3   OH250575   6.545   6.506  15.846  0.3909  0.4283 -0.2839
 9695TIP3    H150576   6.526   6.554  15.766 -2.7731 -1.4549 -0.7284
 9695TIP3    H250577   6.640   6.489  15.842  0.8313  2.9743 -2.0813
 9696TIP3   OH250578   0.423   5.117  15.191  0.5357 -0.7551  0.1218
 9696TIP3    H150579   0.340   5.108  15.145  1.1002 -1.9283 -0.7053
 9696TIP3    H250580   0.426   5.208  15.218 -0.9953 -0.6878  0.1079
 9697TIP3   OH250581   2.137   6.375   4.882 -0.1148  0.0176  0.2937
 9697TIP3    H150582   2.070   6.311   4.904  1.4006 -1.1546  1.6443
 9697TIP3    H250583   2.161   6.355   4.792 -2.0422  0.8986 -0.4430
 9698TIP3   OH250584   0.127   4.504   2.910  0.2178 -0.5816 -0.7181
 9698TIP3    H150585   0.121   4.443   2.984  0.6195  0.0458 -0.1695
 9698TIP3    H250586   0.039   4.504   2.872 -0.1847 -0.3207  0.2185
 9699TIP3   OH250587   5.463   0.508   1.170  0.2466 -0.2362 -0.0671
 9699TIP3    H150588   5.450   0.598   1.199  0.7203 -0.1760 -0.0242
 9699TIP3    H250589   5.515   0.468   1.240 -0.1574 -0.6076  0.0204
 9700TIP3   OH250590   4.870   6.634  11.794  0.1229  0.2416 -0.1182
 9700TIP3    H150591   4.966   6.630  11.792  0.1321 -0.2286  0.7949
 9700TIP3    H250592   4.850   6.727  11.783  0.7057  0.4090  0.1834
 9701TIP3   OH250593   5.888   4.150  12.226 -0.8768  0.2538 -0.4161
 9701TIP3    H150594   5.916   4.171  12.137 -1.7158  1.4506 -0.4055
 9701TIP3    H250595   5.914   4.058  12.239  0.8971  0.6258 -1.2322
 9702TIP3   OH250596   0.314   4.712  13.864  0.5768 -0.0300 -0.3395
 9702TIP3    H150597   0.248   4.758  13.812 -0.1844 -1.8963 -1.0285
 9702TIP3    H250598   0.268   4.683  13.943  0.8720 -0.2779 -0.2559
 9703TIP3   OH250599   2.944   5.027  13.323 -0.3026 -0.1112 -0.6250
 9703TIP3    H150600   2.904   5.097  13.271  0.2062 -0.1942 -1.1328
 9703TIP3    H250601   2.894   5.026  13.405 -0.0294  1.1484 -0.4285
 9704TIP3   OH250602   4.657   1.283   4.096 -0.3119  0.3686 -0.1760
 9704TIP3    H150603   4.588   1.349   4.102  0.5756  1.3369 -0.5413
 9704TIP3    H250604   4.689   1.290   4.006  1.1375  0.8281  0.3619
 9705TIP3   OH250605   4.883   6.460   0.960  0.0634 -0.6777 -0.6479
 9705TIP3    H150606   4.930   6.393   0.911  1.1221  1.2567 -2.3832
 9705TIP3    H250607   4.936   6.539   0.949  0.6070 -0.2289  4.0651
 9706TIP3   OH250608   0.160   0.964  14.902  0.4051  0.1599  0.6969
 9706TIP3    H150609   0.144   0.997  14.990  0.9218  0.5138  0.6589
 9706TIP3    H250610   0.181   1.041  14.850  2.2102 -0.2723  0.7499
 9707TIP3   OH250611   2.308   2.425   2.361 -0.0167 -0.1171 -0.1755
 9707TIP3    H150612   2.264   2.441   2.445  0.7615  0.8980  0.0478
 9707TIP3    H250613   2.399   2.452   2.376  0.5289 -1.5264 -0.8417
 9708TIP3   OH250614   2.828   6.135   4.139  0.1098  0.0523 -0.0517
 9708TIP3    H150615   2.923   6.136   4.131  0.1205  0.0316  0.0734
 9708TIP3    H250616   2.797   6.098   4.056  0.1758  0.7534 -0.3870
 9709TIP3   OH250617   0.732   6.167  14.508  0.0832 -0.1164  0.0226
 9709TIP3    H150618   0.648   6.166  14.462 -0.6240  2.1392  1.2042
 9709TIP3    H250619   0.758   6.259  14.510  1.2585 -0.4680  2.0755
 9710TIP3   OH250620   1.252   5.689   3.762 -0.5050  1.0092  0.1899
 9710TIP3    H150621   1.228   5.650   3.678 -0.5490  1.5383 -0.0391
 9710TIP3    H250622   1.180   5.664   3.821 -0.9226  1.4026 -0.1505
 9711TIP3   OH250623   6.593   1.826  16.554 -0.0479 -0.0062  0.1017
 9711TIP3    H150624   6.627   1.893  16.614  0.6790  1.4093 -1.8247
 9711TIP3    H250625   6.501   1.815  16.579  0.9786 -1.7193  3.4616
 9712TIP3   OH250626   0.760   4.527  14.213 -0.0677  0.3018  0.6764
 9712TIP3    H150627   0.720   4.586  14.148 -2.1232 -0.7461  0.9275
 9712TIP3    H250628   0.784   4.449  14.163  0.5991  0.4727  0.7339
 9713TIP3   OH250629   3.067   3.115   0.527 -0.4388  0.4830  0.1248
 9713TIP3    H150630   3.133   3.137   0.593 -1.0648 -0.5354  1.1318
 9713TIP3    H250631   3.047   3.022   0.544 -1.9772  0.7257 -0.2868
 9714TIP3   OH250632   1.873   1.150   1.243  0.3681  0.6389 -0.3844
 9714TIP3    H150633   1.875   1.129   1.150  0.8522 -1.1657  0.0011
 9714TIP3    H250634   1.853   1.066   1.286  0.1678  1.4379  1.1361
 9715TIP3   OH250635   6.512   5.176  16.871  0.1914 -0.2712  0.0330
 9715TIP3    H150636   6.463   5.239  16.924 -3.5368 -3.7943  0.9984
 9715TIP3    H250637   6.549   5.115  16.935  3.6899  0.7755 -0.8885
 9716TIP3   OH250638   0.477   5.561   5.326 -0.1966 -0.7172 -0.0081
 9716TIP3    H150639   0.470   5.542   5.420  2.4702 -0.1306  0.3334
 9716TIP3    H250640   0.505   5.652   5.322  0.1700 -0.8843 -1.3677
 9717TIP3   OH250641   3.132   6.806  15.821  0.1096  0.5135 -0.9551
 9717TIP3    H150642   3.166   6.794  15.909  0.1883 -0.3392 -1.1011
 9717TIP3    H250643   3.205   6.783  15.763 -0.1537  0.4119 -1.2508
 9718TIP3   OH250644   3.093   3.113   2.570 -0.3444  0.3092  0.0820
 9718TIP3    H150645   3.110   3.207   2.581  1.4319  0.1425 -1.1527
 9718TIP3    H250646   3.003   3.109   2.537  0.2138  1.7087 -1.6803
 9719TIP3   OH250647   1.635   3.733  11.417 -0.0013 -0.3138 -0.1205
 9719TIP3    H150648   1.726   3.763  11.416 -0.4842  1.1752 -0.2284
 9719TIP3    H250649   1.605   3.742  11.327  0.1571 -2.1146 -0.3636
 9720TIP3   OH250650   1.878   2.434  11.223 -0.1813  0.6545  0.3389
 9720TIP3    H150651   1.870   2.530  11.219  1.2606  0.7932  0.4338
 9720TIP3    H250652   1.816   2.408  11.292  0.2744  1.6505  1.1465
 9721TIP3   OH250653   5.892   3.256   4.843  0.4945 -0.0086  0.2303
 9721TIP3    H150654   5.833   3.325   4.872  1.1011  0.3487  0.6145
 9721TIP3    H250655   5.893   3.263   4.748 -0.8803 -0.6743  0.1535
 9722TIP3   OH250656   1.001   2.846   0.300  0.5733  0.3208 -0.5383
 9722TIP3    H150657   0.995   2.792   0.221 -0.8413  2.1751 -1.7531
 9722TIP3    H250658   1.023   2.934   0.267  1.5456  0.7942  1.2757
 9723TIP3   OH250659   4.916   3.744   2.148 -0.0809 -0.5692  0.3298
 9723TIP3    H150660   4.859   3.756   2.224 -0.1109  0.0377  0.2106
 9723TIP3    H250661   4.987   3.807   2.161 -0.3833 -0.0763 -0.4312
 9724TIP3   OH250662   4.111   0.531  15.588 -0.1352 -0.3525 -0.5326
 9724TIP3    H150663   4.204   0.535  15.566  0.1374 -0.0337  0.6312
 9724TIP3    H250664   4.107   0.477  15.667 -0.9311 -0.3599 -0.5712
 9725TIP3   OH250665   0.423   5.249  16.584  0.0336 -0.0545 -0.8453
 9725TIP3    H150666   0.335   5.216  16.568 -0.7940  1.0560  1.2965
 9725TIP3    H250667   0.415   5.344  16.579  0.6903  0.1353  1.2509
 9726TIP3   OH250668   4.767   2.450   0.285 -0.2051  0.0843 -0.3042
 9726TIP3    H150669   4.812   2.490   0.359 -0.8575  0.4856 -0.1165
 9726TIP3    H250670   4.831   2.390   0.247  1.0462  1.8479 -1.0516
 9727TIP3   OH250671   5.773   1.061  11.889  0.2065  0.2053 -0.1744
 9727TIP3    H150672   5.823   1.141  11.905 -1.5563  1.2256  0.4151
 9727TIP3    H250673   5.779   1.048  11.795  0.5488  1.0235 -0.2741
 9728TIP3   OH250674   0.833   5.894  11.443 -0.2606 -0.0227 -0.5444
 9728TIP3    H150675   0.763   5.877  11.380 -0.8640  0.7168 -0.0866
 9728TIP3    H250676   0.855   5.809  11.479 -0.2434 -0.3890 -1.4090
 9729TIP3   OH250677   4.847   5.334  10.774  0.1036 -0.1599  0.2164
 9729TIP3    H150678   4.853   5.381  10.691  1.2381 -0.3498  0.1811
 9729TIP3    H250679   4.862   5.243  10.752  0.7648 -0.1678  0.6742
 9730TIP3   OH250680   0.692   5.727  11.889 -0.6016 -0.8812  0.2147
 9730TIP3    H150681   0.713   5.691  11.803  0.2297  0.7326 -0.2754
 9730TIP3    H250682   0.728   5.664  11.951  0.1488 -1.2915 -0.6268
 9731TIP3   OH250683   5.443   4.261  16.600  0.0599  0.3213  0.2839
 9731TIP3    H150684   5.510   4.216  16.651 -1.0215 -1.1614  0.4111
 9731TIP3    H250685   5.393   4.311  16.665  0.9257  1.2920  0.2116
 9732TIP3   OH250686   4.471   6.790   0.716  0.2088 -0.0163 -0.0679
 9732TIP3    H150687   4.458   6.735   0.639  0.7927 -0.4358  0.1268
 9732TIP3    H250688   4.496   6.729   0.785 -0.9476  0.2833  0.6206
 9733TIP3   OH250689   5.945   5.596   2.176  0.3119  0.3298 -0.0670
 9733TIP3    H150690   5.915   5.562   2.092  0.3639 -1.6004  0.6761
 9733TIP3    H250691   6.037   5.568   2.182  0.6198  1.3550  0.1727
 9734TIP3   OH250692   3.633   4.268   0.111 -0.1854  0.0176  0.8219
 9734TIP3    H150693   3.700   4.265   0.178  1.5754 -0.3549 -0.9019
 9734TIP3    H250694   3.614   4.361   0.100  1.5964  0.2837 -0.1524
 9735TIP3   OH250695   2.997   0.513  13.524  0.5731  0.1721 -0.4398
 9735TIP3    H150696   2.942   0.473  13.456  2.5092  2.0118 -3.2111
 9735TIP3    H250697   3.055   0.442  13.552  0.1145 -0.4745 -1.1074
 9736TIP3   OH250698   1.212   1.979   2.401  0.1366 -0.4794 -0.0265
 9736TIP3    H150699   1.199   2.059   2.452 -1.6709 -0.2210 -0.8569
 9736TIP3    H250700   1.177   1.910   2.457  1.2303 -0.6558  0.4707
 9737TIP3   OH250701   0.592   4.041   4.622  0.2498  0.1632  0.7309
 9737TIP3    H150702   0.667   4.077   4.669  0.3908  0.5315  0.2249
 9737TIP3    H250703   0.540   3.997   4.689 -0.3376  1.9977  1.4983
 9738TIP3   OH250704   5.565   1.554   1.374 -0.3364  0.7438 -0.1411
 9738TIP3    H150705   5.649   1.595   1.396 -0.7256  0.3247  2.2274
 9738TIP3    H250706   5.569   1.542   1.279  2.2878  0.7348 -0.0764
 9739TIP3   OH250707   0.817   5.140  13.154 -0.8972 -0.4507  0.6436
 9739TIP3    H150708   0.757   5.159  13.082  1.3625  1.0520 -0.9291
 9739TIP3    H250709   0.870   5.067  13.121 -1.1744 -1.0720  1.5834
 9740TIP3   OH250710   5.969   3.268  11.009 -0.0934  0.5520 -0.5220
 9740TIP3    H150711   5.963   3.227  10.923 -0.3595 -1.9264  0.6407
 9740TIP3    H250712   5.896   3.329  11.012 -0.5629  0.0578 -1.7500
 9741TIP3   OH250713   4.041   6.391   2.094 -0.4321 -0.2839 -0.7102
 9741TIP3    H150714   4.102   6.443   2.147 -1.7588  0.3457  0.2450
 9741TIP3    H250715   4.083   6.306   2.085  0.6855  0.2151 -0.2419
 9742TIP3   OH250716   5.933   3.686  16.437 -0.5675 -0.0512 -0.7934
 9742TIP3    H150717   5.956   3.731  16.518  0.7321  0.1083 -1.2244
 9742TIP3    H250718   5.989   3.608  16.437 -0.1874  0.2097 -1.7599
 9743TIP3   OH250719   3.509   3.818  13.969  0.4131 -0.7641 -0.1525
 9743TIP3    H150720   3.569   3.868  14.024 -0.0899  0.6789 -0.8995
 9743TIP3    H250721   3.542   3.830  13.880 -1.2984  0.5032 -0.6328
 9744TIP3   OH250722   1.033   5.438  15.957 -0.0175  0.3115 -0.7189
 9744TIP3    H150723   1.086   5.365  15.925 -0.9440  0.2416 -2.1478
 9744TIP3    H250724   1.010   5.414  16.046  2.5648  0.4729  0.0132
 9745TIP3   OH250725   6.100   1.739   1.010  0.2701  0.0266 -0.1767
 9745TIP3    H150726   6.102   1.758   1.103  0.4882  0.7626 -0.3323
 9745TIP3    H250727   6.191   1.724   0.986  0.2677  0.3451 -0.3808
 9746TIP3   OH250728   0.288   5.052   2.196 -0.3315  0.3131 -0.2832
 9746TIP3    H150729   0.332   4.974   2.160 -0.7792  0.1940 -0.5745
 9746TIP3    H250730   0.199   5.022   2.215 -0.5590  0.8114 -0.5745
 9747TIP3   OH250731   2.985   5.766  12.587  0.1246 -0.0864  0.1881
 9747TIP3    H150732   2.912   5.727  12.637  1.7625 -1.0281  1.9052
 9747TIP3    H250733   2.946   5.843  12.545 -2.3658 -1.7073 -0.5888
 9748TIP3   OH250734   2.805   2.411  15.753  0.1057  0.2312 -0.5311
 9748TIP3    H150735   2.895   2.415  15.720  0.6845  1.1904  1.0785
 9748TIP3    H250736   2.810   2.358  15.833 -0.4431  1.6274  0.4614
 9749TIP3   OH250737   4.592   0.824   2.171  0.2340 -0.6148  0.0463
 9749TIP3    H150738   4.640   0.744   2.150  0.1854 -0.5684 -0.2508
 9749TIP3    H250739   4.571   0.862   2.086  0.5303 -0.1245  0.1878
 9750TIP3   OH250740   5.071   2.406  16.624 -0.1166  0.1757  0.5424
 9750TIP3    H150741   5.016   2.396  16.547 -0.5656 -0.0471  0.8948
 9750TIP3    H250742   5.161   2.397  16.590 -0.3081  0.1139  0.0461
 9751TIP3   OH250743   3.828   6.419  15.737  0.1536 -0.2397 -0.5720
 9751TIP3    H150744   3.858   6.415  15.828  0.3107  2.2063 -0.4756
 9751TIP3    H250745   3.901   6.383  15.687  0.3258 -1.0046  0.2130
 9752TIP3   OH250746   2.712   5.926   0.135  0.6791 -0.7978 -0.5360
 9752TIP3    H150747   2.643   5.861   0.119  2.2484 -2.6400  0.0152
 9752TIP3    H250748   2.772   5.915   0.062  1.1052 -0.1526 -0.2841
 9753TIP3   OH250749   1.027   0.800   1.140  0.2999 -0.0276 -0.2451
 9753TIP3    H150750   1.040   0.706   1.132 -2.7756 -0.4461 -0.5718
 9753TIP3    H250751   1.047   0.819   1.232  3.1256 -0.5605 -0.6865
 9754TIP3   OH250752   5.704   3.839  11.652  0.1693 -0.0200 -0.0365
 9754TIP3    H150753   5.735   3.856  11.741 -1.4768 -1.5251  0.8521
 9754TIP3    H250754   5.706   3.924  11.609 -0.9317  1.0956  2.0505
 9755TIP3   OH250755   3.715   5.488  14.842 -0.2607 -0.5241  0.1583
 9755TIP3    H150756   3.765   5.407  14.837 -0.8451 -1.0585  2.3437
 9755TIP3    H250757   3.627   5.464  14.810 -0.0436 -0.3778 -0.5689
 9756TIP3   OH250758   5.248   6.706   0.016 -0.3020 -0.2448  0.0430
 9756TIP3    H150759   5.302   6.737   0.089  0.0722 -0.1344 -0.2776
 9756TIP3    H250760   5.311   6.671  -0.047 -0.7643 -2.3263  0.7044
 9757TIP3   OH250761   2.674   4.868   1.184  0.6902  0.1360 -0.1235
 9757TIP3    H150762   2.606   4.830   1.240 -0.7723 -1.0029 -2.5991
 9757TIP3    H250763   2.646   4.958   1.171  0.2890  0.0079 -0.1608
 9758TIP3   OH250764   1.602   5.639  11.338  0.8207  0.7798  0.0072
 9758TIP3    H150765   1.697   5.641  11.349  0.4491  0.1262  3.8638
 9758TIP3    H250766   1.567   5.616  11.424 -2.8863  1.6481 -1.1308
 9759TIP3   OH250767   1.798   1.057   4.654 -0.2105 -0.1495 -0.0362
 9759TIP3    H150768   1.757   1.140   4.674  0.0342  0.4630 -1.9332
 9759TIP3    H250769   1.867   1.047   4.720  0.0279  1.3537 -0.0450
 9760TIP3   OH250770   1.785   2.307   5.899  0.3349 -0.6239  0.2001
 9760TIP3    H150771   1.812   2.216   5.884 -0.2243 -0.7061 -0.3418
 9760TIP3    H250772   1.867   2.355   5.911  0.6153 -1.2925  1.0310
 9761TIP3   OH250773   2.888   4.866  14.231  0.7920  0.0540 -0.3134
 9761TIP3    H150774   2.927   4.784  14.260 -3.5285 -2.1519 -0.2854
 9761TIP3    H250775   2.879   4.918  14.311 -1.6535 -1.8466  0.7137
 9762TIP3   OH250776   5.302   5.061  13.328  0.2196  0.1119 -0.1194
 9762TIP3    H150777   5.225   5.101  13.369  1.3940 -0.7412  3.1523
 9762TIP3    H250778   5.279   4.968  13.319  0.5908 -0.0283  0.3041
 9763TIP3   OH250779   5.301   6.491   1.764  0.4248  0.2252 -0.3694
 9763TIP3    H150780   5.276   6.583   1.758  1.6385  0.6131  0.3963
 9763TIP3    H250781   5.393   6.489   1.738  1.0623 -0.4429  1.8904
 9764TIP3   OH250782   6.230   2.966  15.239 -1.1486  0.2716 -0.2918
 9764TIP3    H150783   6.168   2.927  15.176  1.5304 -1.7618 -1.7872
 9764TIP3    H250784   6.258   3.047  15.197 -0.6979 -0.2138 -0.9496
 9765TIP3   OH250785   4.773   3.525  12.924  0.2739 -0.3277  0.1643
 9765TIP3    H150786   4.683   3.553  12.939  0.5496 -0.1245  1.4815
 9765TIP3    H250787   4.827   3.591  12.969  1.0329 -1.1712  0.5114
 9766TIP3   OH250788   5.966   3.249   0.320 -0.2139 -0.2853  0.1409
 9766TIP3    H150789   5.893   3.207   0.366  0.5489 -0.4039  1.2759
 9766TIP3    H250790   5.942   3.244   0.228 -0.2838 -3.0030  0.2408
 9767TIP3   OH250791   5.160   6.182   5.586  0.0708  0.3688 -0.1960
 9767TIP3    H150792   5.174   6.235   5.664 -1.6965 -1.2001  1.2226
 9767TIP3    H250793   5.198   6.097   5.607  0.2456  0.1631 -1.3230
 9768TIP3   OH250794   6.094   2.874   1.718  0.5076 -0.2135 -0.4680
 9768TIP3    H150795   6.135   2.800   1.673 -0.3342 -0.4411 -0.8554
 9768TIP3    H250796   6.099   2.946   1.655 -0.2176 -0.3968 -0.7310
 9769TIP3   OH250797   2.420   5.755   0.885 -0.1600  0.5069 -0.1284
 9769TIP3    H150798   2.456   5.833   0.843 -0.5256  1.0317  0.5403
 9769TIP3    H250799   2.403   5.781   0.975 -1.3581  0.0011 -0.1951
 9770TIP3   OH250800   0.905   0.591  13.309  0.4264  0.0205  0.2829
 9770TIP3    H150801   0.812   0.571  13.303  0.3560  0.6695 -0.7421
 9770TIP3    H250802   0.939   0.525  13.370 -0.5442 -0.7164  0.0368
 9771TIP3   OH250803   3.489   2.495  16.460  0.2673 -0.3428  0.1963
 9771TIP3    H150804   3.523   2.584  16.458  0.8372 -0.5622  0.0698
 9771TIP3    H250805   3.566   2.439  16.469  0.0622 -0.9280 -1.5158
 9772TIP3   OH250806   5.337   2.450   2.684 -0.0722  0.0147 -0.2312
 9772TIP3    H150807   5.417   2.495   2.658 -1.1060 -0.6948 -5.2164
 9772TIP3    H250808   5.366   2.360   2.702  0.3581 -0.1946 -1.8291
 9773TIP3   OH250809   5.426   3.301  16.568  0.1055  0.0343 -0.0383
 9773TIP3    H150810   5.457   3.312  16.658  2.1822  0.3676 -0.7691
 9773TIP3    H250811   5.375   3.220  16.571  1.8180 -1.0603  1.0494
 9774TIP3   OH250812   0.440   5.782  12.531 -0.0462 -0.7396  0.3733
 9774TIP3    H150813   0.431   5.770  12.436  1.6384 -1.8818  0.3330
 9774TIP3    H250814   0.444   5.693  12.566  0.6060 -0.3297  1.3699
 9775TIP3   OH250815   1.473   4.830  16.929  0.4273  0.2133  0.4565
 9775TIP3    H150816   1.500   4.917  16.956 -0.9532  1.5120 -2.1875
 9775TIP3    H250817   1.382   4.823  16.957  0.1961  0.0562 -0.3338
 9776TIP3   OH250818   1.169   0.250  16.725 -0.6868  0.0478 -0.3029
 9776TIP3    H150819   1.166   0.292  16.639 -1.0750 -0.5876 -0.5996
 9776TIP3    H250820   1.087   0.276  16.767 -1.1570 -0.8188 -0.6792
 9777TIP3   OH250821   0.191   2.415   5.597  0.0674 -0.3043  0.1559
 9777TIP3    H150822   0.109   2.390   5.554 -0.5235 -1.0456  1.6427
 9777TIP3    H250823   0.198   2.509   5.582 -1.7281  0.0011  1.0466
 9778TIP3   OH250824   2.967   2.719  13.609  0.0873  0.0403 -0.0610
 9778TIP3    H150825   2.963   2.655  13.537  0.1565  0.7300 -0.6750
 9778TIP3    H250826   3.048   2.697  13.655  1.2948  1.1050 -1.6148
 9779TIP3   OH250827   6.521   0.656   2.611 -0.1832 -0.0846  0.0902
 9779TIP3    H150828   6.612   0.630   2.622 -0.3942 -0.0896  2.0602
 9779TIP3    H250829   6.524   0.750   2.593  0.1073  0.5014  2.9619
 9780TIP3   OH250830   1.265   1.816   4.841 -0.1305 -0.2484 -0.1747
 9780TIP3    H150831   1.249   1.862   4.759  2.5171 -1.0085 -1.1704
 9780TIP3    H250832   1.262   1.884   4.908 -1.5778  0.4991 -0.9692
 9781TIP3   OH250833   5.395   0.887  15.920  0.2697 -0.2979  0.4638
 9781TIP3    H150834   5.426   0.976  15.900 -0.1791  0.0096  1.1392
 9781TIP3    H250835   5.468   0.848  15.969  0.3851 -0.2371  0.3420
 9782TIP3   OH250836   1.891   2.407   4.420 -0.3158  0.3744  0.2894
 9782TIP3    H150837   1.924   2.455   4.496  2.1115 -1.3326  0.3500
 9782TIP3    H250838   1.966   2.398   4.362 -1.1563 -1.8177 -0.5139
 9783TIP3   OH250839   2.990   6.623   1.064 -0.4569 -0.3990  0.1979
 9783TIP3    H150840   3.065   6.636   1.007 -1.0121 -0.2807 -0.5092
 9783TIP3    H250841   2.925   6.580   1.009 -2.1699  2.5510 -0.1490
 9784TIP3   OH250842   4.284   1.143   5.981 -0.2191  0.2385  0.5045
 9784TIP3    H150843   4.339   1.133   6.059 -0.0457  0.4954  0.4169
 9784TIP3    H250844   4.194   1.134   6.014 -0.1777  1.0349  0.8525
 9785TIP3   OH250845   0.652   3.297  13.343 -0.0003  0.2377 -0.5229
 9785TIP3    H150846   0.690   3.229  13.400  0.0183 -0.4718 -1.3729
 9785TIP3    H250847   0.600   3.248  13.279 -1.4936  1.1352 -0.0237
 9786TIP3   OH250848   3.039   1.102   1.046 -0.6776  0.4042 -0.6351
 9786TIP3    H150849   2.978   1.126   0.976 -0.8194  2.8466  0.2649
 9786TIP3    H250850   3.028   1.171   1.111  0.6065 -0.9757  1.0826
 9787TIP3   OH250851   2.208   2.896  16.898  0.2585 -0.2697  0.5843
 9787TIP3    H150852   2.222   2.876  16.805 -0.2764 -0.1306  0.4744
 9787TIP3    H250853   2.256   2.977  16.912  2.3102 -1.5195  0.9854
 9788TIP3   OH250854   3.915   0.933   6.553  0.0226  0.6525  0.6793
 9788TIP3    H150855   3.852   0.963   6.619  0.4537  0.7456  1.0506
 9788TIP3    H250856   3.997   0.923   6.601 -0.1452 -1.2599  0.6143
 9789TIP3   OH250857   5.344   3.097  16.998 -0.4037  0.0076  0.5407
 9789TIP3    H150858   5.253   3.068  16.991 -0.1480 -0.5330 -0.5884
 9789TIP3    H250859   5.394   3.015  17.005  0.0338  0.2939  0.7653
 9790TIP3   OH250860   5.316   3.397  12.984  0.7988  0.1081  0.3955
 9790TIP3    H150861   5.403   3.401  12.944 -0.5855 -0.4567 -2.8449
 9790TIP3    H250862   5.294   3.304  12.986 -0.3400  0.3502 -0.2433
 9791TIP3   OH250863   0.278   2.313   3.240 -0.0720 -0.1337 -0.4458
 9791TIP3    H150864   0.274   2.406   3.220 -0.9630 -0.2941 -1.0521
 9791TIP3    H250865   0.187   2.283   3.235  0.0933 -0.8562  0.6191
 9792TIP3   OH250866   1.019   3.751  12.012  0.1579  0.4641 -0.9791
 9792TIP3    H150867   1.105   3.745  12.055 -0.8271  1.8314  1.3064
 9792TIP3    H250868   0.970   3.677  12.046 -0.7841  1.8187  0.6948
 9793TIP3   OH250869   0.156   2.424   4.520 -0.1586  0.1421 -0.6498
 9793TIP3    H150870   0.242   2.461   4.539 -0.3089  0.0683  0.1876
 9793TIP3    H250871   0.169   2.372   4.441  1.0998 -1.7336  0.7355
 9794TIP3   OH250872   6.385   5.346  14.905 -0.3342 -0.4058  0.6260
 9794TIP3    H150873   6.402   5.339  14.811  0.3935 -1.2631  0.8131
 9794TIP3    H250874   6.338   5.429  14.915  1.0025  0.4875 -0.3055
 9795TIP3   OH250875   3.238   2.129   3.455  0.0401 -0.4996  0.1327
 9795TIP3    H150876   3.244   2.070   3.530 -0.7076 -2.0395 -0.9982
 9795TIP3    H250877   3.325   2.169   3.450  0.0419 -0.2151  1.9221
 9796TIP3   OH250878   0.408   6.299   0.067  0.2866  0.3652 -0.2691
 9796TIP3    H150879   0.368   6.213   0.050  1.0492 -0.0135 -0.1555
 9796TIP3    H250880   0.500   6.280   0.083  0.3581  1.1550  0.2752
 9797TIP3   OH250881   2.918   5.826  15.199 -0.0726 -0.3033  0.3990
 9797TIP3    H150882   2.872   5.795  15.121  0.3174  0.5325 -0.1699
 9797TIP3    H250883   2.982   5.757  15.218 -0.0508 -0.4348 -0.1304
 9798TIP3   OH250884   6.788   6.744  12.343  0.2217  0.3820 -0.3104
 9798TIP3    H150885   6.848   6.806  12.383 -0.4155  0.7347  0.0990
 9798TIP3    H250886   6.782   6.772  12.251  0.7830  0.2663 -0.3821
 9799TIP3   OH250887   2.372   1.470  12.960 -0.1017  0.2585 -0.0407
 9799TIP3    H150888   2.396   1.550  12.912  0.4809 -0.0500 -0.2708
 9799TIP3    H250889   2.414   1.400  12.911  0.9837 -0.0140  1.2571
 9800TIP3   OH250890   2.561   2.222   3.045  0.0003  0.2086 -0.0103
 9800TIP3    H150891   2.499   2.295   3.042  1.9066  1.9184  0.8837
 9800TIP3    H250892   2.553   2.180   2.960 -2.9398 -0.1054  0.3708
 9801TIP3   OH250893   2.236   0.953   3.674 -0.6120 -0.1764 -0.1418
 9801TIP3    H150894   2.222   0.990   3.761 -3.3187  0.5126 -0.8203
 9801TIP3    H250895   2.272   1.025   3.622 -1.5764  0.2108 -0.2827
 9802TIP3   OH250896   4.878   2.688  14.233  0.7528  0.0711  0.3886
 9802TIP3    H150897   4.912   2.636  14.305 -0.0084 -0.0285  0.6832
 9802TIP3    H250898   4.950   2.693  14.170  1.4388  0.1989  1.1754
 9803TIP3   OH250899   0.419   2.923   1.592  0.2902 -0.3194 -0.5224
 9803TIP3    H150900   0.338   2.919   1.641  1.5207  0.1034  1.5950
 9803TIP3    H250901   0.410   3.000   1.537 -1.7651 -1.7103 -2.2307
 9804TIP3   OH250902   2.693   3.258  14.289  0.3921  0.6150  0.1864
 9804TIP3    H150903   2.759   3.205  14.244 -0.5832  1.6658 -2.5766
 9804TIP3    H250904   2.667   3.204  14.364 -1.1947 -3.3095 -2.9594
 9805TIP3   OH250905   4.351   4.826   1.379  0.5628  0.5859  0.4266
 9805TIP3    H150906   4.361   4.919   1.362  2.3829  0.2286 -0.5331
 9805TIP3    H250907   4.440   4.794   1.396  0.0096 -1.0388  0.4278
 9806TIP3   OH250908   5.265   0.677  16.500  0.1462 -0.1633 -0.2869
 9806TIP3    H150909   5.246   0.633  16.417  0.1050  0.1745 -0.4561
 9806TIP3    H250910   5.193   0.650  16.557  0.4463 -0.8029 -0.2026
 9807TIP3   OH250911   3.786   1.393  14.889  0.1709  0.0712 -0.4852
 9807TIP3    H150912   3.792   1.464  14.952  1.6386 -1.9973  1.8006
 9807TIP3    H250913   3.866   1.400  14.837 -0.0340  0.5077 -0.7437
 9808TIP3   OH250914   1.097   3.051  12.140  0.5083  0.0098  0.3164
 9808TIP3    H150915   1.042   3.039  12.218  2.3906  2.7050  2.1600
 9808TIP3    H250916   1.144   2.968  12.131 -0.0043 -0.4635  1.8524
 9809TIP3   OH250917   0.027   3.343  15.494  0.4286  0.2362 -0.3535
 9809TIP3    H150918   0.083   3.396  15.551  0.9429 -1.7770  1.0473
 9809TIP3    H250919  -0.054   3.394  15.488  0.4473  0.6064  1.9946
 9810TIP3   OH250920   0.379   5.046  12.068  0.1153 -0.1249 -0.2513
 9810TIP3    H150921   0.363   5.086  12.154 -0.0278  2.0757 -1.2818
 9810TIP3    H250922   0.391   5.120  12.009  0.6364 -1.6355 -2.0635
 9811TIP3   OH250923   6.686   6.812   0.112  0.2219 -0.0833 -0.1480
 9811TIP3    H150924   6.778   6.820   0.087  0.1116 -0.0070 -0.5363
 9811TIP3    H250925   6.640   6.869   0.050 -0.2600 -1.3501 -0.9686
 9812TIP3   OH250926   1.814   3.769   3.452  0.3732 -0.9658 -0.2958
 9812TIP3    H150927   1.855   3.683   3.443  0.0992 -1.1606  0.2598
 9812TIP3    H250928   1.797   3.777   3.546 -1.0134 -0.9588 -0.5418
 9813TIP3   OH250929   2.646   6.682  16.206  0.3089 -0.2929  0.0987
 9813TIP3    H150930   2.627   6.590  16.226  2.0446 -0.3228  1.8271
 9813TIP3    H250931   2.574   6.731  16.245 -0.7626 -0.9223 -1.0581
 9814TIP3   OH250932   0.950   5.980  17.227 -0.4010 -0.4018  0.0735
 9814TIP3    H150933   1.000   6.034  17.166 -0.6540 -0.2498 -0.0011
 9814TIP3    H250934   0.964   6.021  17.313 -0.4101 -0.3521  0.0503
 9815TIP3   OH250935   0.157   1.616   0.718 -0.9939  0.1344 -0.1915
 9815TIP3    H150936   0.159   1.705   0.684 -1.3047 -0.4203 -1.7186
 9815TIP3    H250937   0.239   1.606   0.765 -1.3399  1.5033  0.7282
 9816TIP3   OH250938   5.630   1.040  16.527  0.1554  0.5419  0.4767
 9816TIP3    H150939   5.543   1.009  16.502  0.0942 -0.0078  1.3477
 9816TIP3    H250940   5.688   1.005  16.460  0.1085 -1.6450  1.5295
 9817TIP3   OH250941   5.622   1.858   5.522  0.0600  0.3159 -0.1374
 9817TIP3    H150942   5.564   1.840   5.448 -1.7845  0.3729  1.2667
 9817TIP3    H250943   5.667   1.775   5.537 -0.0614  0.1095 -0.8816
 9818TIP3   OH250944   4.584   1.929   1.335 -0.5325 -0.0689  0.2294
 9818TIP3    H150945   4.511   1.991   1.333 -0.8888 -0.4223  1.5563
 9818TIP3    H250946   4.635   1.955   1.412  1.4699  0.9755 -1.4090
 9819TIP3   OH250947   2.464   2.281  11.304 -0.3289  0.2800 -0.1970
 9819TIP3    H150948   2.484   2.190  11.325 -0.4659  0.4207  0.5772
 9819TIP3    H250949   2.492   2.330  11.382 -0.4749  0.8704 -0.5131
 9820TIP3   OH250950   4.648   5.998   0.895 -0.1322  0.2298  0.0694
 9820TIP3    H150951   4.628   5.980   0.987 -1.8894  2.2795  0.1067
 9820TIP3    H250952   4.567   5.981   0.848  0.5252 -0.0171 -1.0024
 9821TIP3   OH250953   0.698   5.193   0.962 -0.2234 -0.7947  0.0233
 9821TIP3    H150954   0.728   5.229   1.045 -1.1613  0.3998 -0.1483
 9821TIP3    H250955   0.740   5.247   0.895  0.4458 -1.6868 -0.2964
 9822TIP3   OH250956   4.415   6.355  15.603 -0.1665  0.1997  0.2163
 9822TIP3    H150957   4.460   6.385  15.524  1.2777 -0.2412  0.8527
 9822TIP3    H250958   4.373   6.273  15.577  0.9662 -0.3581  0.0957
 9823TIP3   OH250959   3.252   4.010   0.981  0.0771  0.1935 -0.0164
 9823TIP3    H150960   3.263   3.969   1.067 -1.4920  0.5208  0.3589
 9823TIP3    H250961   3.276   4.101   0.995 -0.1015  0.2297  0.0551
 9824TIP3   OH250962   1.521   1.530  12.873 -0.0631  0.3716  0.1066
 9824TIP3    H150963   1.602   1.492  12.840 -1.2929 -0.8799 -1.5957
 9824TIP3    H250964   1.509   1.491  12.959  1.8881  1.7236  1.0257
 9825TIP3   OH250965   0.619   3.211   0.135 -0.4839 -0.3230  0.4211
 9825TIP3    H150966   0.637   3.138   0.195  0.0395 -0.6301 -0.1020
 9825TIP3    H250967   0.620   3.171   0.048  0.7014  0.4671  0.0580
 9826TIP3   OH250968   5.280   6.793  14.951 -0.5021 -0.6546  0.2418
 9826TIP3    H150969   5.212   6.778  14.886  0.1756  1.5356 -1.0488
 9826TIP3    H250970   5.360   6.804  14.900  0.2101  0.1844  1.5054
 9827TIP3   OH250971   2.925   6.538   4.120 -0.0016  0.1683 -0.0908
 9827TIP3    H150972   2.937   6.507   4.209 -1.8612 -2.4486 -0.6848
 9827TIP3    H250973   2.910   6.459   4.068 -2.0686  1.8322 -2.1938
 9828TIP3   OH250974   3.197   6.100   1.577  0.3087  0.5872 -0.2773
 9828TIP3    H150975   3.274   6.080   1.523 -0.8803 -1.3897 -1.2816
 9828TIP3    H250976   3.138   6.147   1.518  0.0137  0.5423 -0.0185
 9829TIP3   OH250977   1.076   0.598  11.871  0.8211  0.8879 -0.0808
 9829TIP3    H150978   0.986   0.628  11.867  0.6538  0.1639 -2.7048
 9829TIP3    H250979   1.126   0.666  11.827  1.1766 -0.0056 -1.0808
 9830TIP3   OH250980   3.411   3.576   5.501  0.6816 -0.2632  0.0372
 9830TIP3    H150981   3.372   3.492   5.476 -2.2529  0.9794  0.3132
 9830TIP3    H250982   3.473   3.595   5.430 -2.3449 -0.2023 -2.7153
 9831TIP3   OH250983   4.979   5.463  14.801  0.0175 -0.0764 -0.0881
 9831TIP3    H150984   5.025   5.426  14.725  1.1417  0.9322  0.0894
 9831TIP3    H250985   4.914   5.396  14.824  0.7916 -1.1320 -0.9033
 9832TIP3   OH250986   2.572   2.544   2.066 -0.1985  0.2628 -0.4161
 9832TIP3    H150987   2.637   2.567   1.999  1.0777 -0.0990  0.6685
 9832TIP3    H250988   2.547   2.454   2.043  0.4132  0.0517 -0.2781
 9833TIP3   OH250989   1.942   0.756  11.094 -0.6566 -0.3977  0.2595
 9833TIP3    H150990   1.901   0.670  11.097  1.1220 -1.2396  1.2947
 9833TIP3    H250991   1.948   0.782  11.186 -1.1671  0.8353 -0.0498
 9834TIP3   OH250992   5.356   6.631  14.676  0.8106  0.2216 -0.3459
 9834TIP3    H150993   5.363   6.702  14.612 -0.6719  3.5018  2.9387
 9834TIP3    H250994   5.267   6.597  14.663 -0.2101  2.1787  1.1187
 9835TIP3   OH250995   0.604   6.491  14.074 -0.1120 -0.2873 -0.4979
 9835TIP3    H150996   0.622   6.553  14.145  1.1578 -1.2040  0.0001
 9835TIP3    H250997   0.646   6.410  14.102  1.5652 -0.3091 -2.8848
 9836TIP3   OH250998   4.049   2.903   3.637  0.3966  0.2204  0.2178
 9836TIP3    H150999   4.009   2.838   3.579 -0.2107  0.0785  0.7913
 9836TIP3    H251000   4.043   2.985   3.588  0.1833  0.0417 -0.0585
 9837TIP3   OH251001   5.244   3.882  12.210 -0.4244  0.0060 -0.4220
 9837TIP3    H151002   5.310   3.943  12.242  0.0013 -0.0361 -1.1979
 9837TIP3    H251003   5.228   3.822  12.283  0.8765 -0.3853 -0.4444
 9838TIP3   OH251004   4.629   2.427  12.809 -0.0781  0.0741  0.1329
 9838TIP3    H151005   4.719   2.439  12.840 -0.6820 -1.4235  2.6317
 9838TIP3    H251006   4.593   2.515  12.805  0.9926  0.5520  0.7689
 9839TIP3   OH251007   4.370   6.485  13.410 -0.0993 -0.0993  0.0686
 9839TIP3    H151008   4.311   6.519  13.478  0.7757 -0.2710  0.9159
 9839TIP3    H251009   4.450   6.463  13.456  0.5799 -0.0305 -1.0625
 9840TIP3   OH251010   3.847   4.935   2.622  0.3662  0.2344  0.1847
 9840TIP3    H151011   3.906   4.923   2.548 -0.0848 -0.5717 -0.0543
 9840TIP3    H251012   3.893   4.898   2.697  0.2185 -0.2722  0.0243
 9841TIP3   OH251013   0.265   1.052  11.625  0.0803 -0.3266  0.3274
 9841TIP3    H151014   0.201   1.068  11.693 -1.6134 -0.4165 -1.1927
 9841TIP3    H251015   0.236   1.106  11.551  2.1007  0.1044 -0.1722
 9842TIP3   OH251016   1.567   4.181   1.624 -0.3950 -0.6687  0.0276
 9842TIP3    H151017   1.526   4.252   1.674 -0.8415  0.4099 -1.8114
 9842TIP3    H251018   1.638   4.150   1.680 -0.5787  0.8230  1.1295
 9843TIP3   OH251019   1.041   4.828  12.182 -0.0233  0.8720  0.1114
 9843TIP3    H151020   0.977   4.892  12.153  0.5420  0.6386 -1.7343
 9843TIP3    H251021   1.122   4.878  12.194  0.0830  0.7296 -0.0094
 9844TIP3   OH251022   2.503   0.655   6.160 -0.0247  0.2828 -0.3669
 9844TIP3    H151023   2.467   0.576   6.201 -0.0634  0.1126 -0.7226
 9844TIP3    H251024   2.484   0.725   6.222  1.7831 -0.3018  0.8821
 9845TIP3   OH251025   1.175   2.366  10.652  0.0206 -0.5385  0.5363
 9845TIP3    H151026   1.248   2.362  10.713 -0.2834  0.8415  1.0015
 9845TIP3    H251027   1.136   2.279  10.656  0.6635 -0.7936  1.4822
 9846TIP3   OH251028   2.831   2.599   1.376 -0.0632  0.0694 -0.4728
 9846TIP3    H151029   2.776   2.522   1.369  2.4891 -1.7688 -1.0228
 9846TIP3    H251030   2.836   2.634   1.287  0.6016 -0.4770 -0.6585
 9847TIP3   OH251031   4.546   2.796   4.242  0.0179 -0.1078  0.3772
 9847TIP3    H151032   4.500   2.855   4.301 -0.2478 -0.1139  0.1778
 9847TIP3    H251033   4.532   2.834   4.155  0.1579 -0.2585  0.2887
 9848TIP3   OH251034   0.222   1.388  15.617 -0.1015  0.5550 -0.0749
 9848TIP3    H151035   0.154   1.337  15.661 -0.8923  0.7077 -1.1094
 9848TIP3    H251036   0.294   1.391  15.680 -0.9707  0.2157  0.9447
 9849TIP3   OH251037   6.731   0.830  16.686  0.4267  0.2991  0.1484
 9849TIP3    H151038   6.810   0.796  16.643  1.6190 -0.9713  3.1824
 9849TIP3    H251039   6.724   0.779  16.767 -2.4128  1.7554  0.8782
 9850TIP3   OH251040   3.444   6.083   4.795 -0.2400  0.2331  0.0703
 9850TIP3    H151041   3.475   6.171   4.773 -1.7201  0.8674  0.4189
 9850TIP3    H251042   3.460   6.032   4.716  1.7546  0.5018  0.2920
 9851TIP3   OH251043   3.733   1.325   3.902  0.1610 -0.1235 -0.1239
 9851TIP3    H151044   3.785   1.255   3.862  0.7204 -0.0580  0.4745
 9851TIP3    H251045   3.681   1.281   3.969  0.8292  0.0958  0.5427
 9852TIP3   OH251046   5.994   0.054  13.889 -0.6369  0.1876  0.2234
 9852TIP3    H151047   5.913   0.050  13.838  0.3379  0.1687 -1.3736
 9852TIP3    H251048   5.967   0.035  13.979 -2.3576 -0.0806 -0.3295
 9853TIP3   OH251049   4.117   5.188  11.408  0.5492  0.0556 -0.2773
 9853TIP3    H151050   4.119   5.270  11.457  0.2364  0.2158 -0.5337
 9853TIP3    H251051   4.149   5.122  11.470  1.3106  0.4540 -0.2398
 9854TIP3   OH251052   3.731   6.675  14.510 -0.0110 -1.0578 -0.1630
 9854TIP3    H151053   3.812   6.721  14.488 -0.3469  0.4339  1.5655
 9854TIP3    H251054   3.678   6.679  14.430 -0.4552  2.5238  0.2465
 9855TIP3   OH251055   0.782   3.372  15.927  0.2723  0.6455 -0.0089
 9855TIP3    H151056   0.825   3.452  15.896 -0.5634  1.2392  0.3345
 9855TIP3    H251057   0.691   3.398  15.940 -0.5087 -0.9405 -2.0228
 9856TIP3   OH251058   4.425   2.406  11.877 -0.6192  0.7357  0.0680
 9856TIP3    H151059   4.349   2.464  11.868  0.8061  2.6819  0.3687
 9856TIP3    H251060   4.497   2.455  11.839  0.5895 -0.9083  0.2172
 9857TIP3   OH251061   5.149   3.412  13.193  0.1566 -0.3105  0.1194
 9857TIP3    H151062   5.233   3.402  13.150  0.5315  2.3390  0.1525
 9857TIP3    H251063   5.084   3.405  13.123  0.5659  0.3865 -0.3298
 9858TIP3   OH251064   0.290   0.791  15.827  0.4773  0.3126 -0.5544
 9858TIP3    H151065   0.335   0.817  15.747  0.3056 -0.8569 -1.0480
 9858TIP3    H251066   0.346   0.724  15.865  0.1149  0.2253 -0.1705
 9859TIP3   OH251067   1.059   0.836   1.413  0.1943 -0.0522 -0.1140
 9859TIP3    H151068   0.971   0.873   1.407  1.0356  1.9319 -0.3495
 9859TIP3    H251069   1.081   0.841   1.506  1.0202  1.7705 -0.3851
 9860TIP3   OH251070   0.312   6.395  15.638 -0.1011  0.6569  0.9797
 9860TIP3    H151071   0.399   6.430  15.656  0.6239 -1.0738  0.9876
 9860TIP3    H251072   0.274   6.456  15.575  2.3369 -0.2154 -1.4395
 9861TIP3   OH251073   0.464   3.609   2.058  0.6230  0.3886  0.6906
 9861TIP3    H151074   0.543   3.634   2.010  0.4180 -0.7210 -0.2516
 9861TIP3    H251075   0.408   3.568   1.992 -0.1987  0.0015  1.6196
 9862TIP3   OH251076   0.912   0.028   4.404 -0.3766  0.0524  0.1366
 9862TIP3    H151077   0.964  -0.022   4.341  0.3239 -0.3719  1.0484
 9862TIP3    H251078   0.880   0.103   4.354  0.5141 -0.0643 -0.6250
 9863TIP3   OH251079   4.889   5.104   5.692  0.1543  0.2176  0.0721
 9863TIP3    H151080   4.913   5.082   5.781 -0.6469 -0.2457  0.1804
 9863TIP3    H251081   4.969   5.093   5.641  0.8159  1.2836  0.8688
 9864TIP3   OH251082   0.215   5.522  16.227  0.6758  0.4243  0.2552
 9864TIP3    H151083   0.168   5.524  16.310  0.5790  0.6981  0.1922
 9864TIP3    H251084   0.263   5.604  16.224 -1.5321  1.7168 -1.2247
 9865TIP3   OH251085   3.999   1.642   4.223  0.1648 -0.5518  0.2320
 9865TIP3    H151086   4.044   1.663   4.305 -1.2437  1.8420  0.4458
 9865TIP3    H251087   3.922   1.593   4.249 -0.9174  1.2413  0.4756
 9866TIP3   OH251088   5.739   6.818  14.246 -0.0911 -0.3572  0.5074
 9866TIP3    H151089   5.820   6.811  14.298  1.4769  1.6632 -1.5412
 9866TIP3    H251090   5.670   6.790  14.305  1.9092 -0.3823  2.9226
 9867TIP3   OH251091   2.277   2.405  15.492 -0.1574  0.1954  0.4018
 9867TIP3    H151092   2.303   2.497  15.485  0.8033 -0.0133  1.2324
 9867TIP3    H251093   2.290   2.383  15.585  0.8979 -1.1540 -0.0482
 9868TIP3   OH251094   6.093   5.931  13.743  0.8063  0.5127 -0.1820
 9868TIP3    H151095   6.061   5.983  13.670 -0.0449  1.6646  0.9756
 9868TIP3    H251096   6.013   5.898  13.785  1.2516  0.6069  0.7455
 9869TIP3   OH251097   5.218   3.346   1.685  0.5569  0.0453  0.0804
 9869TIP3    H151098   5.212   3.442   1.680 -0.2604 -0.1131 -3.2635
 9869TIP3    H251099   5.301   3.330   1.729  0.9669  2.2942  0.2277
 9870TIP3   OH251100   3.493   6.274   2.358 -0.2089  0.2036 -0.1274
 9870TIP3    H151101   3.567   6.330   2.382  0.8113 -0.6459 -1.2092
 9870TIP3    H251102   3.429   6.333   2.321 -0.3163  1.0313  1.3469
 9871TIP3   OH251103   2.667   5.842  12.739  0.3213 -0.1572  0.4446
 9871TIP3    H151104   2.696   5.816  12.651 -0.9340  0.4437 -0.1708
 9871TIP3    H251105   2.604   5.913  12.723 -0.1824 -0.2811  1.8180
 9872TIP3   OH251106   2.202   5.018   0.415 -0.6292 -0.2447 -0.7893
 9872TIP3    H151107   2.189   5.037   0.322  1.5742  0.0154 -1.0855
 9872TIP3    H251108   2.276   5.074   0.440 -0.8080 -0.7718  0.9619
 9873TIP3   OH251109   0.327   4.159  16.088  0.1304  0.3262 -0.1117
 9873TIP3    H151110   0.297   4.236  16.041  1.0349  0.9740  0.3586
 9873TIP3    H251111   0.325   4.089  16.022 -2.1713  0.3721 -0.1508
 9874TIP3   OH251112   1.679   4.358  15.615 -0.5056  0.1687 -0.0986
 9874TIP3    H151113   1.735   4.370  15.692  0.2730 -2.2122 -0.2497
 9874TIP3    H251114   1.739   4.365  15.541 -1.0557  1.2804 -0.4508
 9875TIP3   OH251115   6.676   1.948   6.295 -0.4929 -0.2207  0.8227
 9875TIP3    H151116   6.678   2.011   6.368 -0.0418  0.2658  0.3930
 9875TIP3    H251117   6.739   1.983   6.232 -0.3520 -1.0317  0.5181
 9876TIP3   OH251118   0.471   5.781   6.050  0.3373 -0.2378  0.2485
 9876TIP3    H151119   0.492   5.724   6.125  0.2329  1.4470  1.5824
 9876TIP3    H251120   0.390   5.744   6.014  1.1158 -1.8631  0.1190
 9877TIP3   OH251121   4.824   0.994  11.080 -0.5044  0.0959  0.4642
 9877TIP3    H151122   4.844   1.087  11.093  0.5679  0.1722 -1.4436
 9877TIP3    H251123   4.898   0.949  11.121 -0.3896  0.1275  0.2924
 9878TIP3   OH251124   0.113   2.207  13.779  0.6316 -0.5856  0.3509
 9878TIP3    H151125   0.043   2.233  13.840  0.3010 -0.3941 -0.1063
 9878TIP3    H251126   0.068   2.156  13.712  0.8620 -0.0991 -0.1785
 9879TIP3   OH251127   4.278   2.525  14.097  0.0596 -0.3972 -0.0556
 9879TIP3    H151128   4.319   2.468  14.161  0.6623  0.5382  0.3978
 9879TIP3    H251129   4.300   2.614  14.126 -1.6486  0.0968 -0.2231
 9880TIP3   OH251130   5.361   6.347  11.446  0.4548 -0.5013 -0.0255
 9880TIP3    H151131   5.361   6.410  11.518 -1.2752  0.2872 -0.7011
 9880TIP3    H251132   5.271   6.346  11.414  1.2257 -0.7554 -2.2768
 9881TIP3   OH251133   1.975   3.806  14.473  0.6606  0.2135  0.6260
 9881TIP3    H151134   2.009   3.861  14.543  0.1437  1.6126 -0.2106
 9881TIP3    H251135   1.906   3.754  14.515  0.5094  0.8777  1.2030
 9882TIP3   OH251136   0.614   2.743   3.220  0.5434  0.1612 -0.3063
 9882TIP3    H151137   0.624   2.753   3.126 -1.3826 -0.8725 -0.6593
 9882TIP3    H251138   0.555   2.815   3.245  0.0285 -0.3248 -0.1113
 9883TIP3   OH251139   2.402   0.591  12.305 -0.2791  0.1433 -0.8729
 9883TIP3    H151140   2.347   0.663  12.335  1.3029 -0.2523  3.3330
 9883TIP3    H251141   2.471   0.634  12.254 -0.0603  1.5240  0.5307
 9884TIP3   OH251142   0.681   1.991   4.126 -0.0391  0.5235  0.1345
 9884TIP3    H151143   0.623   2.037   4.065  0.0527  0.7863  0.2478
 9884TIP3    H251144   0.725   1.925   4.071 -0.5047  0.2687  0.0674
 9885TIP3   OH251145   3.445   6.782  13.692  0.1948  0.4246  0.0313
 9885TIP3    H151146   3.368   6.789  13.636 -0.7587  1.8323  1.4410
 9885TIP3    H251147   3.518   6.768  13.632 -0.9151  0.9366 -1.4716
 9886TIP3   OH251148   6.411   2.786   1.444  0.2140 -0.6281  0.1098
 9886TIP3    H151149   6.440   2.818   1.359  0.4791 -0.6279  0.1987
 9886TIP3    H251150   6.320   2.760   1.430  0.4098 -1.1050 -0.2974
 9887TIP3   OH251151   5.161   0.295  12.048  0.0357 -0.4305  0.4892
 9887TIP3    H151152   5.252   0.264  12.046  1.1456  2.6466  0.6923
 9887TIP3    H251153   5.154   0.345  12.129 -0.9918  1.6939 -0.8554
 9888TIP3   OH251154   6.536   0.113  11.259 -0.0379 -0.3639 -0.2669
 9888TIP3    H151155   6.588   0.153  11.329 -1.1097  0.3073  0.1594
 9888TIP3    H251156   6.579   0.029  11.242 -0.1007 -0.8006  1.6005
 9889TIP3   OH251157   3.578   2.154  11.854  0.0537  0.3712  0.6288
 9889TIP3    H151158   3.499   2.202  11.828  0.3068  0.8057  0.6550
 9889TIP3    H251159   3.571   2.070  11.809 -1.6135 -0.5494  2.5028
 9890TIP3   OH251160   0.438   5.944  17.008  0.7060 -0.2780 -0.7327
 9890TIP3    H151161   0.420   5.914  17.097 -0.9667  0.5119 -0.7772
 9890TIP3    H251162   0.500   6.016  17.019  0.6278 -0.2901 -0.2094
 9891TIP3   OH251163   4.189   1.974   1.471  0.0586 -0.3500  0.0640
 9891TIP3    H151164   4.277   1.943   1.492  0.9263  1.4775 -0.7046
 9891TIP3    H251165   4.133   1.940   1.540  1.3637 -1.6109  0.5089
 9892TIP3   OH251166   2.513   3.508   5.090  0.6290 -0.0864  0.5105
 9892TIP3    H151167   2.594   3.503   5.040  1.4112 -2.5575  1.9064
 9892TIP3    H251168   2.443   3.508   5.024  1.7094 -0.0467 -0.6480
 9893TIP3   OH251169   6.412   3.758  14.801  0.6845  0.1560  0.5712
 9893TIP3    H151170   6.346   3.825  14.816  0.7510  0.0030  1.5646
 9893TIP3    H251171   6.404   3.736  14.708  0.2059  1.0476  0.4006
 9894TIP3   OH251172   3.645   3.167   1.230 -0.5109 -0.7827  0.6836
 9894TIP3    H151173   3.681   3.114   1.302 -0.0512  0.4022  1.3393
 9894TIP3    H251174   3.572   3.215   1.270  1.2214  1.6974  1.0148
 9895TIP3   OH251175   0.262   3.316   3.117  0.0627  0.1276 -0.2613
 9895TIP3    H151176   0.175   3.349   3.136 -0.3102 -0.2618 -1.2817
 9895TIP3    H251177   0.304   3.309   3.203 -0.6790  0.9342  0.1718
 9896TIP3   OH251178   4.898   2.072  17.084 -0.4912  0.2103  0.5168
 9896TIP3    H151179   4.926   2.021  17.008 -0.5084  1.2415 -0.2015
 9896TIP3    H251180   4.953   2.041  17.156 -0.0738 -0.3744 -0.0490
 9897TIP3   OH251181   3.353   0.497  14.085  0.8324  0.1294  0.6839
 9897TIP3    H151182   3.329   0.529  14.172 -1.3734 -0.6820  0.3972
 9897TIP3    H251183   3.336   0.403  14.089  0.2576  0.1642 -0.7879
 9898TIP3   OH251184   3.271   5.864  12.606  0.2618  0.2989  0.4678
 9898TIP3    H151185   3.296   5.863  12.699  0.0496  0.3994  0.5253
 9898TIP3    H251186   3.217   5.786  12.595  1.1098 -0.2617  0.2040
 9899TIP3   OH251187   6.197   4.668   1.989  0.0158  0.2256 -0.3194
 9899TIP3    H151188   6.289   4.687   1.972  0.1253  0.1535  0.1799
 9899TIP3    H251189   6.182   4.699   2.079 -0.7704  1.3850 -0.8436
 9900TIP3   OH251190   5.303   1.409   4.408 -0.1924 -0.0629 -0.5150
 9900TIP3    H151191   5.300   1.314   4.395  0.1326 -0.3018  1.1346
 9900TIP3    H251192   5.211   1.435   4.413 -0.2641 -0.6530  1.5519
 9901TIP3   OH251193   6.735   3.098   5.641 -0.1740 -0.1875  0.2484
 9901TIP3    H151194   6.753   3.013   5.681 -1.5074 -1.2905 -1.4462
 9901TIP3    H251195   6.650   3.124   5.678 -0.0549  0.1235  0.3055
 9902TIP3   OH251196   6.493   6.749   2.641  0.4608 -0.2197 -0.3790
 9902TIP3    H151197   6.550   6.797   2.580  1.1056 -1.6082 -0.8738
 9902TIP3    H251198   6.408   6.794   2.634  1.2775  1.3833 -0.2045
 9903TIP3   OH251199   1.073   6.136  14.030  0.3364 -0.3507  0.4001
 9903TIP3    H151200   1.163   6.135  13.997 -0.1545  1.4388 -1.0863
 9903TIP3    H251201   1.049   6.229  14.029 -1.0587 -0.6790  2.0940
 9904TIP3   OH251202   6.357   4.259  14.068  0.2835  0.0613  0.3065
 9904TIP3    H151203   6.287   4.281  14.006 -0.1013  0.2009  0.7914
 9904TIP3    H251204   6.346   4.320  14.141  0.7923 -0.0436  0.4756
 9905TIP3   OH251205   3.375   3.600   3.670 -0.0935 -0.1717  0.1986
 9905TIP3    H151206   3.295   3.599   3.617 -0.2561  0.3223  0.4277
 9905TIP3    H251207   3.346   3.631   3.756  0.0606 -1.5336  0.7526
 9906TIP3   OH251208   0.035   5.256   2.667 -0.0271  0.5032 -0.6191
 9906TIP3    H151209  -0.039   5.312   2.644  1.3986  2.2469 -1.0593
 9906TIP3    H251210   0.085   5.247   2.585  1.7523  1.6903  0.2935
 9907TIP3   OH251211   3.896   5.385  16.185 -0.3733  0.3929 -0.6644
 9907TIP3    H151212   3.921   5.386  16.093 -4.0901 -0.8359 -1.7598
 9907TIP3    H251213   3.901   5.293  16.211 -1.1720  0.4730 -0.2015
 9908TIP3   OH251214   1.263   6.634   4.797 -0.3700 -0.4754  0.3490
 9908TIP3    H151215   1.340   6.623   4.741  0.7508 -0.0084  1.7904
 9908TIP3    H251216   1.195   6.580   4.754  0.9635 -1.5145 -0.5053
 9909TIP3   OH251217   5.515   5.765  15.751 -0.3523  0.2300 -0.2731
 9909TIP3    H151218   5.432   5.769  15.703 -0.5571  1.0696  0.1267
 9909TIP3    H251219   5.522   5.675  15.781 -0.2267 -0.2939 -1.8692
 9910TIP3   OH251220   6.633   6.143   2.474  0.0350 -0.1237 -0.1902
 9910TIP3    H151221   6.600   6.211   2.532  2.2623  1.1866 -0.3918
 9910TIP3    H251222   6.645   6.186   2.390  0.6030 -0.9929 -0.5627
 9911TIP3   OH251223   3.405   3.044   5.387 -0.0730 -0.8067 -0.2224
 9911TIP3    H151224   3.333   3.025   5.327  0.4881  0.3584 -1.2898
 9911TIP3    H251225   3.379   3.003   5.470 -0.5233 -3.0899 -1.4389
 9912TIP3   OH251226   4.610   5.706   0.180 -0.1635 -0.0605 -0.5752
 9912TIP3    H151227   4.604   5.641   0.109  0.2195 -1.0104  0.2463
 9912TIP3    H251228   4.680   5.673   0.236 -0.6812  0.5178  0.4187
 9913TIP3   OH251229   5.514   1.025  11.598 -0.0589  0.2855  0.0654
 9913TIP3    H151230   5.511   1.119  11.577 -0.0945  0.1440 -0.5717
 9913TIP3    H251231   5.607   1.006  11.609 -0.0702  0.4543  0.4665
 9914TIP3   OH251232   0.028   4.252  15.112 -0.5340 -0.5980  0.2184
 9914TIP3    H151233  -0.028   4.218  15.182 -1.0155 -0.5563 -0.1434
 9914TIP3    H251234  -0.032   4.270  15.040 -0.2747  0.9055  0.3551
 9915TIP3   OH251235   6.788   0.351  12.036 -0.4668  0.1857  0.3520
 9915TIP3    H151236   6.710   0.375  11.986 -0.7694  0.4466  0.9579
 9915TIP3    H251237   6.838   0.432  12.044 -0.2256  0.0615  0.1415
 9916TIP3   OH251238   2.089   4.115  12.699 -0.1919  0.0991 -0.1593
 9916TIP3    H151239   2.018   4.124  12.762  0.2794 -0.7403  0.4963
 9916TIP3    H251240   2.051   4.061  12.629  0.2303 -1.5784  0.8751
 9917TIP3   OH251241   1.451   5.723   5.831 -0.6744 -0.3523  0.1606
 9917TIP3    H151242   1.397   5.777   5.889 -0.0751 -0.3147  0.6900
 9917TIP3    H251243   1.528   5.701   5.883 -1.0818 -2.0579  0.0969
 9918TIP3   OH251244   4.132   2.320  15.833 -0.1352  0.0956  0.2028
 9918TIP3    H151245   4.119   2.257  15.903 -0.5289 -0.0559 -0.0079
 9918TIP3    H251246   4.059   2.305  15.773  0.3368  0.0562 -0.3617
 9919TIP3   OH251247   3.694   1.466  15.404  0.0790 -0.4007  0.0159
 9919TIP3    H151248   3.723   1.557  15.400 -1.4211  0.0500 -1.6011
 9919TIP3    H251249   3.750   1.420  15.340  0.6114 -0.5538  0.5885
 9920TIP3   OH251250   2.155   2.027   1.429 -0.1087 -1.2218 -0.3553
 9920TIP3    H151251   2.151   1.977   1.511 -0.3981 -0.1832  0.2753
 9920TIP3    H251252   2.111   2.109   1.449  0.1711 -0.7957 -1.4467
 9921TIP3   OH251253   2.175   0.286   2.452 -0.3786  0.0079 -0.5468
 9921TIP3    H151254   2.087   0.321   2.437  0.7236  3.0916 -0.2104
 9921TIP3    H251255   2.186   0.288   2.547  0.2836  0.2771 -0.6243
 9922TIP3   OH251256   3.806   5.127   0.597 -0.1873 -0.1154  0.6613
 9922TIP3    H151257   3.821   5.047   0.547 -2.9215  0.2239 -0.8232
 9922TIP3    H251258   3.836   5.107   0.685  0.2000 -2.3818  0.0340
 9923TIP3   OH251259   0.816   6.805  12.332 -0.0028 -0.2987 -0.3977
 9923TIP3    H151260   0.906   6.816  12.303  0.7671 -2.4832  1.0491
 9923TIP3    H251261   0.811   6.852  12.415  0.0495 -0.8782 -0.0625
 9924TIP3   OH251262   2.243   2.315  16.197  0.3954  0.3240  0.5004
 9924TIP3    H151263   2.281   2.400  16.175  0.1265 -0.1104 -1.7733
 9924TIP3    H251264   2.160   2.312  16.148  0.2389 -1.0920  0.8158
 9925TIP3   OH251265   5.680   5.762   3.426 -0.1767  0.2677 -0.2163
 9925TIP3    H151266   5.644   5.682   3.389  1.3421 -1.3699  1.7189
 9925TIP3    H251267   5.614   5.789   3.490  1.2454 -1.9309  2.2869
 9926TIP3   OH251268   5.169   3.379   2.373 -0.5039 -0.5785  0.0388
 9926TIP3    H151269   5.160   3.349   2.283  0.7832 -0.2767 -0.2025
 9926TIP3    H251270   5.258   3.352   2.398 -0.8403 -0.6372  1.2063
 9927TIP3   OH251271   0.684   1.004  13.038 -0.2407 -0.2955 -0.7093
 9927TIP3    H151272   0.689   1.019  12.944  1.6768 -1.4262 -0.8139
 9927TIP3    H251273   0.680   0.909  13.047  1.2722 -0.2722  0.3954
 9928TIP3   OH251274   4.477   5.192  16.448  0.6712 -0.4221  0.2547
 9928TIP3    H151275   4.465   5.099  16.425  0.0541 -0.2692 -0.0628
 9928TIP3    H251276   4.567   5.212  16.422  1.3508 -1.3573  1.8188
 9929TIP3   OH251277   6.624   2.942  13.525  0.1249 -0.0940 -0.3287
 9929TIP3    H151278   6.654   2.995  13.452 -0.0964  0.3904 -0.0665
 9929TIP3    H251279   6.530   2.957  13.530  0.3780  1.0878  1.0243
 9930TIP3   OH251280   2.709   2.420  14.906  0.3995 -0.0909 -0.4638
 9930TIP3    H151281   2.797   2.394  14.936  0.4452  1.5275  0.8986
 9930TIP3    H251282   2.724   2.499  14.854 -0.1615 -0.3161 -0.9691
 9931TIP3   OH251283   5.177   1.511  13.735 -0.0589  0.2273  0.3168
 9931TIP3    H151284   5.107   1.447  13.722 -0.0429  0.0810  0.9360
 9931TIP3    H251285   5.136   1.596  13.715  0.3487 -0.1037 -2.0611
 9932TIP3   OH251286   4.216   5.619  14.054 -0.2506 -0.2321 -0.4143
 9932TIP3    H151287   4.214   5.703  14.099 -1.0773 -0.7640  0.5686
 9932TIP3    H251288   4.259   5.637  13.971 -1.0538  1.3132 -0.5130
 9933TIP3   OH251289   6.041   0.476  10.865 -0.2328  0.4285  0.1207
 9933TIP3    H151290   5.949   0.499  10.853 -0.8355 -1.6146  0.5410
 9933TIP3    H251291   6.039   0.385  10.894  2.0590 -0.9927 -3.6786
 9934TIP3   OH251292   0.024   4.129  11.730  0.1618  0.1548  0.2920
 9934TIP3    H151293  -0.070   4.132  11.710  0.3363  0.6754 -0.4758
 9934TIP3    H251294   0.036   4.046  11.774  0.3072 -2.6140 -4.5797
 9935TIP3   OH251295   0.492   4.846  16.369  0.2548  0.0224  0.1175
 9935TIP3    H151296   0.407   4.844  16.413 -0.2484 -0.3572 -0.8393
 9935TIP3    H251297   0.511   4.939  16.359 -0.0227  0.1101  0.4010
 9936TIP3   OH251298   4.605   0.638  13.494 -0.7587 -0.3389 -0.3324
 9936TIP3    H151299   4.562   0.558  13.526  1.5583 -1.1364  0.9060
 9936TIP3    H251300   4.559   0.709  13.539 -1.9714 -1.0422 -0.4354
 9937TIP3   OH251301   1.604   0.479   2.545  0.1210  0.2567 -0.2013
 9937TIP3    H151302   1.604   0.538   2.470  0.7573 -1.0972 -1.2994
 9937TIP3    H251303   1.552   0.404   2.516  1.2044 -0.7233  0.3392
 9938TIP3   OH251304   6.545   0.722  14.650  0.3525 -0.2145 -0.1425
 9938TIP3    H151305   6.507   0.809  14.635 -0.4097 -0.3000  1.2009
 9938TIP3    H251306   6.592   0.730  14.734  1.0984 -0.8337 -0.4933
 9939TIP3   OH251307   1.543   5.760  15.433 -0.0132 -0.3736 -0.0046
 9939TIP3    H151308   1.556   5.700  15.360  1.1615 -1.2059  0.8563
 9939TIP3    H251309   1.631   5.790  15.455 -0.4152  0.3153  0.6886
 9940TIP3   OH251310   5.734   4.191  15.233 -0.4715 -0.3141  0.2070
 9940TIP3    H151311   5.794   4.166  15.304 -0.5275 -1.0497  0.0020
 9940TIP3    H251312   5.769   4.146  15.156 -1.4436 -0.9767  0.1477
 9941TIP3   OH251313   4.942   4.917  15.147  0.0269 -0.2212  0.3219
 9941TIP3    H151314   4.854   4.879  15.143 -0.7970  1.2780  2.8844
 9941TIP3    H251315   4.973   4.896  15.235  1.5361  0.7313  0.0391
 9942TIP3   OH251316   5.284   2.106   3.722 -0.3008 -0.1378  0.0912
 9942TIP3    H151317   5.249   2.020   3.743  0.5882 -0.5259  0.0007
 9942TIP3    H251318   5.284   2.109   3.626  0.9335 -0.5594  0.0804
 9943TIP3   OH251319   6.262   0.492  10.708 -0.1787  0.0170  0.3696
 9943TIP3    H151320   6.222   0.555  10.649  0.2687  3.0004  3.0917
 9943TIP3    H251321   6.191   0.464  10.765 -0.1581 -1.2124 -0.1886
 9944TIP3   OH251322   4.663   1.195   1.315  0.2746  0.2916 -0.1432
 9944TIP3    H151323   4.631   1.225   1.401  1.0538 -0.9711  0.5922
 9944TIP3    H251324   4.708   1.271   1.279  2.1453  0.0712  1.6693
 9945TIP3   OH251325   0.022   6.000  11.708 -0.4431  0.1101 -0.0448
 9945TIP3    H151326   0.074   6.080  11.700  1.0707 -0.8185  0.2905
 9945TIP3    H251327   0.043   5.966  11.796 -0.8582 -0.7861 -0.2836
 9946TIP3   OH251328   3.020   5.666   1.228  0.5271  0.1949  0.1587
 9946TIP3    H151329   3.040   5.701   1.141  1.0316  1.9260  0.9551
 9946TIP3    H251330   2.924   5.667   1.232  0.5225  0.8355 -0.0850
 9947TIP3   OH251331   5.276   5.537   6.413 -0.5642  0.7566  0.2081
 9947TIP3    H151332   5.281   5.582   6.497 -2.2378 -0.3750  0.9252
 9947TIP3    H251333   5.296   5.446   6.433 -0.7205  0.5233 -0.6689
 9948TIP3   OH251334   5.225   1.620  15.978 -0.3267  0.4339  0.8328
 9948TIP3    H151335   5.271   1.572  16.046  0.3108 -0.0266  0.0785
 9948TIP3    H251336   5.259   1.585  15.896 -0.8043  1.2542  0.2728
 9949TIP3   OH251337   1.012   3.522  16.239 -0.4603  0.4551  0.1560
 9949TIP3    H151338   0.950   3.594  16.253 -1.3832 -0.4515  0.9198
 9949TIP3    H251339   1.041   3.499  16.328  0.9474  0.8457 -0.1985
 9950TIP3   OH251340   3.298   5.611   5.411  0.0289  0.2320  0.4062
 9950TIP3    H151341   3.224   5.608   5.351 -2.0690 -1.5790  2.9555
 9950TIP3    H251342   3.286   5.693   5.460  0.5239  0.6334 -0.1338
 9951TIP3   OH251343   2.745   0.527   2.959  0.4540 -0.1700 -0.0715
 9951TIP3    H151344   2.823   0.496   3.006 -1.1128 -1.5741  1.7102
 9951TIP3    H251345   2.677   0.527   3.026 -1.3680 -0.2065 -1.9041
 9952TIP3   OH251346   1.009   6.410   4.915  0.3814 -0.3560  0.8032
 9952TIP3    H151347   0.918   6.400   4.888  0.0848  2.8597  0.4002
 9952TIP3    H251348   1.059   6.373   4.842 -0.5568  0.2640 -0.1814
 9953TIP3   OH251349   0.516   0.112   5.816 -0.0616  0.1671 -0.6140
 9953TIP3    H151350   0.596   0.076   5.854 -0.2580 -0.7097 -1.0258
 9953TIP3    H251351   0.454   0.040   5.818 -0.0573  0.0900 -2.6860
 9954TIP3   OH251352   5.463   5.634   2.576  0.5977  0.5421  0.2703
 9954TIP3    H151353   5.431   5.543   2.581 -0.0298  0.8095  1.3467
 9954TIP3    H251354   5.542   5.634   2.631  2.0426  0.0634 -1.7671
 9955TIP3   OH251355   6.118   1.785  12.525  0.2609 -0.3405 -1.1024
 9955TIP3    H151356   6.176   1.853  12.489  1.1611 -0.4618  0.0826
 9955TIP3    H251357   6.143   1.705  12.479  0.4568 -0.2262 -1.1960
 9956TIP3   OH251358   3.669   6.134  12.467 -0.4331 -0.4863  0.1372
 9956TIP3    H151359   3.642   6.095  12.550  0.3351  0.7863  0.9952
 9956TIP3    H251360   3.664   6.061  12.404  1.8651 -2.2279  1.8816
 9957TIP3   OH251361   5.649   3.605  16.563  0.7121  0.1293 -0.2432
 9957TIP3    H151362   5.560   3.581  16.589  1.4428  0.2599  2.5386
 9957TIP3    H251363   5.637   3.680  16.504 -1.1504 -2.0466 -2.7250
 9958TIP3   OH251364   4.008   5.007   5.180 -0.4867 -0.5218 -0.1289
 9958TIP3    H151365   4.091   5.045   5.151 -1.9236  0.7742 -2.6671
 9958TIP3    H251366   3.958   5.081   5.214 -0.5892 -1.3238  1.5396
 9959TIP3   OH251367   0.072   5.624  15.210  0.3333  0.1284 -0.2176
 9959TIP3    H151368   0.109   5.710  15.230 -0.1818  0.4253 -0.5425
 9959TIP3    H251369   0.122   5.595  15.133 -0.0031  0.4693 -0.5701
 9960TIP3   OH251370   6.552   6.617   4.319  0.0787 -0.4641 -0.6271
 9960TIP3    H151371   6.516   6.540   4.273 -1.7256  0.0267 -0.0622
 9960TIP3    H251372   6.535   6.599   4.411 -0.1375  0.5142 -0.4786
 9961TIP3   OH251373   0.462   2.370  10.374  0.5292 -0.4416 -0.3903
 9961TIP3    H151374   0.513   2.333  10.446  2.8169  1.9074 -0.7102
 9961TIP3    H251375   0.379   2.394  10.414  1.4369  0.0049  1.2759
 9962TIP3   OH251376   0.533   0.236   6.593  0.1020  0.2945 -0.4814
 9962TIP3    H151377   0.465   0.169   6.585  1.0156 -0.6642 -0.4030
 9962TIP3    H251378   0.601   0.208   6.532 -0.6938  2.6607 -2.5212
 9963TIP3   OH251379   2.204   1.909  11.689  0.8918  0.1702  0.0175
 9963TIP3    H151380   2.271   1.975  11.707 -1.8568  3.5083 -1.3434
 9963TIP3    H251381   2.218   1.884  11.598  1.7153 -0.9277  0.4301
 9964TIP3   OH251382   5.903   2.987   3.618  0.0004 -0.0678 -0.0335
 9964TIP3    H151383   5.840   2.916   3.630  0.7558 -0.8183 -0.4691
 9964TIP3    H251384   5.984   2.953   3.655 -0.0210  1.1715  1.1930
 9965TIP3   OH251385   6.237   5.625   5.127 -0.0301  0.4572  0.2921
 9965TIP3    H151386   6.149   5.589   5.143 -0.0132  0.5308  0.5500
 9965TIP3    H251387   6.292   5.584   5.193  0.4052 -0.6465 -0.7428
 9966TIP3   OH251388   4.855   2.623  11.836  0.0935  0.0923  0.0988
 9966TIP3    H151389   4.947   2.649  11.834 -0.1013  0.7682 -0.7593
 9966TIP3    H251390   4.820   2.664  11.916  0.9627 -1.7459  1.4588
 9967TIP3   OH251391   1.888   2.979  14.226 -0.3538 -0.3620 -0.3818
 9967TIP3    H151392   1.837   3.014  14.300 -2.4643 -2.3054 -0.8659
 9967TIP3    H251393   1.946   2.914  14.266 -0.1007 -0.0199 -0.1870
 9968TIP3   OH251394   0.105   1.400   4.359 -0.1757  0.3344  0.3379
 9968TIP3    H151395   0.097   1.478   4.415  0.8078  0.6383  0.0751
 9968TIP3    H251396   0.050   1.418   4.284  1.4980  1.6207 -0.6267
 9969TIP3   OH251397   0.135   1.130   4.034  0.6841  0.5564  0.5772
 9969TIP3    H151398   0.106   1.059   4.091 -0.2042  0.0248 -0.5158
 9969TIP3    H251399   0.088   1.207   4.066 -2.2661 -0.3556 -1.3692
 9970TIP3   OH251400   4.841   3.073   2.110 -0.1049  0.0087 -0.4442
 9970TIP3    H151401   4.887   3.015   2.050 -0.9457 -0.6713 -0.4378
 9970TIP3    H251402   4.777   3.119   2.055 -0.3250 -0.0216 -0.2118
 9971TIP3   OH251403   0.099   0.862  14.356 -0.0668 -0.2944  0.4223
 9971TIP3    H151404   0.117   0.836  14.446 -0.0853 -1.0232  0.2113
 9971TIP3    H251405   0.005   0.882  14.355  0.3600  1.8887  1.1026
 9972TIP3   OH251406   5.610   2.245   4.975 -0.0073  0.1938 -0.2360
 9972TIP3    H151407   5.628   2.265   5.066  0.0787  0.2623 -0.2678
 9972TIP3    H251408   5.694   2.213   4.941 -0.0598  0.0922 -0.2690
 9973TIP3   OH251409   0.151   1.484   3.024  0.2272 -0.8532  0.4943
 9973TIP3    H151410   0.112   1.571   3.022  1.1706 -0.4223  0.2372
 9973TIP3    H251411   0.095   1.434   3.083 -0.1645  0.0072  0.8659
 9974TIP3   OH251412   3.514   4.283   4.207 -0.5697 -0.2359  0.6494
 9974TIP3    H151413   3.491   4.192   4.227 -2.0974  0.3094  1.4171
 9974TIP3    H251414   3.539   4.282   4.114 -1.7078 -1.2250  0.3459
 9975TIP3   OH251415   1.666   1.806  12.325 -0.3854  0.4718 -0.2149
 9975TIP3    H151416   1.696   1.720  12.294 -1.1041 -0.9000  2.7252
 9975TIP3    H251417   1.721   1.869  12.278  2.7758 -1.7172  0.3706
 9976TIP3   OH251418   2.706   0.999  15.178  0.1238 -0.2126 -0.0242
 9976TIP3    H151419   2.712   0.983  15.084 -0.5957  0.3211 -0.1684
 9976TIP3    H251420   2.797   1.009  15.207  0.6024 -4.0808  0.0256
 9977TIP3   OH251421   0.764   1.207   2.610 -0.2366  0.1366  0.3601
 9977TIP3    H151422   0.690   1.240   2.661 -0.7067 -0.5260  0.1148
 9977TIP3    H251423   0.737   1.214   2.519  0.0366 -0.0286  0.2640
 9978TIP3   OH251424   3.225   1.242  12.420 -0.4260 -0.3063  0.2979
 9978TIP3    H151425   3.236   1.152  12.449 -0.6260 -0.6951 -0.8389
 9978TIP3    H251426   3.287   1.292  12.473 -1.5135 -0.8569  2.1623
 9979TIP3   OH251427   1.189   6.205   2.163  0.1050  0.4566  0.3272
 9979TIP3    H151428   1.214   6.210   2.071  1.1649 -0.4133  0.5646
 9979TIP3    H251429   1.138   6.124   2.170 -0.7398  0.9802  0.3334
 9980TIP3   OH251430   2.287   6.245  14.399 -0.3752 -0.2587  0.2154
 9980TIP3    H151431   2.359   6.277  14.453 -0.0044 -0.3085 -0.2532
 9980TIP3    H251432   2.263   6.320  14.344 -1.5546  0.1739  1.2942
 9981TIP3   OH251433   4.466   1.265  11.817 -0.4196  0.0925 -0.0633
 9981TIP3    H151434   4.526   1.326  11.860  0.5125  0.2793 -1.5819
 9981TIP3    H251435   4.407   1.320  11.766  1.9314 -0.2917 -3.3646
 9982TIP3   OH251436   2.023   4.760   2.127  0.3184  0.0062  0.1807
 9982TIP3    H151437   2.057   4.700   2.192 -0.4393 -0.6387 -0.0023
 9982TIP3    H251438   2.034   4.714   2.043  2.3979  1.3208 -0.2993
 9983TIP3   OH251439   5.792   4.471  17.218  0.2268  0.4805  0.1628
 9983TIP3    H151440   5.781   4.546  17.275  0.9614  0.8204 -0.1361
 9983TIP3    H251441   5.796   4.396  17.278  2.1060  0.9421  0.6506
 9984TIP3   OH251442   3.357   1.902   0.393  0.4016  0.0130  0.1791
 9984TIP3    H151443   3.280   1.905   0.337  0.3773  1.9356  0.2956
 9984TIP3    H251444   3.431   1.896   0.333  0.3660  1.9076 -0.0879
 9985TIP3   OH251445   6.337   6.173  12.050  0.0761 -0.2873  0.3490
 9985TIP3    H151446   6.254   6.168  12.004  1.7577 -2.0425 -2.6452
 9985TIP3    H251447   6.314   6.162  12.142 -2.7942 -2.8339 -0.6079
 9986TIP3   OH251448   4.822   3.991   4.244  0.1193  0.0473 -0.6325
 9986TIP3    H151449   4.779   4.074   4.262 -1.0857 -0.8516  0.7864
 9986TIP3    H251450   4.908   4.000   4.286 -0.5431  0.0707  0.7622
 9987TIP3   OH251451   6.002   5.100  13.557  0.2352 -0.2927  0.1123
 9987TIP3    H151452   5.954   5.183  13.560 -0.6600 -0.8234  0.4883
 9987TIP3    H251453   5.936   5.033  13.576  1.4244 -0.9040  2.2029
 9988TIP3   OH251454   3.979   1.005   0.635 -0.2287 -0.3107  0.1324
 9988TIP3    H151455   3.955   1.097   0.645 -0.6635 -0.4671  0.5588
 9988TIP3    H251456   4.054   0.994   0.693 -0.0001 -0.1587 -0.1319
 9989TIP3   OH251457   1.196   1.661  15.224  0.2680 -0.0819 -0.6998
 9989TIP3    H151458   1.103   1.683  15.217 -0.5481 -2.8482  0.9036
 9989TIP3    H251459   1.222   1.637  15.135 -1.0007 -0.9174 -0.8589
 9990TIP3   OH251460   6.064   1.522  17.013  0.7793 -0.6325  0.6773
 9990TIP3    H151461   6.054   1.427  17.011  0.9089 -0.6291 -0.2125
 9990TIP3    H251462   6.138   1.538  17.073  0.5821 -1.0693  1.0393
 9991TIP3   OH251463   0.983   4.314  14.428  0.4744 -0.0568 -0.3667
 9991TIP3    H151464   1.055   4.263  14.465  0.2584  0.3375  0.6305
 9991TIP3    H251465   0.961   4.377  14.497 -2.9450 -2.2316  0.6159
 9992TIP3   OH251466   5.169   1.669   6.769 -0.0672 -0.0685 -0.2733
 9992TIP3    H151467   5.135   1.598   6.823 -3.0140 -0.0344 -1.9777
 9992TIP3    H251468   5.227   1.626   6.706 -0.5622 -0.7676 -0.2563
 9993TIP3   OH251469   5.688   2.353   4.653 -0.5634 -0.5351 -0.1898
 9993TIP3    H151470   5.666   2.285   4.718 -0.8797  0.3986  0.6943
 9993TIP3    H251471   5.643   2.325   4.573 -0.2877 -1.6279  0.0244
 9994TIP3   OH251472   6.388   3.895   2.407  0.2237  0.3004 -0.0978
 9994TIP3    H151473   6.335   3.935   2.338  0.3703  0.3259 -0.1949
 9994TIP3    H251474   6.412   3.968   2.464 -1.9798 -0.0786  1.3649
 9995TIP3   OH251475   1.438   3.543   2.354 -0.0619  0.3331 -0.3335
 9995TIP3    H151476   1.503   3.535   2.285 -1.4133 -0.5993 -1.5227
 9995TIP3    H251477   1.375   3.472   2.337 -1.9103  1.7942  0.2033
 9996TIP3   OH251478   1.712   2.371   0.392 -0.0212  0.4179  0.2345
 9996TIP3    H151479   1.636   2.336   0.440 -0.0593  0.6740  0.3646
 9996TIP3    H251480   1.733   2.452   0.438 -1.0508  1.4788 -1.1658
 9997TIP3   OH251481   2.957   0.967  15.910 -0.0470  0.4673  0.1990
 9997TIP3    H151482   3.042   1.009  15.895  0.1403  0.5803  1.5220
 9997TIP3    H251483   2.903   1.036  15.949 -0.4718  0.1384  0.1929
 9998TIP3   OH251484   5.103   6.277  11.275 -0.2116  0.3588  0.6272
 9998TIP3    H151485   5.036   6.209  11.269  0.2522  0.0037 -0.7889
 9998TIP3    H251486   5.055   6.356  11.296 -0.6905 -0.5103  2.9123
 9999TIP3   OH251487   6.749   5.730   4.689 -0.2315  0.4950 -0.0179
 9999TIP3    H151488   6.757   5.649   4.637  1.8602  0.3088  0.5471
 9999TIP3    H251489   6.832   5.776   4.675  1.1015 -0.3312  4.3941
10000TIP3   OH251490   0.429   0.352  16.615  0.2086 -0.0075  0.1759
10000TIP3    H151491   0.436   0.432  16.666 -0.0804 -0.1508  0.4371
10000TIP3    H251492   0.513   0.307  16.630  1.9293  1.9975 -2.9269
10001TIP3   OH251493   5.989   5.271  15.680 -0.5521 -0.0365 -0.2769
10001TIP3    H151494   6.077   5.234  15.676 -0.1813  0.6907  0.9427
10001TIP3    H251495   5.961   5.277  15.589  0.8734  0.2387 -0.7047
10002TIP3   OH251496   1.742   0.827  14.133 -0.3827  0.5821  0.1747
10002TIP3    H151497   1.765   0.776  14.055  0.8135  1.7156 -0.2350
10002TIP3    H251498   1.746   0.764  14.205  1.9719  0.2609 -0.2036
10003TIP3   OH251499   2.238   0.320  13.232  0.2017  0.6374 -0.2018
10003TIP3    H151500   2.144   0.323  13.247  0.2073  0.7637 -0.1915
10003TIP3    H251501   2.266   0.236  13.268 -0.1237 -0.0028 -1.4020
10004TIP3   OH251502   3.422   3.651  13.431  0.1234  0.5647  0.2556
10004TIP3    H151503   3.333   3.680  13.408  0.6790  0.9317 -1.4432
10004TIP3    H251504   3.457   3.723  13.484 -0.0638  1.0666 -0.3014
10005TIP3   OH251505   6.101   5.728   4.230 -0.7251  0.1939 -0.7994
10005TIP3    H151506   6.110   5.725   4.135 -1.8137 -1.4902 -0.8727
10005TIP3    H251507   6.131   5.643   4.260  0.7272  1.1328  0.4860
10006TIP3   OH251508   6.650   0.066   4.740  0.0568 -0.1669  0.0868
10006TIP3    H151509   6.688   0.046   4.826  2.0352 -2.4080 -1.2557
10006TIP3    H251510   6.567   0.017   4.739  0.3927 -0.7438  0.4207
10007TIP3   OH251511   5.388   4.010   0.384  0.3423 -0.3077 -0.6232
10007TIP3    H151512   5.459   3.953   0.353  0.9997  0.8235 -1.2547
10007TIP3    H251513   5.314   3.951   0.396  1.1105 -1.3622 -0.8892
10008TIP3   OH251514   1.558   1.493   3.627 -0.1346  0.2201 -0.1678
10008TIP3    H151515   1.578   1.582   3.656 -0.3218  0.0798  0.3964
10008TIP3    H251516   1.644   1.452   3.617 -0.0855 -0.0177  1.1074
10009TIP3   OH251517   6.107   2.777   1.446  0.2799  0.1628  0.2731
10009TIP3    H151518   6.040   2.713   1.469 -0.4155  1.1987  1.1442
10009TIP3    H251519   6.087   2.802   1.356 -1.0376  1.1074  0.8124
10010TIP3   OH251520   2.457   3.633  16.363  0.2834  0.2758 -0.0685
10010TIP3    H151521   2.504   3.715  16.382  0.2913  0.2218  0.1420
10010TIP3    H251522   2.399   3.621  16.438  0.1866  0.1561 -0.1651
10011TIP3   OH251523   2.216   5.873   4.651  0.3123  0.0921 -0.6071
10011TIP3    H151524   2.258   5.790   4.626  3.4689  1.1837  0.7703
10011TIP3    H251525   2.284   5.939   4.637 -1.8420  2.3357 -0.7649
10012TIP3   OH251526   5.088   4.288  11.687 -0.0328 -0.8885 -0.3091
10012TIP3    H151527   5.096   4.374  11.646 -0.7446  0.2135  1.7909
10012TIP3    H251528   5.176   4.251  11.685  0.5261  0.4145 -0.1435
10013TIP3   OH251529   6.471   3.084   5.742  0.0391 -0.0973 -0.4221
10013TIP3    H151530   6.455   3.158   5.683 -1.6106 -1.8373 -2.2823
10013TIP3    H251531   6.391   3.079   5.794  0.8046  0.3871  0.8116
10014TIP3   OH251532   4.686   5.273  11.618 -0.2320  0.0528  0.3690
10014TIP3    H151533   4.727   5.314  11.542 -2.4770  0.3109 -0.7500
10014TIP3    H251534   4.694   5.338  11.688  0.3748  0.4805 -0.0933
10015TIP3   OH251535   2.100   5.537  17.015 -0.0048  0.2536 -0.1406
10015TIP3    H151536   2.126   5.540  17.107  1.6949 -2.2915 -0.5138
10015TIP3    H251537   2.180   5.558  16.966  0.3483 -3.1825 -1.1510
10016TIP3   OH251538   0.231   3.041  11.470 -0.1807  0.3164 -0.2270
10016TIP3    H151539   0.245   3.018  11.561  1.5511  0.6197 -0.3900
10016TIP3    H251540   0.288   3.117  11.455 -1.6729  1.2814 -1.1268
10017TIP3   OH251541   0.457   0.307  17.192 -0.3302 -0.6067 -0.1097
10017TIP3    H151542   0.509   0.228  17.208 -0.6458 -0.4485  1.9097
10017TIP3    H251543   0.409   0.288  17.112 -0.2886 -2.4374  0.2633
10018TIP3   OH251544   1.677   5.456  13.335  0.7627  0.5451  0.5398
10018TIP3    H151545   1.767   5.470  13.304  0.2237  0.5004 -1.1047
10018TIP3    H251546   1.648   5.376  13.290 -0.7267  1.5827 -0.4041
10019TIP3   OH251547   1.943   0.528  17.202 -0.0163 -0.1327 -0.3564
10019TIP3    H151548   2.032   0.529  17.167  0.7017 -0.4446  1.3969
10019TIP3    H251549   1.954   0.502  17.293 -1.8355  0.5654  0.0803
10020TIP3   OH251550   5.594   0.481  11.290  0.4578  0.2968 -0.4149
10020TIP3    H151551   5.523   0.418  11.287  0.3363  0.4733 -1.4512
10020TIP3    H251552   5.580   0.530  11.371 -0.3226  0.0125 -0.3774
10021TIP3   OH251553   0.375   6.271  16.623  0.2120  0.6143  0.2714
10021TIP3    H151554   0.321   6.315  16.689  0.0691  2.7618 -1.2093
10021TIP3    H251555   0.461   6.311  16.631  1.0181 -1.2444  1.1446
10022TIP3   OH251556   2.236   2.451  12.613 -0.0151 -0.4672  0.1230
10022TIP3    H151557   2.152   2.457  12.659 -0.8110 -1.2278 -1.1928
10022TIP3    H251558   2.214   2.408  12.530  1.3247  1.2074 -1.1194
10023TIP3   OH251559   5.422   5.316   2.558 -0.5824 -0.0256  0.1273
10023TIP3    H151560   5.345   5.263   2.537 -1.3420  1.7901 -1.8350
10023TIP3    H251561   5.397   5.366   2.635 -1.5723  0.9359 -0.8099
10024TIP3   OH251562   1.896   5.391   6.932  0.5485  0.4310 -0.2533
10024TIP3    H151563   1.952   5.326   6.975 -1.3608 -0.7264  0.5431
10024TIP3    H251564   1.947   5.472   6.936  2.2235 -0.6072  0.3146
10025TIP3   OH251565   4.405   4.730  13.010  0.6661 -0.1840  0.3316
10025TIP3    H151566   4.463   4.735  13.086  3.0374 -0.3267 -1.4109
10025TIP3    H251567   4.462   4.703  12.938 -0.9355  2.5822 -2.0986
10026TIP3   OH251568   2.352   4.747   2.060  0.4933 -0.1032  0.3934
10026TIP3    H151569   2.297   4.816   2.023  2.4963  0.4335 -1.6322
10026TIP3    H251570   2.334   4.670   2.006  1.0845 -0.1684  0.2939
10027TIP3   OH251571   6.181   2.548  12.181  0.1268  0.2847 -0.3306
10027TIP3    H151572   6.120   2.551  12.254  1.6170  2.2536  0.8841
10027TIP3    H251573   6.143   2.606  12.115  0.3885  1.0333  0.1798
10028TIP3   OH251574   6.486   5.440   2.885  0.1819 -0.0596  1.0508
10028TIP3    H151575   6.415   5.413   2.826  1.0759 -0.9094  0.3416
10028TIP3    H251576   6.515   5.359   2.926  0.8335  0.2703  1.2437
10029TIP3   OH251577   1.329   5.015   1.912  0.4667 -0.0751  0.4793
10029TIP3    H151578   1.415   5.000   1.873 -0.6138 -0.9425 -1.6325
10029TIP3    H251579   1.283   4.932   1.900 -1.0791  0.7690  0.5129
10030TIP3   OH251580   3.178   4.485  13.800  0.4185  0.3258 -0.2842
10030TIP3    H151581   3.269   4.514  13.803  0.6434 -0.3183 -0.9240
10030TIP3    H251582   3.166   4.451  13.712  0.1911 -1.6182  0.4808
10031TIP3   OH251583   4.681   5.605  12.863  0.2272 -0.1383  0.5977
10031TIP3    H151584   4.616   5.556  12.814 -0.2535  0.5648  0.5296
10031TIP3    H251585   4.641   5.620  12.949  0.3741  0.1292  0.6219
10032TIP3   OH251586   4.678   5.162  11.928 -0.6659 -0.0255  0.6053
10032TIP3    H151587   4.720   5.248  11.935 -2.8883  1.0701  0.9462
10032TIP3    H251588   4.749   5.103  11.902  0.7795  2.0103 -0.2303
10033TIP3   OH251589   4.636   2.175   3.911 -0.6464 -0.2656 -1.0824
10033TIP3    H151590   4.583   2.222   3.975  0.3586 -0.3429 -0.1684
10033TIP3    H251591   4.646   2.087   3.948  0.6735 -0.0509 -0.8996
10034TIP3   OH251592   3.566   6.688   0.674  0.4981 -0.1993  0.5049
10034TIP3    H151593   3.541   6.724   0.759 -0.5069  1.1189 -0.3123
10034TIP3    H251594   3.597   6.764   0.624  0.0714 -0.7627 -0.6454
10035TIP3   OH251595   0.032   4.597  15.983  0.2230 -0.1202 -0.4197
10035TIP3    H151596   0.070   4.623  15.899 -0.0141  0.3889 -0.3706
10035TIP3    H251597  -0.036   4.534  15.960 -1.6936  2.0535 -0.8213
10036TIP3   OH251598   1.871   2.944  12.214  0.0888 -0.8150  0.4098
10036TIP3    H151599   1.801   2.970  12.274  0.6216 -0.1011  0.7344
10036TIP3    H251600   1.826   2.900  12.142 -0.8736  1.0385 -0.1742
10037TIP3   OH251601   2.849   4.651   0.956 -0.5243  0.4108  0.8738
10037TIP3    H151602   2.767   4.700   0.959 -1.8128 -1.6069 -0.2715
10037TIP3    H251603   2.894   4.684   0.878 -0.0473  1.7964  1.7220
10038TIP3   OH251604   4.066   4.014  13.168 -0.7408  0.1908 -0.0350
10038TIP3    H151605   4.032   4.024  13.079  0.9839  0.8993 -0.6359
10038TIP3    H251606   4.051   4.099  13.209 -1.3956 -0.0876  0.3018
10039TIP3   OH251607   0.188   6.428   5.290 -0.5676  0.0939  0.0768
10039TIP3    H151608   0.135   6.500   5.255 -0.3932  1.5229  2.6231
10039TIP3    H251609   0.279   6.455   5.274 -0.5347 -0.8802 -1.4535
10040TIP3   OH251610   4.274   4.068  12.911 -0.0016 -0.3155 -0.1305
10040TIP3    H151611   4.302   4.160  12.917 -1.2576  0.1565 -1.4331
10040TIP3    H251612   4.182   4.069  12.937  0.2004 -1.3457  0.6632
10041TIP3   OH251613   4.799   4.909   1.909  0.6540 -0.3419  0.6325
10041TIP3    H151614   4.871   4.968   1.931 -2.7129  3.8925  0.8713
10041TIP3    H251615   4.811   4.890   1.816  0.3485  2.9096 -0.1154
10042TIP3   OH251616   2.170   5.493   1.531  0.3393  0.5055 -0.4111
10042TIP3    H151617   2.250   5.530   1.570  0.1827  0.8633 -0.4212
10042TIP3    H251618   2.188   5.489   1.437  1.3982 -2.0621 -0.1319
10043TIP3   OH251619   3.367   5.071   6.555 -0.4763 -0.3040 -0.5146
10043TIP3    H151620   3.302   5.127   6.596  1.8537  2.9264 -1.0305
10043TIP3    H251621   3.440   5.070   6.616 -0.2902 -2.4709 -0.7283
10044TIP3   OH251622   0.963   6.192   0.201 -0.0478 -0.2231  0.2470
10044TIP3    H151623   1.052   6.171   0.172 -0.3754 -1.0436 -0.1838
10044TIP3    H251624   0.975   6.257   0.270  0.7538  1.8096 -1.7190
10045TIP3   OH251625   6.286   0.128   2.622 -0.2660 -0.1146  0.1644
10045TIP3    H151626   6.206   0.177   2.606  0.3741  0.7719 -0.3940
10045TIP3    H251627   6.345   0.191   2.665  0.0327 -0.8347  0.8308
10046TIP3   OH251628   4.346   1.481   3.195 -0.7945 -0.0225  0.0833
10046TIP3    H151629   4.308   1.397   3.220  0.8155 -1.4268 -2.0557
10046TIP3    H251630   4.270   1.538   3.182 -1.8558 -0.7173  2.9060
10047TIP3   OH251631   2.009   4.998  13.711 -0.2779  0.4034  0.4734
10047TIP3    H151632   1.934   4.957  13.754 -0.1334 -0.1304  0.2174
10047TIP3    H251633   2.085   4.953  13.747 -0.0607  1.1321  0.9387
10048TIP3   OH251634   4.615   4.034   2.999 -0.7895 -0.1339 -0.1629
10048TIP3    H151635   4.582   4.088   2.927 -0.4447  0.2692 -0.0165
10048TIP3    H251636   4.546   4.038   3.065 -0.0196  1.5495  0.5706
10049TIP3   OH251637   0.106   6.255  13.008 -0.2121 -0.0990  0.5004
10049TIP3    H151638   0.104   6.328  13.070 -1.2896 -1.3628  1.9945
10049TIP3    H251639   0.033   6.271  12.949  1.2193  1.4632 -0.9073
10050TIP3   OH251640   6.343   3.225   1.007  0.4943  0.0311  0.3489
10050TIP3    H151641   6.369   3.250   0.918  0.0485  0.6380  0.3861
10050TIP3    H251642   6.248   3.230   1.007  0.4213 -1.3050  0.4791
10051TIP3   OH251643   4.349   1.075  15.351  0.4845 -0.9413 -0.5060
10051TIP3    H151644   4.394   1.160  15.351  1.4692 -1.4136  2.3195
10051TIP3    H251645   4.372   1.036  15.267  3.5511 -0.1777 -0.0947
10052TIP3   OH251646   0.239   6.492   4.611  0.4490  0.3073  0.1806
10052TIP3    H151647   0.305   6.560   4.626 -1.0646  1.7257  0.5379
10052TIP3    H251648   0.156   6.533   4.637 -0.4440 -1.8134  0.7928
10053TIP3   OH251649   5.173   2.902  14.763  0.3208  0.0648 -0.2756
10053TIP3    H151650   5.087   2.910  14.804  0.8294  0.4499  0.7492
10053TIP3    H251651   5.155   2.880  14.672 -0.8663  0.4710 -0.1449
10054TIP3   OH251652   0.713   0.469   2.289 -0.6748 -0.1928 -0.0962
10054TIP3    H151653   0.683   0.520   2.364  0.7639  0.4465  0.0667
10054TIP3    H251654   0.699   0.378   2.313 -0.4808  0.0239  0.8326
10055TIP3   OH251655   1.696   6.543   4.620  0.1060 -0.7683  0.2336
10055TIP3    H151656   1.623   6.482   4.605 -0.4975 -0.6255  2.5313
10055TIP3    H251657   1.774   6.487   4.613 -0.1965 -1.0164 -1.7051
10056TIP3   OH251658   2.227   3.554  15.325 -0.4154 -0.1333  0.1365
10056TIP3    H151659   2.232   3.523  15.234 -1.4094  0.2327 -0.0592
10056TIP3    H251660   2.135   3.577  15.336 -0.2194  0.1712  1.1298
10057TIP3   OH251661   2.850   1.143   0.862 -0.2355 -0.3890  0.1441
10057TIP3    H151662   2.834   1.227   0.906 -0.8397 -0.7673  0.6380
10057TIP3    H251663   2.764   1.109   0.841 -0.1092 -2.2608  2.5236
10058TIP3   OH251664   1.728   3.653  10.800  0.7592 -0.2654 -0.3746
10058TIP3    H151665   1.771   3.568  10.808 -1.4003 -1.2048  2.0222
10058TIP3    H251666   1.685   3.665  10.885  0.0305  2.6767 -1.1312
10059TIP3   OH251667   2.613   6.737   2.413  0.1303  0.1264 -0.8710
10059TIP3    H151668   2.551   6.671   2.443 -0.2384  0.3060 -1.2359
10059TIP3    H251669   2.692   6.687   2.390  0.0092 -0.1348 -0.7165
10060TIP3   OH251670   4.724   1.752  16.067 -0.4685 -0.8703  0.7427
10060TIP3    H151671   4.667   1.717  15.998  3.2624 -0.6521 -2.6362
10060TIP3    H251672   4.808   1.707  16.054  1.2916  1.5520  3.1210
10061TIP3   OH251673   6.310   6.185  16.543 -0.0544  0.1272 -0.2020
10061TIP3    H151674   6.300   6.272  16.504  0.4650  0.6902  0.9064
10061TIP3    H251675   6.405   6.175  16.554 -0.1724 -0.1934  0.5370
10062TIP3   OH251676   6.676   1.047  15.203 -0.0155  0.3242  0.1605
10062TIP3    H151677   6.606   1.091  15.250  0.1506  1.3929 -0.5873
10062TIP3    H251678   6.702   0.975  15.261 -1.5340  0.0728  0.5623
10063TIP3   OH251679   3.822   1.859   5.691  0.5314  0.0193  0.6268
10063TIP3    H151680   3.761   1.793   5.657  1.2001  0.3281 -1.2711
10063TIP3    H251681   3.852   1.823   5.774 -1.6632 -0.4808  1.2473
10064TIP3   OH251682   5.508   4.254  15.997 -0.0585  0.1092  0.3367
10064TIP3    H151683   5.520   4.171  16.043  0.6065  0.4986  0.8704
10064TIP3    H251684   5.594   4.297  16.001 -0.3270  0.7070 -0.1654
10065TIP3   OH251685   2.708   5.283   3.221  0.2779  0.5238  0.5844
10065TIP3    H151686   2.689   5.372   3.253  0.3389  0.7176  0.0886
10065TIP3    H251687   2.797   5.289   3.187  0.8326 -0.0975  1.8789
10066TIP3   OH251688   4.383   5.728   5.434 -0.1117  0.0373 -0.5363
10066TIP3    H151689   4.316   5.685   5.487  0.3201 -1.5600 -1.2365
10066TIP3    H251690   4.355   5.713   5.344  1.1828 -0.6802 -0.8342
10067TIP3   OH251691   3.115   3.791  15.865 -0.1703 -0.1010  0.6734
10067TIP3    H151692   3.071   3.864  15.909  0.2533  1.1904 -0.9684
10067TIP3    H251693   3.045   3.731  15.842 -0.7941  0.8335  0.1118
10068TIP3   OH251694   3.939   0.398   3.497  0.7328 -0.2823  0.2401
10068TIP3    H151695   3.969   0.448   3.421 -0.5848 -0.0358 -0.1356
10068TIP3    H251696   3.849   0.373   3.475  0.7289 -1.1768  1.2399
10069TIP3   OH251697   1.057   0.296   4.248  0.4006  0.6159 -0.2818
10069TIP3    H151698   0.964   0.276   4.251  0.7228 -0.9729 -0.3738
10069TIP3    H251699   1.100   0.216   4.279  1.7882  0.6158 -2.0670
10070TIP3   OH251700   4.887   0.005   0.700  0.6401 -0.3500 -0.1266
10070TIP3    H151701   4.911  -0.010   0.608  0.4994 -1.1545 -0.0405
10070TIP3    H251702   4.966  -0.016   0.749  0.0174 -2.2808  0.1037
10071TIP3   OH251703   3.682   6.811  12.888  0.6245 -0.4578  0.6169
10071TIP3    H151704   3.721   6.890  12.925 -1.3098  0.5194  0.6448
10071TIP3    H251705   3.600   6.801  12.935  0.5253 -2.1086  0.1209
10072TIP3   OH251706   1.614   3.836   1.593 -0.2606  0.0761  0.0335
10072TIP3    H151707   1.627   3.741   1.595 -2.2581 -0.2465 -1.4184
10072TIP3    H251708   1.676   3.867   1.527 -1.5121 -0.5485 -1.4472
10073TIP3   OH251709   1.492   6.397   4.019  0.3163  0.0462 -0.3865
10073TIP3    H151710   1.405   6.385   4.057 -0.6202  0.3191 -2.3803
10073TIP3    H251711   1.551   6.400   4.094 -1.4292  0.1491  1.0054
10074TIP3   OH251712   2.795   0.735  14.314 -0.3963  0.1741 -0.3467
10074TIP3    H151713   2.759   0.779  14.392 -0.3224 -1.4280  0.6228
10074TIP3    H251714   2.732   0.665  14.296  0.3877 -0.4081 -0.8129
10075TIP3   OH251715   5.492   1.277  15.707 -0.2934 -0.6936 -0.5464
10075TIP3    H151716   5.534   1.350  15.661  0.9340 -1.5383 -0.7789
10075TIP3    H251717   5.553   1.204  15.697 -0.3363 -1.0831  1.8258
10076TIP3   OH251718   4.393   3.261   1.534  0.2366  0.2049  0.8180
10076TIP3    H151719   4.435   3.179   1.510  3.0495  2.1288 -1.2830
10076TIP3    H251720   4.328   3.276   1.465 -0.6355 -0.4536  1.4785
10077TIP3   OH251721   2.800   1.675  16.233  0.3574 -0.0840 -0.1859
10077TIP3    H151722   2.835   1.764  16.237  0.1407 -0.0145  0.1076
10077TIP3    H251723   2.727   1.681  16.171  0.2625 -0.0316 -0.0680
10078TIP3   OH251724   1.279   6.429  13.454 -0.0110  0.1403 -0.3883
10078TIP3    H151725   1.361   6.458  13.415  0.2132  0.8994  0.6435
10078TIP3    H251726   1.254   6.499  13.514 -0.2076 -1.1470  1.0622
10079TIP3   OH251727   0.173   0.306   1.060 -0.2835 -0.2963 -0.1520
10079TIP3    H151728   0.099   0.250   1.084 -0.7645  0.4711  0.1785
10079TIP3    H251729   0.241   0.245   1.033 -0.9974 -1.0202 -0.3492
10080TIP3   OH251730   2.804   1.458  11.166 -0.4204 -0.1293 -0.3526
10080TIP3    H151731   2.805   1.378  11.114 -0.8048 -1.5239  1.7494
10080TIP3    H251732   2.712   1.487  11.163 -0.5220 -0.4324 -0.0799
10081TIP3   OH251733   1.148   2.730  10.500  0.2339 -0.1831  0.4689
10081TIP3    H151734   1.190   2.738  10.586 -0.2062 -1.2392  0.7927
10081TIP3    H251735   1.063   2.690  10.519 -0.5468  1.0878 -0.2798
10082TIP3   OH251736   5.048   5.987   0.877  0.2686 -0.4385 -0.8282
10082TIP3    H151737   5.078   5.897   0.874 -1.0759 -0.8790 -1.2298
10082TIP3    H251738   5.053   6.017   0.786 -1.5907 -0.8911 -1.1019
10083TIP3   OH251739   1.922   1.988   1.845  0.6495 -0.0968 -0.6123
10083TIP3    H151740   1.951   2.078   1.830 -0.1258  0.7475  2.5468
10083TIP3    H251741   1.943   1.971   1.937 -0.3485 -2.7220 -0.8196
10084TIP3   OH251742   4.360   1.144  12.831 -0.6060 -0.2359 -0.1131
10084TIP3    H151743   4.441   1.104  12.798  0.5745  0.4801  1.8213
10084TIP3    H251744   4.324   1.190  12.755  0.6019 -0.8791 -1.1056
10085TIP3   OH251745   6.086   3.696   1.717 -0.2687 -0.0881  0.3931
10085TIP3    H151746   6.032   3.647   1.778  0.4662 -2.1619 -0.5900
10085TIP3    H251747   6.176   3.673   1.741  0.0626  0.3026 -0.4643
10086TIP3   OH251748   5.232   1.484   3.585 -0.6052  0.2793 -0.4609
10086TIP3    H151749   5.298   1.534   3.634 -0.9317 -0.1062  0.3671
10086TIP3    H251750   5.177   1.551   3.544 -0.0379  0.6022 -0.7013
10087TIP3   OH251751   2.434   1.088   1.289 -0.4013  0.5708  0.6884
10087TIP3    H151752   2.339   1.076   1.295 -0.1727 -1.7140 -0.0099
10087TIP3    H251753   2.445   1.163   1.230 -1.7549 -0.0289 -0.3521
10088TIP3   OH251754   5.625   0.766  12.160  0.6569 -0.5671 -0.0568
10088TIP3    H151755   5.622   0.730  12.071  0.6562 -1.2122  0.2047
10088TIP3    H251756   5.587   0.698  12.215  0.7025 -0.1854  0.4477
10089TIP3   OH251757   5.262   4.076  15.174 -0.3538  0.3110 -0.2512
10089TIP3    H151758   5.215   4.064  15.257 -1.2310 -1.4085 -0.9805
10089TIP3    H251759   5.329   4.141  15.194 -1.4586  0.9517  1.4483
10090TIP3   OH251760   3.068   2.484  14.890  0.0653 -0.5514  0.8443
10090TIP3    H151761   3.018   2.565  14.886  0.1937 -0.4853  0.5672
10090TIP3    H251762   3.141   2.498  14.829 -0.0533 -0.9716  0.6072
10091TIP3   OH251763   5.524   1.277  12.003 -1.0437 -0.0104 -0.1695
10091TIP3    H151764   5.533   1.349  12.065 -1.1291 -0.4893  0.4033
10091TIP3    H251765   5.509   1.200  12.058  1.6036 -0.9116 -0.6253
10092TIP3   OH251766   0.006   2.169  13.516  0.3423  0.1024 -0.5011
10092TIP3    H151767  -0.018   2.081  13.544 -1.1867 -0.1554 -2.4614
10092TIP3    H251768  -0.019   2.172  13.423  1.8775  2.0601 -0.8948
10093TIP3   OH251769   1.830   5.413   6.007 -0.4906  0.0326 -0.3500
10093TIP3    H151770   1.753   5.467   5.991 -0.5315  0.3884  0.9457
10093TIP3    H251771   1.813   5.371   6.092  0.5820 -0.1620 -0.2179
10094TIP3   OH251772   2.017   2.477  12.777 -0.0899  1.4278 -0.4100
10094TIP3    H151773   1.932   2.485  12.733 -1.3487 -0.8147  1.4890
10094TIP3    H251774   2.000   2.509  12.866  0.9870  0.6979  0.0575
10095TIP3   OH251775   4.721   4.029   2.017 -0.0595 -0.0316 -0.1969
10095TIP3    H151776   4.681   4.089   1.954  0.5919 -0.4454 -1.0304
10095TIP3    H251777   4.653   4.013   2.082 -1.1287 -0.4658 -1.4004
10096TIP3   OH251778   6.035   4.265  14.324 -0.8621 -0.4124  0.2456
10096TIP3    H151779   6.024   4.177  14.289 -1.2654  0.0505 -0.7892
10096TIP3    H251780   6.106   4.256  14.388 -0.9105 -1.4864  0.1578
10097TIP3   OH251781   1.290   4.118  17.138  0.3894 -0.3654  0.0327
10097TIP3    H151782   1.204   4.082  17.161 -0.7791  0.0452 -3.3173
10097TIP3    H251783   1.352   4.066  17.189 -1.6700 -2.7869  0.1735
10098TIP3   OH251784   3.387   2.765  12.097  0.1630 -0.2490 -0.0054
10098TIP3    H151785   3.433   2.705  12.156 -0.4103  0.3552  1.0775
10098TIP3    H251786   3.436   2.762  12.016  1.8079 -0.0315  0.9591
10099TIP3   OH251787   0.250   2.130   1.482  0.3102 -0.4244 -0.1762
10099TIP3    H151788   0.340   2.159   1.471  0.5923 -1.3837 -0.4552
10099TIP3    H251789   0.202   2.208   1.509  1.3545 -0.0590  0.6269
10100TIP3   OH251790   1.338   1.461  13.746 -0.2749  0.3578 -0.2289
10100TIP3    H151791   1.263   1.517  13.728 -0.3839  0.4646  0.5406
10100TIP3    H251792   1.301   1.387  13.794  0.2538  0.8821  1.0011
10101TIP3   OH251793   3.375   2.172   1.949 -0.6328  0.0893  0.0904
10101TIP3    H151794   3.389   2.230   2.023  2.0616 -0.3906  0.0156
10101TIP3    H251795   3.317   2.220   1.891  1.9081  2.9689 -0.2030
10102TIP3   OH251796   3.076   5.617  17.003 -0.1172 -0.4240  0.0944
10102TIP3    H151797   3.023   5.572  16.937  1.3161 -1.6869 -0.2428
10102TIP3    H251798   3.051   5.575  17.086 -0.9147  0.2030  0.1741
10103TIP3   OH251799   3.613   0.218   1.175 -0.2755 -0.7858  0.0288
10103TIP3    H151800   3.657   0.175   1.101  1.0904  1.4112 -0.4943
10103TIP3    H251801   3.563   0.289   1.135 -1.2095 -0.8720  1.0243
10104TIP3   OH251802   3.819   4.572   0.679 -0.5559 -0.2742  0.1254
10104TIP3    H151803   3.724   4.568   0.674 -0.6227  1.4722 -0.1602
10104TIP3    H251804   3.837   4.642   0.742  0.5479 -1.0158  0.6628
10105TIP3   OH251805   1.216   5.418  12.938  0.0946 -0.5034  0.2563
10105TIP3    H151806   1.122   5.404  12.931  0.3212 -1.8174 -0.3971
10105TIP3    H251807   1.237   5.478  12.866 -0.1700 -0.6079  0.0931
10106TIP3   OH251808   4.721   3.455  15.872  0.4960 -0.3253  0.8841
10106TIP3    H151809   4.696   3.367  15.900 -0.2586 -1.3663 -2.8071
10106TIP3    H251810   4.815   3.449  15.855  0.2828 -0.6669 -0.1940
10107TIP3   OH251811   2.839   1.412  12.395 -0.0091  0.3949 -0.2538
10107TIP3    H151812   2.896   1.342  12.362 -0.6449 -0.4562  0.4589
10107TIP3    H251813   2.797   1.375  12.472 -1.1751  1.1904 -0.4970
10108TIP3   OH251814   0.558   1.831  11.772  1.0174 -0.1217  0.1712
10108TIP3    H151815   0.586   1.841  11.680  1.7685 -1.9887  0.1632
10108TIP3    H251816   0.463   1.838  11.769  1.1003  0.7969 -0.6138
10109TIP3   OH251817   0.633   3.436  12.593 -0.1265  0.3679  0.4214
10109TIP3    H151818   0.570   3.370  12.622 -0.0950  0.6314  1.1105
10109TIP3    H251819   0.635   3.427  12.498 -0.6450 -0.1506  0.4536
10110TIP3   OH251820   4.005   4.611  14.078 -0.2983 -0.7986 -0.5585
10110TIP3    H151821   4.002   4.705  14.061 -0.8507 -0.8622 -0.8335
10110TIP3    H251822   3.928   4.593  14.131  0.7608 -0.8137  1.0198
10111TIP3   OH251823   5.758   0.645  16.254 -0.1843  0.8254 -0.2336
10111TIP3    H151824   5.723   0.697  16.326 -2.1962 -0.7084 -0.0492
10111TIP3    H251825   5.848   0.677  16.241 -0.3034  2.0850  1.9893
10112TIP3   OH251826   5.977   6.538   1.503  0.1143 -0.7384 -0.2104
10112TIP3    H151827   6.057   6.513   1.455 -0.2603 -0.8008 -0.8094
10112TIP3    H251828   5.980   6.485   1.583  0.3522 -1.2134 -0.5308
10113TIP3   OH251829   4.828   2.813   3.363 -0.0314 -0.8835 -0.5825
10113TIP3    H151830   4.917   2.803   3.395 -0.0981 -0.2387 -0.1974
10113TIP3    H251831   4.807   2.728   3.323  0.5778 -1.1915 -0.2461
10114TIP3   OH251832   2.876   5.650  14.240 -0.2833 -0.0541 -0.2688
10114TIP3    H151833   2.816   5.719  14.212 -0.9541 -0.5419 -0.0341
10114TIP3    H251834   2.887   5.595  14.162 -2.7831 -1.8722  0.5760
10115TIP3   OH251835   6.202   2.175  14.389  0.0236 -0.7256  0.0716
10115TIP3    H151836   6.183   2.082  14.372  0.5219 -0.8967  0.4432
10115TIP3    H251837   6.131   2.222  14.345 -0.1741 -1.2798 -0.2083
10116TIP3   OH251838   1.444   2.675   4.697 -0.1462  0.4454 -0.1965
10116TIP3    H151839   1.388   2.728   4.755 -2.0203 -0.9965 -0.6323
10116TIP3    H251840   1.506   2.633   4.757 -1.5906 -0.4504  0.7033
10117TIP3   OH251841   0.507   1.317  16.208 -0.4226  0.1448  0.0485
10117TIP3    H151842   0.570   1.323  16.280  0.1098  0.6311 -0.4510
10117TIP3    H251843   0.421   1.320  16.251 -0.1267 -1.9726  0.8525
10118TIP3   OH251844   5.086   6.376  12.987  0.3609  0.1474 -0.5277
10118TIP3    H151845   5.141   6.441  12.944  1.9313 -0.8463 -0.0433
10118TIP3    H251846   5.147   6.321  13.036 -0.7662 -2.6386 -2.1259
10119TIP3   OH251847   3.957   6.368   5.739  0.4695  0.0124  0.6890
10119TIP3    H151848   3.902   6.383   5.816 -1.2136  3.0895 -1.0139
10119TIP3    H251849   4.036   6.421   5.756  0.4827 -0.0048  0.6813
10120TIP3   OH251850   0.507   6.448  11.217 -0.5569 -0.2204  0.5281
10120TIP3    H151851   0.471   6.505  11.149  1.1075 -2.4453 -2.3259
10120TIP3    H251852   0.475   6.361  11.194  1.7437 -1.3206  1.4014
10121TIP3   OH251853   3.345   5.170  14.464  0.2554  0.0514  0.3709
10121TIP3    H151854   3.420   5.183  14.406  0.4117  0.2990  0.6286
10121TIP3    H251855   3.323   5.077  14.455  1.7476 -0.4605  1.6985
10122TIP3   OH251856   6.245   5.702   4.630  0.1270  0.4182  0.8047
10122TIP3    H151857   6.276   5.781   4.675  2.0690  0.2941 -0.2416
10122TIP3    H251858   6.251   5.633   4.695  0.6031  0.7017  1.0656
10123TIP3   OH251859   3.130   1.555   4.185  0.3187  0.4089 -0.0082
10123TIP3    H151860   3.220   1.558   4.220 -0.2706 -0.0230  1.5912
10123TIP3    H251861   3.124   1.632   4.128  1.1064  1.5217  1.3674
10124TIP3   OH251862   0.342   3.919  14.739  0.2712 -0.0088 -0.2866
10124TIP3    H151863   0.270   3.885  14.685  1.1519 -0.8965 -0.9057
10124TIP3    H251864   0.396   3.843  14.758 -0.0007  0.3040  1.8268
10125TIP3   OH251865   0.618   1.403  10.456  0.4362 -0.0665  0.2070
10125TIP3    H151866   0.665   1.346  10.518  0.1828 -1.3635 -0.7564
10125TIP3    H251867   0.528   1.401  10.486  0.2984 -0.7609 -0.2300
10126TIP3   OH251868   5.099   6.507  16.205 -0.5009  0.1386  0.7757
10126TIP3    H151869   5.022   6.451  16.220 -0.1389 -0.7899 -0.6796
10126TIP3    H251870   5.173   6.446  16.207  0.0920  0.8709  1.1311
10127TIP3   OH251871   1.530   2.755   5.211  0.4800  0.8615 -0.5707
10127TIP3    H151872   1.554   2.717   5.295 -0.4666  0.8131 -0.3229
10127TIP3    H251873   1.614   2.768   5.166  0.8970 -0.2828 -0.1363
10128TIP3   OH251874   2.158   2.545   3.181 -0.1258  0.5208  0.0645
10128TIP3    H151875   2.176   2.595   3.101 -3.1499  0.9244 -0.4291
10128TIP3    H251876   2.213   2.586   3.248  0.3432  2.0120 -1.2095
10129TIP3   OH251877   1.664   1.918  16.424  0.3842  0.3489  0.5333
10129TIP3    H151878   1.733   1.936  16.360  0.1985  1.2473  0.5836
10129TIP3    H251879   1.611   1.997  16.426 -1.6830 -0.9754 -0.7508
10130TIP3   OH251880   4.518   5.667   0.885  0.3799 -0.1632  0.1854
10130TIP3    H151881   4.531   5.723   0.808 -0.0535 -1.3629 -0.7862
10130TIP3    H251882   4.556   5.583   0.860 -0.8627 -0.9338  0.8019
10131TIP3   OH251883   3.573   3.255  11.035  0.2415 -0.5005  0.2103
10131TIP3    H151884   3.662   3.225  11.050  0.8706  0.3047 -1.8272
10131TIP3    H251885   3.581   3.328  10.973 -1.8889 -0.9508 -0.6592
10132TIP3   OH251886   6.104   2.518  12.741 -0.0207  0.1925  0.4427
10132TIP3    H151887   6.157   2.597  12.749 -0.4766  0.5604 -0.1151
10132TIP3    H251888   6.160   2.448  12.775  0.1074  0.8660  1.6351
10133TIP3   OH251889   4.006   5.869  11.906  0.2051  0.2938  0.2999
10133TIP3    H151890   4.086   5.817  11.907 -1.1711 -1.9145  0.6537
10133TIP3    H251891   3.960   5.842  11.826 -1.4629 -0.5694  1.5012
10134TIP3   OH251892   5.678   0.232  10.522  0.3438 -0.5633  0.3579
10134TIP3    H151893   5.622   0.297  10.480 -1.2861  0.2887  3.7188
10134TIP3    H251894   5.659   0.151  10.474  0.7819  0.9027 -2.4366
10135TIP3   OH251895   3.543   0.719   5.952  0.7402  0.0504 -0.6002
10135TIP3    H151896   3.539   0.661   5.875  0.9429 -1.6163  0.6131
10135TIP3    H251897   3.557   0.659   6.026 -0.7088  1.5142  0.8942
10136TIP3   OH251898   6.652   4.231  17.192 -0.1372 -0.4506 -0.5834
10136TIP3    H151899   6.575   4.188  17.153 -0.3294 -1.1971  0.5943
10136TIP3    H251900   6.725   4.200  17.139 -0.3289 -1.9101 -0.0354
10137TIP3   OH251901   1.918   0.742  14.957 -0.1038  0.1009 -0.4829
10137TIP3    H151902   1.978   0.678  14.919  1.6226  1.7287 -0.5760
10137TIP3    H251903   1.885   0.791  14.882  1.8677  2.0923 -0.0854
10138TIP3   OH251904   0.385   3.436  13.481 -0.0947 -0.2129  0.1192
10138TIP3    H151905   0.439   3.391  13.546 -2.7668 -0.8343  2.0266
10138TIP3    H251906   0.320   3.371  13.455 -1.7046  1.3763  0.1014
10139TIP3   OH251907   5.707   5.044  14.596  0.7101  0.5529  0.4089
10139TIP3    H151908   5.629   5.015  14.548  0.7596 -0.0819  0.7030
10139TIP3    H251909   5.761   5.087  14.531  1.5479 -1.7851 -0.4917
10140TIP3   OH251910   4.574   3.434   1.350 -0.4794  0.3366 -0.3731
10140TIP3    H151911   4.544   3.453   1.261 -3.6707 -0.8004  0.4049
10140TIP3    H251912   4.558   3.340   1.361  0.2849  0.3800  1.2815
10141TIP3   OH251913   2.416   2.244   0.038 -0.3089 -0.1509 -0.0513
10141TIP3    H151914   2.410   2.338   0.051  1.2833 -0.0344 -0.0004
10141TIP3    H251915   2.452   2.234  -0.050 -0.9526 -0.7191 -0.2474
10142TIP3   OH251916   2.637   1.235   5.368 -0.0753 -0.3044  0.3983
10142TIP3    H151917   2.594   1.299   5.310  1.1289 -1.7952 -2.2393
10142TIP3    H251918   2.565   1.196   5.418 -1.0947  1.3818  0.2963
10143TIP3   OH251919   3.599   5.611   5.412  0.2502 -0.0082 -0.1286
10143TIP3    H151920   3.507   5.593   5.395  0.6628 -0.6741 -1.8277
10143TIP3    H251921   3.605   5.706   5.414 -0.2335  0.0623 -1.5490
10144TIP3   OH251922   0.890   4.238   5.215  1.1486  0.2010  0.6476
10144TIP3    H151923   0.873   4.162   5.271  2.7359 -0.2416  0.5548
10144TIP3    H251924   0.844   4.219   5.133  1.9553 -0.8990  0.4407
10145TIP3   OH251925   1.748   3.709  16.586  0.3094 -0.2567 -0.3133
10145TIP3    H151926   1.706   3.784  16.544 -1.6574 -1.7172 -1.0482
10145TIP3    H251927   1.678   3.666  16.635  2.3603  0.9128  3.8770
10146TIP3   OH251928   3.415   2.739  12.849 -0.9201 -0.2723 -0.0699
10146TIP3    H151929   3.469   2.804  12.804 -0.1522 -2.1352 -1.9289
10146TIP3    H251930   3.339   2.728  12.792 -0.6022 -1.6558 -0.2385
10147TIP3   OH251931   2.166   6.089  11.668 -0.5023 -0.0535 -0.1658
10147TIP3    H151932   2.207   6.015  11.713 -0.6994  0.4897  0.9244
10147TIP3    H251933   2.144   6.055  11.581  0.2005 -1.0127  0.0251
10148TIP3   OH251934   3.406   3.728  11.266  0.6553 -0.1472  0.3306
10148TIP3    H151935   3.385   3.635  11.259  0.3923 -0.1194  0.7347
10148TIP3    H251936   3.452   3.749  11.184 -1.6067 -0.0199 -0.9258
10149TIP3   OH251937   5.695   3.870   3.902  0.2256  0.4052  0.8076
10149TIP3    H151938   5.783   3.907   3.895 -1.2597  3.9095 -0.5841
10149TIP3    H251939   5.682   3.822   3.820  0.3731  0.9981  0.4340
10150TIP3   OH251940   3.653   3.035   3.285 -0.3527  0.5882  0.4207
10150TIP3    H151941   3.689   3.056   3.199 -2.1890  2.4896  0.0816
10150TIP3    H251942   3.680   2.944   3.301 -0.0378  0.1958 -2.1849
10151TIP3   OH251943   6.527   2.606  15.959  0.2701  0.2843  0.0318
10151TIP3    H151944   6.439   2.579  15.989  1.0473 -2.0806  0.3187
10151TIP3    H251945   6.524   2.594  15.864  0.1942  0.5024  0.0051
10152TIP3   OH251946   3.464   2.320   0.204  0.8059 -0.3011 -0.4652
10152TIP3    H151947   3.520   2.339   0.280  0.5401 -1.2844 -0.0197
10152TIP3    H251948   3.445   2.406   0.166  2.0864  0.0861 -0.2380
10153TIP3   OH251949   4.526   2.124  11.272 -0.3262  0.0751  0.0769
10153TIP3    H151950   4.569   2.045  11.304 -0.4670  0.7949  2.0833
10153TIP3    H251951   4.597   2.185  11.255 -0.3620  0.3053  0.7368
10154TIP3   OH251952   5.583   0.911  15.228 -0.1267 -0.6603 -0.0342
10154TIP3    H151953   5.587   0.981  15.162  1.3748 -1.8834 -1.2887
10154TIP3    H251954   5.491   0.907  15.253 -0.4269  0.9581 -0.8374
10155TIP3   OH251955   4.261   1.148   1.533 -0.2799  0.5191  0.2112
10155TIP3    H151956   4.228   1.102   1.456 -2.2612 -1.0563  1.9539
10155TIP3    H251957   4.261   1.241   1.507 -1.5051  0.0699 -1.4803
10156TIP3   OH251958   1.630   5.404   3.303 -0.0894 -0.0278 -0.1649
10156TIP3    H151959   1.540   5.375   3.294 -0.0771  0.3454 -1.5026
10156TIP3    H251960   1.624   5.497   3.323  0.0471  0.4932 -2.4643
10157TIP3   OH251961   0.037   3.438   0.916 -0.2647 -0.3937  0.4889
10157TIP3    H151962  -0.022   3.372   0.952  0.3938 -0.8685  0.7222
10157TIP3    H251963   0.024   3.434   0.822  0.6416 -1.7243  0.3975
10158TIP3   OH251964   1.370   0.833  10.765  0.7436 -0.5882 -0.0072
10158TIP3    H151965   1.382   0.895  10.693  0.4853 -1.2592 -0.6400
10158TIP3    H251966   1.453   0.786  10.770  0.0780 -1.9241 -1.2057
10159TIP3   OH251967   4.985   3.223  14.844  0.8275  0.5901  0.3613
10159TIP3    H151968   5.021   3.234  14.756  0.1519  2.6070  0.3127
10159TIP3    H251969   5.018   3.138  14.873  1.4763  0.1395 -1.6329
10160TIP3   OH251970   6.113   5.099  14.927  0.2435  0.5436  0.1539
10160TIP3    H151971   6.147   5.180  14.889  1.5106 -0.9055 -1.8456
10160TIP3    H251972   6.047   5.069  14.864  1.2354 -1.0595 -0.1291
10161TIP3   OH251973   6.753   0.916   4.405  0.3642 -0.4196 -0.3968
10161TIP3    H151974   6.813   0.895   4.476 -0.0369 -0.1922  0.0132
10161TIP3    H251975   6.722   0.831   4.374 -1.1655 -0.4653  1.1800
10162TIP3   OH251976   0.694   2.691  14.196  0.5454 -0.5814 -0.1857
10162TIP3    H151977   0.737   2.636  14.131  0.2340 -1.6377  0.4809
10162TIP3    H251978   0.765   2.734  14.243  0.9366 -2.9379  1.4492
10163TIP3   OH251979   1.637   4.456   1.917  0.0610  0.7150 -0.0885
10163TIP3    H151980   1.645   4.551   1.927 -0.7929  0.8473 -0.5763
10163TIP3    H251981   1.715   4.430   1.869  0.9372  0.9841  1.1484
10164TIP3   OH251982   1.111   6.243   6.025 -0.6474  0.2146 -0.3734
10164TIP3    H151983   1.194   6.259   5.979 -0.4542 -1.7858 -0.7792
10164TIP3    H251984   1.129   6.267   6.116 -0.3867  2.1521 -0.9089
10165TIP3   OH251985   5.113   5.354  13.192  0.1236  0.8845 -0.3786
10165TIP3    H151986   5.042   5.303  13.153  0.7389 -1.3079  1.2860
10165TIP3    H251987   5.189   5.335  13.137  0.1636  0.6551 -0.2441
10166TIP3   OH251988   2.051   3.638  11.572 -0.2628  0.3238 -0.1361
10166TIP3    H151989   2.012   3.685  11.498  1.3065  0.9126 -0.5968
10166TIP3    H251990   2.138   3.612  11.542  1.5404  3.0905  2.4302
10167TIP3   OH251991   4.877   6.204  13.004  0.3052 -0.1965 -0.2420
10167TIP3    H151992   4.940   6.275  12.993  1.8258 -1.3834  0.7045
10167TIP3    H251993   4.902   6.161  13.085 -1.9261 -0.5171  0.3193
10168TIP3   OH251994   3.111   4.063   3.124  0.0508  0.1532  0.0852
10168TIP3    H151995   3.135   4.144   3.079 -0.1427 -0.9326 -2.0384
10168TIP3    H251996   3.018   4.072   3.142  0.3211  0.9808  1.1337
10169TIP3   OH251997   6.302   2.389  10.297 -0.4534  0.0731 -0.0164
10169TIP3    H151998   6.209   2.411  10.296 -0.2178  1.0833 -0.2091
10169TIP3    H251999   6.346   2.472  10.316  0.4733 -0.1140 -1.2943
10170TIP3   OH252000   3.401   2.440   5.488  0.6062 -0.0582 -0.7445
10170TIP3    H152001   3.492   2.412   5.497 -0.0326 -2.2781 -0.9689
10170TIP3    H252002   3.363   2.425   5.575  0.6664  1.7171 -0.3954
10171TIP3   OH252003   5.431   1.444  11.176 -0.4140 -0.4153 -0.0649
10171TIP3    H152004   5.431   1.459  11.081 -0.8614  0.5101  0.0877
10171TIP3    H252005   5.347   1.402  11.194  0.1142 -1.5829 -0.2259
10172TIP3   OH252006   6.226   5.646   1.531  0.3281  0.0696 -0.8413
10172TIP3    H152007   6.216   5.567   1.584 -0.5944  0.7890  0.0880
10172TIP3    H252008   6.319   5.669   1.537 -0.2942  1.8693  3.0301
10173TIP3   OH252009   0.425   6.540   0.601  0.3171 -0.4085 -0.2163
10173TIP3    H152010   0.414   6.481   0.526  0.4983  1.2400 -1.5542
10173TIP3    H252011   0.514   6.574   0.591  0.6318 -0.7948  1.2139
10174TIP3   OH252012   1.993   2.761  11.870  0.5376  0.1899  0.3776
10174TIP3    H152013   2.087   2.744  11.866  0.4350 -0.1987 -0.7952
10174TIP3    H252014   1.956   2.705  11.801 -0.4844  0.7339  0.4760
10175TIP3   OH252015   2.784   2.249  16.683  0.1136  0.0060 -0.1527
10175TIP3    H152016   2.825   2.307  16.618 -0.3950 -0.7736 -1.1595
10175TIP3    H252017   2.831   2.166  16.674  0.1626 -0.0518  0.6055
10176TIP3   OH252018   3.530   2.379  12.788 -0.3146  0.2804  0.0887
10176TIP3    H152019   3.509   2.372  12.695  0.3811  2.8753 -0.3026
10176TIP3    H252020   3.618   2.343  12.796  0.1773  1.3067 -0.5279
10177TIP3   OH252021   1.319   0.645  15.337 -0.0012 -0.0897  0.0991
10177TIP3    H152022   1.369   0.680  15.264 -2.3015  0.0696 -1.4414
10177TIP3    H252023   1.320   0.550  15.324  0.8544 -0.1651  0.7055
10178TIP3   OH252024   3.815   0.568  15.893  0.5524  0.1789 -0.0235
10178TIP3    H152025   3.735   0.615  15.915 -0.1182 -0.6785 -0.5717
10178TIP3    H252026   3.784   0.484  15.857  1.7087 -1.2659  2.2091
10179TIP3   OH252027   5.489   3.583  13.740 -0.4856  0.6776  0.0214
10179TIP3    H152028   5.523   3.597  13.828  1.2044  0.4278 -0.5768
10179TIP3    H252029   5.425   3.512  13.750  0.7735 -0.3599  0.8167
10180TIP3   OH252030   2.338   3.250   5.835  0.2722 -0.1633 -0.0555
10180TIP3    H152031   2.283   3.258   5.757  1.6634 -2.4426 -1.3177
10180TIP3    H252032   2.295   3.305   5.901 -0.7735  2.0252 -2.4882
10181TIP3   OH252033   0.671   3.403   4.713  0.3181  0.4175  0.3029
10181TIP3    H152034   0.647   3.347   4.639  0.6550  0.0362  0.4779
10181TIP3    H252035   0.652   3.350   4.790 -0.9024  1.1595  0.5266
10182TIP3   OH252036   0.299   2.551  13.098 -0.1239  0.0787  0.0183
10182TIP3    H152037   0.225   2.490  13.104  0.5630 -0.8853 -1.1810
10182TIP3    H252038   0.257   2.637  13.089 -1.1335 -0.5849 -1.9849
10183TIP3   OH252039   1.534   3.746   4.647 -0.5565 -0.6820 -0.2050
10183TIP3    H152040   1.467   3.679   4.656 -0.4454 -0.7979 -0.2513
10183TIP3    H252041   1.485   3.825   4.624 -0.7417 -0.6195  0.3925
10184TIP3   OH252042   2.837   1.429  14.576  0.0590 -0.5846  0.2065
10184TIP3    H152043   2.754   1.384  14.593  0.8265 -1.6413  1.2504
10184TIP3    H252044   2.830   1.461  14.486 -1.1454 -1.3831  0.0132
10185TIP3   OH252045   3.162   0.613  12.120  0.3521  0.3548 -0.6741
10185TIP3    H152046   3.138   0.614  12.028  0.6231  1.1029 -0.7342
10185TIP3    H252047   3.198   0.525  12.135  0.6448  0.3607 -1.3602
10186TIP3   OH252048   4.433   3.808   2.566 -0.2028  0.6006 -0.1997
10186TIP3    H152049   4.364   3.820   2.632 -0.3150  1.9367 -0.5326
10186TIP3    H252050   4.406   3.731   2.516 -1.1263  0.7384  0.0777
10187TIP3   OH252051   5.425   0.006   6.045  0.1254  0.2557  0.0754
10187TIP3    H152052   5.384  -0.063   6.097 -0.6205  0.1507 -0.6414
10187TIP3    H252053   5.442   0.076   6.108 -0.6606  0.0821  0.4904
10188TIP3   OH252054   2.782   0.723   2.556  0.4434  0.0408  0.1015
10188TIP3    H152055   2.709   0.781   2.535 -0.4461 -1.2499 -0.3989
10188TIP3    H252056   2.779   0.715   2.652 -1.1939 -1.4374 -0.0499
10189TIP3   OH252057   6.555   2.824  17.095  0.1583 -0.2275 -0.1853
10189TIP3    H152058   6.624   2.871  17.142 -0.4936 -1.2727  1.8543
10189TIP3    H252059   6.501   2.785  17.164 -1.4346 -0.9182 -1.7883
10190TIP3   OH252060   6.011   1.383  11.323 -0.2403 -0.0026 -0.0418
10190TIP3    H152061   6.023   1.478  11.321 -0.1387 -0.0068  0.3994
10190TIP3    H252062   6.028   1.358  11.414 -0.2519 -0.4454 -0.1594
10191TIP3   OH252063   3.575   6.546   5.288 -0.5018  0.6468 -0.0189
10191TIP3    H152064   3.566   6.468   5.234  0.1530  0.5728 -0.0247
10191TIP3    H252065   3.653   6.590   5.254  1.1076 -0.4395  2.1514
10192TIP3   OH252066   3.974   0.409   0.710  0.2393 -0.1539  0.1241
10192TIP3    H152067   4.050   0.462   0.733 -1.2403  0.8316  3.0614
10192TIP3    H252068   3.920   0.466   0.656 -0.0836  0.4451  1.0587
10193TIP3   OH252069   0.304   5.746   4.780  0.4542 -0.1936 -0.4602
10193TIP3    H152070   0.304   5.786   4.867 -1.1233 -1.1000 -0.0278
10193TIP3    H252071   0.247   5.803   4.728 -2.1757 -2.0687  0.2777
10194TIP3   OH252072   5.979   5.648   1.166 -0.8288 -0.0680 -0.1060
10194TIP3    H152073   5.901   5.624   1.117 -1.3627  1.1080  0.1424
10194TIP3    H252074   5.954   5.641   1.258 -0.4015 -0.4491 -0.0158
10195TIP3   OH252075   4.528   1.503   3.900  0.2158  0.2314  0.6899
10195TIP3    H152076   4.513   1.570   3.967  1.3072 -1.2330  2.4697
10195TIP3    H252077   4.452   1.445   3.906  0.0717  0.3785  0.3061
10196TIP3   OH252078   0.427   4.186   0.852  0.1554  0.4585 -0.5775
10196TIP3    H152079   0.502   4.231   0.891  0.5838 -1.8501  1.3317
10196TIP3    H252080   0.466   4.115   0.801 -0.6886 -0.1016 -0.4535
10197TIP3   OH252081   6.731   5.095  13.318  0.2529 -1.0592 -0.0517
10197TIP3    H152082   6.812   5.056  13.286  0.0484  1.1811 -3.5950
10197TIP3    H252083   6.745   5.189  13.310 -2.6059 -0.6330 -0.5183
10198TIP3   OH252084   0.999   1.110   2.077  0.9130  0.3526 -0.2204
10198TIP3    H152085   0.929   1.139   2.136 -0.2830 -0.7623 -1.0990
10198TIP3    H252086   1.001   1.177   2.008  0.9349  0.5469 -0.0343
10199TIP3   OH252087   2.426   3.848  11.883  0.1550 -0.0191 -0.1723
10199TIP3    H152088   2.483   3.786  11.929 -1.2573 -1.8668 -0.8154
10199TIP3    H252089   2.378   3.893  11.953  0.4695 -0.3730  0.2759
10200TIP3   OH252090   1.099   5.540  15.360  0.3006  0.3267  0.6029
10200TIP3    H152091   1.124   5.608  15.422 -0.2330  0.5553  0.5704
10200TIP3    H252092   1.136   5.459  15.396  1.3511  0.7139  0.3864
10201TIP3   OH252093   3.266   6.704   5.558  0.2379  0.3740  0.3235
10201TIP3    H152094   3.262   6.786   5.607  1.5373 -0.4525  1.8863
10201TIP3    H252095   3.239   6.638   5.622  0.3078 -0.5410 -0.5889
10202TIP3   OH252096   2.721   0.078   1.655  0.7925 -0.3583  0.3102
10202TIP3    H152097   2.729   0.167   1.621  0.8848 -0.6987 -0.5599
10202TIP3    H252098   2.655   0.084   1.724 -1.2129 -0.1576 -1.5938
10203TIP3   OH252099   0.303   5.463  15.718  0.3033 -0.6262  0.5094
10203TIP3    H152100   0.389   5.486  15.683 -0.2309  2.2733  0.9960
10203TIP3    H252101   0.256   5.546  15.722 -2.9717 -2.3361 -0.9623
10204TIP3   OH252102   3.701   1.082  10.664  0.2496 -0.3405 -0.3508
10204TIP3    H152103   3.636   1.116  10.602 -0.4510 -1.1840 -0.0952
10204TIP3    H252104   3.681   0.989  10.671  2.2918 -0.8808 -1.2445
10205TIP3   OH252105   6.431   2.456   4.708  0.6099  0.4335  0.1979
10205TIP3    H152106   6.516   2.489   4.737  0.7847  1.3097 -1.2875
10205TIP3    H252107   6.375   2.534   4.704 -0.1910 -0.0938  0.8868
10206TIP3   OH252108   0.131   5.294  11.755  1.1651  0.4190  0.2509
10206TIP3    H152109   0.126   5.205  11.720  0.6917 -0.1387  1.6969
10206TIP3    H252110   0.099   5.286  11.845 -0.6529  2.3699 -0.1837
10207TIP3   OH252111   1.747   3.084   4.198  0.0581  0.2157 -0.8236
10207TIP3    H152112   1.678   3.141   4.164  0.2551  0.4070 -0.9084
10207TIP3    H252113   1.707   2.998   4.204 -0.8527  0.7665  1.2309
10208TIP3   OH252114   6.328   0.774   1.629  0.4157  0.1317  0.2001
10208TIP3    H152115   6.420   0.750   1.626  0.9939  2.3778 -1.0990
10208TIP3    H252116   6.297   0.765   1.539 -0.0466  1.5106  0.2043
10209TIP3   OH252117   5.979   6.493  10.897 -0.1172 -0.1694 -0.3611
10209TIP3    H152118   6.013   6.523  10.981  1.3015  1.1180 -1.3659
10209TIP3    H252119   6.051   6.508  10.835 -0.6005 -2.4883 -1.5332
10210TIP3   OH252120   2.444   3.333   4.737 -0.8272  0.4186  0.0413
10210TIP3    H152121   2.519   3.277   4.717 -0.3681  1.1633 -0.3643
10210TIP3    H252122   2.421   3.373   4.652 -3.0283 -1.4260 -0.2932
10211TIP3   OH252123   3.020   2.082   4.102 -0.2326  0.1299  0.3036
10211TIP3    H152124   2.935   2.056   4.137  0.8008 -2.4331  1.0158
10211TIP3    H252125   3.003   2.099   4.009 -1.5856  0.0032  0.5180
10212TIP3   OH252126   3.901   2.053  15.673 -0.1906 -0.2154  0.4426
10212TIP3    H152127   3.912   2.148  15.686  2.1800 -0.8382  3.6930
10212TIP3    H252128   3.978   2.026  15.623 -1.5976 -0.2598 -1.7708
10213TIP3   OH252129   0.576   0.160  14.382 -0.1016 -0.3267  0.3819
10213TIP3    H152130   0.515   0.178  14.454 -0.7043 -1.8957  0.2729
10213TIP3    H252131   0.543   0.213  14.309  0.0881  0.7026  1.0198
10214TIP3   OH252132   4.739   1.350  15.842 -0.2967 -0.4970 -0.2405
10214TIP3    H152133   4.701   1.435  15.820 -0.7390 -0.3867  0.8840
10214TIP3    H252134   4.678   1.286  15.805 -0.5867 -0.3127 -0.0891
10215TIP3   OH252135   6.361   1.908  12.943 -0.6968 -0.1485 -0.3815
10215TIP3    H152136   6.300   1.835  12.957  0.5148 -1.1539 -0.2232
10215TIP3    H252137   6.396   1.892  12.855 -1.3841  0.9713 -0.8667
10216TIP3   OH252138   1.804   4.801  14.539 -0.5152 -0.4726 -0.4545
10216TIP3    H152139   1.788   4.846  14.622 -1.6276 -1.1894 -0.2635
10216TIP3    H252140   1.809   4.871  14.474  0.2666  0.0877  0.1902
10217TIP3   OH252141   4.703   1.347  12.004  0.5436 -0.3924  0.5543
10217TIP3    H152142   4.728   1.261  12.038 -0.4886 -0.3816  1.3744
10217TIP3    H252143   4.716   1.407  12.078  2.7162  0.4431 -0.4449
10218TIP3   OH252144   6.572   3.654   0.534 -0.1212 -0.2978  0.4601
10218TIP3    H152145   6.575   3.746   0.508  1.0201 -0.0150  1.5467
10218TIP3    H252146   6.492   3.620   0.493 -0.0240  0.9120 -0.7940
10219TIP3   OH252147   2.326   2.649  11.997 -0.2057 -0.2054 -1.1643
10219TIP3    H152148   2.352   2.734  11.961  0.3388  0.7480  1.3814
10219TIP3    H252149   2.268   2.671  12.070  2.0435 -1.9242  1.2030
10220TIP3   OH252150   0.245   3.315   3.864 -0.0113 -0.2743  0.1450
10220TIP3    H152151   0.150   3.314   3.853 -0.0201 -1.0358  0.2854
10220TIP3    H252152   0.262   3.393   3.917 -0.5948 -0.3716  0.4750
10221TIP3   OH252153   4.885   4.800   3.976  0.1439  0.4102  0.1397
10221TIP3    H152154   4.930   4.745   3.913 -0.1234 -1.2137  1.3162
10221TIP3    H252155   4.800   4.819   3.936 -0.1818 -0.9435  0.1625
10222TIP3   OH252156   5.059   3.986  14.755 -0.6059 -0.5155  0.2150
10222TIP3    H152157   5.090   4.007  14.843 -2.3185 -0.5197  0.8427
10222TIP3    H252158   5.092   3.898  14.738  1.9747  0.5159 -0.2243
10223TIP3   OH252159   1.789   2.710   1.463  0.4792 -0.9140 -0.0581
10223TIP3    H152160   1.837   2.790   1.486 -2.0928 -0.2066  3.1316
10223TIP3    H252161   1.856   2.653   1.426  3.1225  1.3480  1.0062
10224TIP3   OH252162   1.913   6.340   4.607 -0.6956  0.7815  0.1772
10224TIP3    H152163   1.866   6.301   4.681 -0.3416  0.0758  0.0307
10224TIP3    H252164   1.970   6.271   4.575 -0.7384  1.1276 -0.6679
10225TIP3   OH252165   5.178   3.082  15.129  0.3404 -0.4410 -0.4408
10225TIP3    H152166   5.216   3.094  15.215  0.5703 -2.8234 -0.1896
10225TIP3    H252167   5.096   3.131  15.132  1.0859  0.7614  0.5942
10226TIP3   OH252168   2.535   5.070   0.292  0.3542  0.2397 -0.8763
10226TIP3    H152169   2.580   5.154   0.279 -1.2368  1.4765  1.2011
10226TIP3    H252170   2.560   5.043   0.381  0.0621 -0.9818 -1.1634
10227TIP3   OH252171   6.208   0.044   0.919 -0.6435 -0.9387 -0.0720
10227TIP3    H152172   6.289   0.065   0.966 -2.0211  0.3772  1.7625
10227TIP3    H252173   6.207  -0.052   0.916  1.0342 -0.9755 -0.2282
10228TIP3   OH252174   2.904   6.721   2.606 -0.4013 -0.2003  0.0846
10228TIP3    H152175   2.905   6.685   2.518 -0.5991  1.7894 -0.7499
10228TIP3    H252176   2.894   6.816   2.594  0.2359  0.1745  2.2060
10229TIP3   OH252177   5.496   3.275  16.811  0.0686  0.0287  0.8898
10229TIP3    H152178   5.466   3.228  16.889 -2.3230  1.9405  1.1753
10229TIP3    H252179   5.585   3.302  16.832 -0.4990  0.4055  2.9119
10230TIP3   OH252180   1.789   4.202  11.498 -0.5325  0.3142 -0.3401
10230TIP3    H152181   1.802   4.277  11.440 -2.4840  0.6966 -0.3261
10230TIP3    H252182   1.728   4.146  11.451 -0.8543 -0.1680  0.6417
10231TIP3   OH252183   1.914   5.104  15.401  0.1696 -0.1778 -0.5627
10231TIP3    H152184   1.951   5.115  15.314 -1.0148 -0.2891 -1.0972
10231TIP3    H252185   1.840   5.164  15.404  0.5941  0.3100  0.6074
10232TIP3   OH252186   6.146   3.032  12.045 -0.1052 -0.3089 -0.0864
10232TIP3    H152187   6.148   3.117  12.001  0.1150  0.7401  1.8967
10232TIP3    H252188   6.199   2.975  11.989 -0.4113  0.8045 -1.5321
10233TIP3   OH252189   0.859   2.362  16.956 -0.4687  0.2906 -0.1819
10233TIP3    H152190   0.922   2.307  17.004 -0.9798 -1.0297 -0.9917
10233TIP3    H252191   0.795   2.388  17.022  0.1277  0.4358  0.3486
10234TIP3   OH252192   0.963   2.563  10.636  0.2430 -0.3361 -0.6883
10234TIP3    H152193   1.028   2.508  10.680  1.1520  0.2836 -1.2290
10234TIP3    H252194   0.940   2.514  10.558  0.1536 -0.5028 -0.5587
10235TIP3   OH252195   3.144   1.516  11.251 -0.0553  0.2738 -0.1115
10235TIP3    H152196   3.095   1.471  11.319 -0.3717  0.1085 -0.4483
10235TIP3    H252197   3.126   1.466  11.171  2.0970 -0.8693  0.0786
10236TIP3   OH252198   3.919   6.230   5.512 -0.0697 -0.0620 -0.3377
10236TIP3    H152199   3.926   6.271   5.599 -1.2824  1.1903 -0.8074
10236TIP3    H252200   3.949   6.141   5.526  1.5617  0.6473  0.9686
10237TIP3   OH252201   1.491   5.668  14.229  0.1544  0.4453  0.3299
10237TIP3    H152202   1.582   5.665  14.260 -0.0086  1.1552  0.9114
10237TIP3    H252203   1.447   5.598  14.277 -0.0095  1.2890  1.4323
10238TIP3   OH252204   2.318   0.340  11.320  0.0759 -0.0250 -0.1290
10238TIP3    H152205   2.404   0.328  11.279  0.6730  0.8470  0.8307
10238TIP3    H252206   2.277   0.409  11.268  0.0042 -0.3675 -0.5266
10239TIP3   OH252207   2.991   0.320  14.140 -0.5578  0.4376 -0.7337
10239TIP3    H152208   3.000   0.405  14.097 -1.3905  0.6876 -0.4242
10239TIP3    H252209   2.928   0.334  14.210  1.9319  0.4090  1.6160
10240TIP3   OH252210   0.976   2.078   5.952 -0.4866  0.0173  0.1920
10240TIP3    H152211   1.001   2.050   6.040  0.7797  0.1036 -0.1370
10240TIP3    H252212   1.047   2.135   5.924  0.5609 -2.3074 -2.0457
10241TIP3   OH252213   6.132   2.025  15.852  0.1574  0.4642  0.1360
10241TIP3    H152214   6.184   1.945  15.863  2.4180  2.0170  1.0722
10241TIP3    H252215   6.067   2.002  15.785 -0.5613 -2.7677  1.7826
10242TIP3   OH252216   6.616   4.192   2.703  0.3030 -0.1466  0.2435
10242TIP3    H152217   6.642   4.267   2.650 -0.6513  0.8245  1.1226
10242TIP3    H252218   6.683   4.187   2.772 -0.2262  0.5750  0.8184
10243TIP3   OH252219   2.300   1.153   1.653 -0.3360 -0.2653 -0.0459
10243TIP3    H152220   2.303   1.058   1.665 -0.1182 -0.1133  1.1858
10243TIP3    H252221   2.293   1.165   1.558 -1.6119 -1.5353 -0.1328
10244TIP3   OH252222   5.939   5.277   5.545  0.0679 -0.0430 -0.3518
10244TIP3    H152223   5.904   5.317   5.465  0.6146  1.3607  0.0874
10244TIP3    H252224   5.959   5.352   5.602  0.7350 -0.9775  0.6576
10245TIP3   OH252225   4.398   0.197  12.970  0.0631  0.1620 -0.2933
10245TIP3    H152226   4.473   0.155  13.014 -1.0701 -0.0916  1.4466
10245TIP3    H252227   4.427   0.286  12.953  0.1780  0.5715  1.9156
10246TIP3   OH252228   4.043   1.065   6.030 -0.7563  0.2707  0.2514
10246TIP3    H152229   4.058   0.990   6.088 -2.1111 -0.3620 -0.1954
10246TIP3    H252230   3.956   1.050   5.993 -0.7283  1.6793 -0.4340
10247TIP3   OH252231   0.990   5.888  12.111 -0.3340  0.7631 -0.4285
10247TIP3    H152232   0.911   5.880  12.165 -0.5611  1.7797 -0.5956
10247TIP3    H252233   1.023   5.798  12.103 -0.8557  0.4774  0.5589
10248TIP3   OH252234   3.040   3.944   3.376  0.1344 -0.0683 -0.1357
10248TIP3    H152235   2.951   3.924   3.348  0.3881 -0.9395 -0.3554
10248TIP3    H252236   3.094   3.928   3.299  0.7551 -1.8213  0.6281
10249TIP3   OH252237   5.751   6.002  17.023  0.3641 -0.5429  0.0148
10249TIP3    H152238   5.784   6.056  17.095  0.4867 -1.5238  0.6966
10249TIP3    H252239   5.806   5.923  17.025 -0.6819 -1.2817 -0.1428
10250TIP3   OH252240   3.013   4.553   3.570  0.7512 -0.2251  0.2245
10250TIP3    H152241   2.951   4.542   3.643 -1.4075  0.0635 -1.5268
10250TIP3    H252242   3.094   4.581   3.613 -0.3388 -0.4597  2.5624
10251TIP3   OH252243   4.846   2.340   1.561 -0.0496  0.7934 -0.7884
10251TIP3    H152244   4.759   2.355   1.600  0.0308 -0.2998 -0.1620
10251TIP3    H252245   4.827   2.310   1.472 -0.2963  1.3877 -0.9331
10252TIP3   OH252246   1.776   4.087   2.750 -0.3916 -0.0856  0.3617
10252TIP3    H152247   1.818   4.077   2.835 -0.0061 -4.1272 -0.2074
10252TIP3    H252248   1.682   4.083   2.769 -0.3459  0.5722  0.7421
10253TIP3   OH252249   3.052   0.369   0.550  0.3105  0.4065  0.2820
10253TIP3    H152250   3.146   0.358   0.541  0.1298 -0.2038 -0.9616
10253TIP3    H252251   3.026   0.424   0.476 -0.4660 -0.4174 -0.0752
10254TIP3   OH252252   5.791   2.919   3.978  0.2105  0.1944 -0.5415
10254TIP3    H152253   5.739   2.885   4.051  3.0140 -1.3776  0.7822
10254TIP3    H252254   5.740   2.897   3.900 -1.4449 -0.6524  0.7368
10255TIP3   OH252255   1.789   2.034  16.111 -0.1194 -0.1627  0.3484
10255TIP3    H152256   1.794   2.130  16.109  0.5317 -0.2023 -0.6657
10255TIP3    H252257   1.859   2.008  16.170 -0.0416 -0.0216  0.3200
10256TIP3   OH252258   4.448   3.203  14.877 -0.5578 -0.2735 -0.2264
10256TIP3    H152259   4.521   3.258  14.848  1.3215 -2.1406  0.8181
10256TIP3    H252260   4.418   3.244  14.958 -0.2860  0.1750 -0.3532
10257TIP3   OH252261   4.616   1.291   4.564  0.0476 -0.0369 -0.6600
10257TIP3    H152262   4.622   1.227   4.493  0.1027 -0.8200  0.0539
10257TIP3    H252263   4.656   1.371   4.527 -0.9117 -0.1045 -1.8782
10258TIP3   OH252264   4.163   1.049   2.611  0.6362  0.0563  0.1122
10258TIP3    H152265   4.176   0.958   2.586 -0.1380 -0.1431  0.4214
10258TIP3    H252266   4.170   1.049   2.706 -0.2765  0.1671  0.1781
10259TIP3   OH252267   0.678   5.515   0.007  0.0674  0.1851  0.4037
10259TIP3    H152268   0.607   5.561   0.051 -0.4950  0.5167 -0.8332
10259TIP3    H252269   0.676   5.548  -0.083  2.7588  1.3573  0.7151
10260TIP3   OH252270   5.879   1.349  11.800  0.0170 -0.6402  0.8186
10260TIP3    H152271   5.873   1.439  11.834  0.1859 -0.2058 -0.2744
10260TIP3    H252272   5.801   1.340  11.744  0.7767 -0.6531 -0.2567
10261TIP3   OH252273   3.875   5.222   2.640 -0.0733  0.7745  0.2667
10261TIP3    H152274   3.931   5.192   2.711 -0.0354 -2.2229 -0.9806
10261TIP3    H252275   3.930   5.213   2.562 -0.9235  1.7823 -0.4596
10262TIP3   OH252276   3.879   1.332  15.228  0.4774 -0.2175  0.7799
10262TIP3    H152277   3.957   1.291  15.265  0.5482  0.1195  1.0085
10262TIP3    H252278   3.822   1.259  15.205  0.7991 -0.4585  0.7513
10263TIP3   OH252279   5.250   2.630   4.191 -0.2040  0.1659 -0.7446
10263TIP3    H152280   5.202   2.696   4.141 -0.6076  0.4341 -0.0008
10263TIP3    H252281   5.245   2.659   4.282  0.1570 -0.5553 -0.4845
10264TIP3   OH252282   3.410   0.830   3.498  0.2033 -0.0783 -0.1681
10264TIP3    H152283   3.338   0.877   3.540 -0.2566  1.5363 -2.6555
10264TIP3    H252284   3.386   0.827   3.405  2.3526 -1.3305 -0.7238
10265TIP3   OH252285   0.546   5.923  13.095 -0.0894 -0.1826 -0.3488
10265TIP3    H152286   0.565   5.906  13.003  1.6537 -0.2961  0.0220
10265TIP3    H252287   0.574   6.013  13.109  0.9180 -0.6042  0.4039
10266TIP3   OH252288   3.897   0.811   3.140 -0.0235 -0.0923 -0.0541
10266TIP3    H152289   3.926   0.893   3.102  1.1886 -0.9009 -0.9162
10266TIP3    H252290   3.877   0.833   3.231  2.0658  0.7929  0.2369
10267TIP3   OH252291   6.004   4.633  16.253  0.5779 -0.4240 -0.1170
10267TIP3    H152292   6.039   4.710  16.208  0.0256  1.3801  2.3862
10267TIP3    H252293   5.996   4.567  16.185  2.1591  1.3600 -2.1297
10268TIP3   OH252294   0.663   5.515  16.069 -0.4800 -0.7149  0.1745
10268TIP3    H152295   0.726   5.483  16.134 -0.1167 -0.7074 -0.1661
10268TIP3    H252296   0.698   5.484  15.985  1.3625  2.8151 -0.4663
10269TIP3   OH252297   0.937   5.213   1.191  0.0308  0.2309 -0.3669
10269TIP3    H152298   1.019   5.165   1.204 -0.7172 -1.2626 -0.9570
10269TIP3    H252299   0.964   5.300   1.164  1.4369  0.0104  0.2950
10270TIP3   OH252300   0.745   3.688  12.178  0.6032 -0.0715 -0.3600
10270TIP3    H152301   0.803   3.625  12.135 -1.0161 -1.2278 -0.8976
10270TIP3    H252302   0.721   3.647  12.261 -0.0315  0.0620 -0.4701
10271TIP3   OH252303   5.706   4.963  15.961  0.3186  0.1564 -0.4863
10271TIP3    H152304   5.677   5.054  15.974 -0.6289 -0.0741 -0.9752
10271TIP3    H252305   5.755   4.943  16.041  0.1712  0.9652 -0.1838
10272TIP3   OH252306   3.829   0.531   5.963  0.7049  0.0534  0.3017
10272TIP3    H152307   3.811   0.591   5.890 -2.4807 -0.9466  0.2009
10272TIP3    H252308   3.863   0.452   5.920  3.3743  1.1389  0.3173
10273TIP3   OH252309   6.737   5.991   5.514 -0.3573 -0.7530  0.4262
10273TIP3    H152310   6.772   5.962   5.598 -0.3789 -1.4280  0.2057
10273TIP3    H252311   6.662   5.934   5.498  0.9404 -2.0959 -1.0750
10274TIP3   OH252312   2.894   0.921   4.603 -0.7382  0.1400  0.0230
10274TIP3    H152313   2.909   0.931   4.509  1.6608 -0.2357  0.3258
10274TIP3    H252314   2.813   0.969   4.620 -0.8148  0.8073 -2.1156
10275TIP3   OH252315   6.600   3.306  17.029  0.1600 -0.2706  0.0079
10275TIP3    H152316   6.582   3.355  17.109  0.0418  0.6034 -0.5466
10275TIP3    H252317   6.527   3.245  17.021  0.5286 -0.8467  0.9322
10276TIP3   OH252318   3.499   2.985  15.267  0.2030 -0.1999 -0.0894
10276TIP3    H152319   3.419   2.951  15.226  0.1651 -0.1402 -0.0647
10276TIP3    H252320   3.470   3.026  15.348  0.3552 -0.8674  0.3101
10277TIP3   OH252321   6.067   6.491   2.079 -0.2393 -0.0378 -0.2390
10277TIP3    H152322   6.024   6.409   2.104 -1.0237 -0.1476 -1.8571
10277TIP3    H252323   6.138   6.501   2.141 -0.7587 -1.4378  0.6018
10278TIP3   OH252324   0.214   2.292   4.959  0.3572  0.2251 -0.3019
10278TIP3    H152325   0.238   2.243   4.881  2.5323  0.2784  0.3088
10278TIP3    H252326   0.247   2.381   4.943  0.8459  0.2287  0.6745
10279TIP3   OH252327   1.228   3.114   0.276 -0.3201  0.0374  0.2036
10279TIP3    H152328   1.303   3.173   0.264 -0.7494  0.5612  0.0934
10279TIP3    H252329   1.172   3.131   0.201  0.2686 -1.5912 -0.6192
10280TIP3   OH252330   0.247   2.686  13.907 -0.2059 -0.1160 -0.4918
10280TIP3    H152331   0.196   2.656  13.983  1.3285  0.1042  0.6587
10280TIP3    H252332   0.198   2.654  13.831 -2.6980  1.0994  0.5229
10281TIP3   OH252333   5.127   6.584   1.288  0.1321  0.1275  0.0766
10281TIP3    H152334   5.089   6.663   1.324 -0.8432  1.1180 -2.9612
10281TIP3    H252335   5.214   6.610   1.257  0.2199 -0.2416 -0.0008
10282TIP3   OH252336   2.394   3.003  13.411 -0.3240  0.2088  0.3754
10282TIP3    H152337   2.485   2.976  13.421 -0.1424  0.8697  0.6047
10282TIP3    H252338   2.384   3.025  13.319  0.0173  1.0504  0.5334
10283TIP3   OH252339   1.395   6.159  16.577  0.3042 -0.6599  0.0370
10283TIP3    H152340   1.356   6.169  16.490  0.0875 -0.2529  0.1783
10283TIP3    H252341   1.356   6.230  16.628  1.1566 -0.3154  0.2078
10284TIP3   OH252342   0.637   1.216   0.784 -0.2719 -0.0494 -0.0089
10284TIP3    H152343   0.672   1.127   0.789  0.3602  0.1900 -0.1227
10284TIP3    H252344   0.587   1.218   0.703  1.0659  0.1755 -0.8340
10285TIP3   OH252345   6.245   2.169   0.332 -0.0395 -0.0084 -0.0326
10285TIP3    H152346   6.208   2.116   0.403  0.1244  1.0611  0.8663
10285TIP3    H252347   6.218   2.123   0.252 -1.3451 -0.5194  0.6723
10286TIP3   OH252348   0.821   0.075  15.882 -0.2778  0.2369 -0.2451
10286TIP3    H152349   0.734   0.064  15.921  0.0017  0.2346  0.3674
10286TIP3    H252350   0.843  -0.012  15.848 -0.3135  0.1286  0.0102
10287TIP3   OH252351   6.398   6.534  14.930 -0.3478 -0.3311  0.5908
10287TIP3    H152352   6.439   6.576  14.854  0.7110  0.1956  1.4455
10287TIP3    H252353   6.466   6.476  14.966 -1.4722 -2.0579  0.0066
10288TIP3   OH252354   0.058   2.026  11.992  0.1476 -0.2151 -0.0619
10288TIP3    H152355   0.122   2.095  12.013  1.3685 -1.6195  0.9137
10288TIP3    H252356   0.037   1.987  12.077 -1.0907 -0.5997 -0.5302
10289TIP3   OH252357   4.112   5.151  11.132 -0.2131  0.0816 -0.3667
10289TIP3    H152358   4.197   5.196  11.128 -0.0844 -0.2917 -1.8682
10289TIP3    H252359   4.079   5.172  11.219  0.2750  2.3209 -0.6859
10290TIP3   OH252360   2.273   6.635  14.306  0.7382 -0.2870  0.2755
10290TIP3    H152361   2.367   6.651  14.302  0.3764  1.7533 -0.7941
10290TIP3    H252362   2.259   6.556  14.253  1.5189  1.0256 -1.9342
10291TIP3   OH252363   1.632   6.071   0.585 -0.0454  0.6036  0.0706
10291TIP3    H152364   1.547   6.096   0.621 -0.1945  1.0740 -0.6130
10291TIP3    H252365   1.629   5.975   0.581 -0.4057  0.6003  0.3850
10292TIP3   OH252366   5.656   2.366  14.475  0.6448  0.7159  0.1840
10292TIP3    H152367   5.584   2.304  14.464  1.0362  0.3722 -0.4607
10292TIP3    H252368   5.627   2.423  14.546 -1.5801  2.4292 -2.0116
10293TIP3   OH252369   2.375   6.140  12.192  0.1903  0.2454 -0.4216
10293TIP3    H152370   2.466   6.122  12.171  0.2365  0.3822 -0.3322
10293TIP3    H252371   2.374   6.157  12.286 -0.2150 -1.7121 -0.0421
10294TIP3   OH252372   6.679   3.070  15.289  0.0351 -0.3678  0.3072
10294TIP3    H152373   6.718   3.046  15.374  0.0879 -1.5354 -0.0324
10294TIP3    H252374   6.753   3.072  15.229 -0.2739 -1.5229 -0.1183
10295TIP3   OH252375   2.571   4.059   2.311  0.3256 -0.4965  0.1564
10295TIP3    H152376   2.552   4.067   2.218  1.2625 -0.8340 -0.0707
10295TIP3    H252377   2.538   4.140   2.350 -0.1182 -0.3797 -0.4546
10296TIP3   OH252378   4.085   1.055  11.402  0.3438  0.6812 -0.2395
10296TIP3    H152379   4.021   1.124  11.417 -1.6401 -1.3217  0.8660
10296TIP3    H252380   4.169   1.100  11.396 -0.9708  3.2199 -0.1555
10297TIP3   OH252381   0.764   3.636  16.402  0.2853  0.4450  0.5951
10297TIP3    H152382   0.764   3.638  16.498 -1.6472 -0.6305  0.6465
10297TIP3    H252383   0.741   3.726  16.377 -0.1966  0.4885  1.1746
10298TIP3   OH252384   0.768   0.937  12.195 -0.5654 -0.4808  0.3617
10298TIP3    H152385   0.846   0.899  12.153  0.5008 -1.4494  3.1267
10298TIP3    H252386   0.765   1.027  12.163  1.7692 -0.3875  0.2912
10299TIP3   OH252387   0.389   4.959  16.942 -0.6447  0.4141  0.6092
10299TIP3    H152388   0.435   5.007  17.010 -0.6206 -0.7544  1.4225
10299TIP3    H252389   0.335   5.025  16.899 -0.4171  1.2190  1.5445
10300TIP3   OH252390   0.315   4.467   0.854 -0.2433 -0.3305 -0.6562
10300TIP3    H152391   0.352   4.555   0.864 -1.3125  0.0885 -0.2615
10300TIP3    H252392   0.357   4.431   0.776  0.1006  0.5937 -0.8999
10301TIP3   OH252393   1.210   4.660   3.660 -0.7879 -0.0446 -1.0164
10301TIP3    H152394   1.199   4.566   3.670 -1.9969  0.1747 -0.1772
10301TIP3    H252395   1.125   4.697   3.684  0.3475  1.3970  1.0026
10302TIP3   OH252396   3.393   0.638  12.894  0.5168 -0.0121 -0.0744
10302TIP3    H152397   3.316   0.661  12.945  0.8870  1.1272 -0.0186
10302TIP3    H252398   3.395   0.542  12.895 -2.1113 -0.1363 -1.8848
10303TIP3   OH252399   1.400   2.364   4.797  0.5551  0.2467 -0.0471
10303TIP3    H152400   1.377   2.365   4.704 -0.8399  0.3973  0.2910
10303TIP3    H252401   1.324   2.327   4.840  1.1441  0.3109  1.0589
10304TIP3   OH252402   5.851   2.387   3.744  0.6603 -0.3182 -0.3215
10304TIP3    H152403   5.787   2.383   3.673  0.7999  2.2655 -0.6144
10304TIP3    H252404   5.933   2.355   3.704  0.2788 -0.7828 -0.7492
10305TIP3   OH252405   0.144   2.917  17.011  0.6207  0.0937  0.5571
10305TIP3    H152406   0.136   2.835  17.060 -0.6828 -0.1371 -0.0146
10305TIP3    H252407   0.068   2.968  17.038  1.4158  1.1022  0.8872
10306TIP3   OH252408   6.352   0.168  13.314 -0.3686 -0.5013 -0.0074
10306TIP3    H152409   6.279   0.154  13.374 -1.4700 -0.3804 -1.2857
10306TIP3    H252410   6.350   0.092  13.256 -0.1450  0.0267 -0.7132
10307TIP3   OH252411   4.479   1.775  12.152 -0.7407  0.6826  0.2922
10307TIP3    H152412   4.562   1.793  12.197  0.8522 -2.7575 -1.0134
10307TIP3    H252413   4.493   1.808  12.063  0.5104 -2.6383 -0.8272
10308TIP3   OH252414   1.642   2.456  14.444 -0.2469 -0.2706  0.1496
10308TIP3    H152415   1.597   2.539  14.460 -2.1356 -0.7964 -2.0060
10308TIP3    H252416   1.615   2.399  14.516 -0.1240  0.5502  0.8433
10309TIP3   OH252417   5.535   0.137   3.186 -0.1759 -0.5787  0.2055
10309TIP3    H152418   5.473   0.183   3.129  0.2970 -1.6181 -1.1593
10309TIP3    H252419   5.480   0.086   3.245 -0.6715  0.6542  0.8296
10310TIP3   OH252420   6.131   0.696   4.957  0.2668 -0.2298  0.0021
10310TIP3    H152421   6.204   0.683   4.896  0.5093 -1.2609  0.5108
10310TIP3    H252422   6.128   0.791   4.971  0.9441 -0.1000 -0.7071
10311TIP3   OH252423   4.580   2.727  11.492  0.8311  0.0020 -0.0533
10311TIP3    H152424   4.504   2.742  11.436 -0.8866  0.5177  2.3429
10311TIP3    H252425   4.617   2.814  11.506  1.9283 -0.2560 -1.2620
10312TIP3   OH252426   2.111   3.763   6.500  0.2242 -0.2221 -0.2925
10312TIP3    H152427   2.030   3.711   6.499  0.3013 -0.3714  0.3653
10312TIP3    H252428   2.172   3.709   6.552  0.2927  0.5418  0.4300
10313TIP3   OH252429   6.762   1.662   0.915 -0.4373 -0.4282  0.2359
10313TIP3    H152430   6.846   1.679   0.957 -0.2500 -0.6029 -0.0651
10313TIP3    H252431   6.784   1.634   0.826 -0.8516  0.4056 -0.1367
10314TIP3   OH252432   5.455   2.812  11.166  0.1874 -0.0647 -0.0772
10314TIP3    H152433   5.369   2.783  11.135 -0.2333  1.4200 -0.3726
10314TIP3    H252434   5.460   2.783  11.257 -1.1067  0.8064  0.2853
10315TIP3   OH252435   0.682   5.160  15.559 -0.4443 -0.0982 -0.4341
10315TIP3    H152436   0.723   5.242  15.585  1.0766 -0.6223 -1.0792
10315TIP3    H252437   0.600   5.185  15.517 -0.1413  1.0624 -0.3360
10316TIP3   OH252438   1.418   6.738   6.363  0.3232  0.6898 -0.0739
10316TIP3    H152439   1.448   6.778   6.444  4.3645  0.8615 -1.5170
10316TIP3    H252440   1.443   6.800   6.294  0.3182 -1.0881 -1.7332
10317TIP3   OH252441   5.208   5.826  14.936  0.0681  0.3085 -0.4816
10317TIP3    H152442   5.296   5.858  14.919  0.2020 -0.3844 -1.1344
10317TIP3    H252443   5.191   5.849  15.028  1.8032 -1.5744  0.3429
10318TIP3   OH252444   2.888   3.914   2.566 -0.2023  0.0620  0.2971
10318TIP3    H152445   2.802   3.896   2.604 -0.4481 -1.2403 -0.7994
10318TIP3    H252446   2.935   3.831   2.574 -0.4097 -0.3982 -2.5230
10319TIP3   OH252447   0.250   5.404   4.016 -0.2480  0.0366 -0.1699
10319TIP3    H152448   0.309   5.330   4.030 -0.4540 -0.0479  0.2491
10319TIP3    H252449   0.204   5.383   3.934  0.8693  0.4747 -0.9234
10320TIP3   OH252450   1.381   5.197   1.072 -0.7061  0.2803 -0.1650
10320TIP3    H152451   1.473   5.220   1.080 -0.9187  0.5655  1.6321
10320TIP3    H252452   1.380   5.121   1.014  0.7150 -0.1042  0.3073
10321TIP3   OH252453   1.643   3.002  14.861  0.1351  0.6416 -0.0463
10321TIP3    H152454   1.665   3.077  14.916 -2.0503  1.9264 -0.8702
10321TIP3    H252455   1.728   2.967  14.834  1.2013  2.4329  0.8546
10322TIP3   OH252456   6.225   4.654   5.877 -0.3623  0.5443 -0.6784
10322TIP3    H152457   6.242   4.561   5.889  0.2535  0.8461  0.8945
10322TIP3    H252458   6.130   4.662   5.878 -0.4088 -0.0210 -0.4700
10323TIP3   OH252459   1.225   4.813  12.423  0.5014  0.3626 -0.1083
10323TIP3    H152460   1.295   4.838  12.362  0.4403 -1.5708 -1.0291
10323TIP3    H252461   1.211   4.720  12.406 -1.6968  0.5114  0.6782
10324TIP3   OH252462   0.311   5.642   3.715  1.0243  0.0561  0.1762
10324TIP3    H152463   0.262   5.577   3.765  0.9502 -1.3884 -1.7210
10324TIP3    H252464   0.402   5.626   3.740  1.1971 -2.0524 -1.6590
10325TIP3   OH252465   0.859   2.117   6.519 -0.2309 -0.0928  0.2495
10325TIP3    H152466   0.847   2.212   6.518 -0.0134 -0.0381 -3.3015
10325TIP3    H252467   0.951   2.104   6.497 -0.9114 -1.1399 -2.1009
10326TIP3   OH252468   4.820   2.547   2.049 -0.0106  0.6074 -0.5625
10326TIP3    H152469   4.823   2.477   1.984  0.1580 -1.3215  1.4385
10326TIP3    H252470   4.906   2.543   2.093  0.5140  2.9709 -1.3086
10327TIP3   OH252471   5.172   0.198   2.717  0.2310  0.3514  0.2112
10327TIP3    H152472   5.097   0.202   2.657  0.9068  1.0675 -0.5976
10327TIP3    H252473   5.164   0.277   2.771  0.2031  0.2474  0.3574
10328TIP3   OH252474   6.098   4.320  12.264 -0.5236 -0.4993  0.4401
10328TIP3    H152475   6.013   4.279  12.283 -0.8794  0.0030 -0.0578
10328TIP3    H252476   6.157   4.247  12.246 -1.6529 -0.7505 -2.5257
10329TIP3   OH252477   0.350   3.390   4.933  0.4937 -0.0421 -0.4206
10329TIP3    H152478   0.296   3.362   5.008 -0.1653 -0.3652 -1.0089
10329TIP3    H252479   0.431   3.341   4.942  0.0628 -0.7670 -0.4178
10330TIP3   OH252480   3.484   5.487  17.285  0.1052 -0.6718  0.1573
10330TIP3    H152481   3.542   5.413  17.303  2.2765  0.7181 -0.8571
10330TIP3    H252482   3.527   5.533  17.212 -1.5134  1.2258  0.3830
10331TIP3   OH252483   6.517   3.003   2.056 -0.3170 -0.6728  0.2851
10331TIP3    H152484   6.578   2.941   2.095 -1.1556 -1.7484 -0.1070
10331TIP3    H252485   6.477   2.956   1.983  0.4974  0.9711 -1.2724
10332TIP3   OH252486   6.036   0.717   1.543  0.2960 -0.2600 -0.2434
10332TIP3    H152487   6.060   0.647   1.604  0.8397  1.3637  1.4643
10332TIP3    H252488   6.113   0.729   1.488  0.8223  0.1393  0.5720
10333TIP3   OH252489   6.172   6.126   1.335  0.4539 -0.2634 -0.2414
10333TIP3    H152490   6.218   6.132   1.420 -0.8522  2.0933  0.3230
10333TIP3    H252491   6.080   6.137   1.357  0.0365 -0.3718 -1.9066
10334TIP3   OH252492   3.999   4.356  15.654  0.0895 -0.5479 -0.3949
10334TIP3    H152493   3.906   4.379  15.665  0.0592 -0.9294  0.1326
10334TIP3    H252494   4.015   4.369  15.560 -0.1627  0.7879 -0.2720
10335TIP3   OH252495   5.855   1.032  13.026 -0.0720 -0.3086  0.1574
10335TIP3    H152496   5.902   1.071  12.952 -0.9021  0.1337 -0.1384
10335TIP3    H252497   5.879   0.939  13.023  1.1451 -0.0069  0.2870
10336TIP3   OH252498   3.843   2.765   3.547  0.1762 -0.3542  0.0469
10336TIP3    H152499   3.760   2.755   3.500 -0.2474 -3.0325  1.2261
10336TIP3    H252500   3.833   2.846   3.597 -1.1908  0.0535 -0.8605
10337TIP3   OH252501   2.494   6.277  15.888 -0.5296  0.3374  0.1469
10337TIP3    H152502   2.436   6.235  15.951  1.3805 -4.1630 -0.9313
10337TIP3    H252503   2.576   6.228  15.894  1.6998  3.6601 -1.5820
10338TIP3   OH252504   5.105   4.873   5.704 -0.1733  0.0703 -0.1268
10338TIP3    H152505   5.154   4.953   5.687 -0.7911  0.7009  0.9446
10338TIP3    H252506   5.115   4.859   5.798 -0.5948 -0.7609 -0.2043
10339TIP3   OH252507   2.318   3.411   2.978 -0.6864  0.4048  0.4402
10339TIP3    H152508   2.353   3.345   3.038 -1.1830  0.0110  0.3022
10339TIP3    H252509   2.380   3.483   2.983  2.2746 -1.7388 -2.5604
10340TIP3   OH252510   4.329   2.769  14.906  0.2798  0.0499  0.2316
10340TIP3    H152511   4.248   2.804  14.943  0.6451 -0.4374  1.5075
10340TIP3    H252512   4.331   2.677  14.934  1.7004  0.2829  0.9559
10341TIP3   OH252513   4.084   0.748   1.976  0.0087  0.2098  0.1257
10341TIP3    H152514   4.104   0.701   2.057 -0.4317  0.3579  0.3194
10341TIP3    H252515   4.059   0.836   2.005 -2.2311 -0.3638 -0.0257
10342TIP3   OH252516   5.142   5.241  12.072  0.5959  0.0242 -0.0634
10342TIP3    H152517   5.193   5.274  12.145  0.0546 -0.0338  0.3444
10342TIP3    H252518   5.145   5.146  12.080  0.6737  0.0133 -0.2122
10343TIP3   OH252519   5.535   3.440   5.858 -0.0067  0.4000 -0.3277
10343TIP3    H152520   5.522   3.490   5.778 -0.9396  3.1929  1.4607
10343TIP3    H252521   5.460   3.462   5.913  0.5685 -1.4835  1.2889
10344TIP3   OH252522   0.424   0.992  14.100  0.1378 -0.4001  0.3232
10344TIP3    H152523   0.351   0.938  14.131  0.4621 -0.3581  1.1783
10344TIP3    H252524   0.387   1.079  14.090 -0.1321 -0.5550 -0.0561
10345TIP3   OH252525   2.486   5.623   4.003  0.4275  0.5553 -0.1876
10345TIP3    H152526   2.502   5.716   4.017  0.5975  0.6040 -0.7206
10345TIP3    H252527   2.517   5.605   3.915  1.5545 -0.2698  0.3576
10346TIP3   OH252528   2.340   0.029   2.480  0.0813 -0.5059  0.0627
10346TIP3    H152529   2.314   0.084   2.406  0.8785 -0.0543  0.1134
10346TIP3    H252530   2.389   0.088   2.538 -1.8488 -0.4540  1.7151
10347TIP3   OH252531   1.064   5.751   2.281  0.5030 -0.8921  0.0799
10347TIP3    H152532   0.991   5.813   2.271  0.2388 -0.8041  2.2579
10347TIP3    H252533   1.023   5.665   2.275  0.2918 -0.8428  0.7561
10348TIP3   OH252534   3.069   1.599   1.327  0.5106  0.6873  0.5462
10348TIP3    H152535   3.118   1.592   1.409  0.1221 -0.8901  0.6572
10348TIP3    H252536   2.978   1.615   1.355  0.2777 -0.4282  0.4494
10349TIP3   OH252537   6.113   3.271  11.622 -0.4378  0.1301  0.0729
10349TIP3    H152538   6.021   3.295  11.628 -0.8959 -1.5511 -0.0215
10349TIP3    H252539   6.155   3.345  11.578 -1.7443  0.8719  0.0725
10350TIP3   OH252540   6.021   4.443   4.365  0.5919 -0.0029  0.2875
10350TIP3    H152541   5.929   4.417   4.366  0.5825 -0.0983 -1.1699
10350TIP3    H252542   6.058   4.395   4.291  1.1345  2.2784 -0.9667
10351TIP3   OH252543   3.836   6.422  14.941  0.1689  0.6706  0.3505
10351TIP3    H152544   3.830   6.438  14.847  1.1887  4.0527  0.7989
10351TIP3    H252545   3.915   6.367  14.951  0.0294  0.2583 -0.7397
10352TIP3   OH252546   2.368   2.711  15.853 -0.2408  0.3711 -0.3871
10352TIP3    H152547   2.421   2.637  15.822 -0.6153  0.4767 -1.3067
10352TIP3    H252548   2.345   2.689  15.943 -0.9838 -0.9982 -0.8997
10353TIP3   OH252549   1.097   1.514   4.698 -0.1789  0.2556  0.1692
10353TIP3    H152550   1.041   1.437   4.686 -0.1210 -0.0839  1.9262
10353TIP3    H252551   1.186   1.482   4.685 -0.2463  0.3201 -0.4476
10354TIP3   OH252552   1.681   0.025   2.355 -0.6025  0.0277  0.0161
10354TIP3    H152553   1.690  -0.042   2.288 -0.4188 -0.6652  0.7228
10354TIP3    H252554   1.599   0.003   2.399 -0.4892  0.2058  0.3145
10355TIP3   OH252555   4.109   5.531   0.893 -0.2281  0.2980 -0.4745
10355TIP3    H152556   4.162   5.556   0.969 -0.3484 -0.5917 -0.0977
10355TIP3    H252557   4.021   5.563   0.914 -0.2567  0.0729 -0.2526
10356TIP3   OH252558   0.180   2.808  13.095  0.3402  0.1901  0.5089
10356TIP3    H152559   0.236   2.880  13.121 -1.3982  1.5156  0.6867
10356TIP3    H252560   0.154   2.828  13.006 -0.3443 -0.0907  0.6395
10357TIP3   OH252561   6.570   6.115  15.954 -0.4644 -0.4544  0.4163
10357TIP3    H152562   6.477   6.122  15.933 -0.3164  2.0483  0.4732
10357TIP3    H252563   6.582   6.171  16.031  1.1431 -0.4783  0.2032
10358TIP3   OH252564   3.443   4.801  12.310  0.6279  0.2917  0.5368
10358TIP3    H152565   3.491   4.763  12.236 -0.1176  0.0804  0.1460
10358TIP3    H252566   3.370   4.848  12.268  1.0638  1.4471  1.0622
10359TIP3   OH252567   0.057   6.353   3.512 -0.5023 -0.2782  0.3300
10359TIP3    H152568  -0.007   6.332   3.580 -0.4863  0.5143  0.6018
10359TIP3    H252569   0.036   6.294   3.440 -0.0071 -1.7081  1.3142
10360TIP3   OH252570   0.544   5.618  12.106  0.0473 -0.5258 -0.9221
10360TIP3    H152571   0.456   5.605  12.140 -0.9398  1.8951 -2.3624
10360TIP3    H252572   0.530   5.644  12.015  2.2544 -0.0432 -1.1486
10361TIP3   OH252573   6.785   6.553   3.382 -0.1451 -0.4675  0.2023
10361TIP3    H152574   6.849   6.493   3.419  2.4685  0.7392 -2.1396
10361TIP3    H252575   6.793   6.632   3.435  2.4164  0.6811 -1.7978
10362TIP3   OH252576   0.099   4.556   4.793  0.4486 -0.0936  0.4791
10362TIP3    H152577   0.008   4.583   4.810  0.6054 -0.0535  1.3095
10362TIP3    H252578   0.108   4.559   4.698 -0.5213 -0.4148  0.3702
10363TIP3   OH252579   4.150   1.953  14.636 -1.3364  0.7041  0.4460
10363TIP3    H152580   4.182   1.865  14.616 -0.0355  1.1097  0.7166
10363TIP3    H252581   4.063   1.938  14.673 -1.4043 -0.4219 -0.1235
10364TIP3   OH252582   0.667   2.979  13.014 -0.2544 -0.1930 -0.6442
10364TIP3    H152583   0.631   2.891  13.002 -3.2882  0.6232  1.9075
10364TIP3    H252584   0.707   2.978  13.101 -1.4368  1.2748 -0.0534
10365TIP3   OH252585   2.929   0.137  14.911  0.3078 -0.5385  0.3858
10365TIP3    H152586   2.929   0.086  14.992 -0.5079 -1.1663  0.0030
10365TIP3    H252587   3.020   0.160  14.897  0.5441 -1.0076  1.1242
10366TIP3   OH252588   1.018   6.377  11.208 -0.2054 -0.0181  0.2093
10366TIP3    H152589   0.981   6.371  11.120  1.3052  0.8917 -0.5042
10366TIP3    H252590   0.943   6.367  11.266 -1.3252  0.1295 -1.1927
10367TIP3   OH252591   1.200   4.015  11.794  0.1800 -0.7391  0.1320
10367TIP3    H152592   1.152   4.090  11.759  2.3954  0.3967 -0.5360
10367TIP3    H252593   1.140   3.941  11.784 -1.1457  0.5125 -1.3499
10368TIP3   OH252594   6.399   4.813   5.247  0.6549  0.2963 -0.0331
10368TIP3    H152595   6.464   4.771   5.191  0.2338 -0.2165 -0.1408
10368TIP3    H252596   6.426   4.905   5.250  3.2031 -0.4637  2.4503
10369TIP3   OH252597   4.712   0.286  11.395 -0.0096  0.1606  0.1694
10369TIP3    H152598   4.775   0.348  11.433  0.9043 -1.7189  1.7719
10369TIP3    H252599   4.764   0.233  11.334 -0.8825  1.1997 -1.5422
10370TIP3   OH252600   2.701   2.674  15.538 -1.0348 -0.1974  0.4081
10370TIP3    H152601   2.775   2.682  15.597 -1.5159  0.2722  0.9550
10370TIP3    H252602   2.639   2.741  15.567 -0.7095  0.9411 -1.4816
10371TIP3   OH252603   3.434   2.051  15.895 -0.5650 -0.5061 -0.4927
10371TIP3    H152604   3.438   2.073  15.988 -1.8740  0.0119 -0.5418
10371TIP3    H252605   3.415   1.957  15.893 -2.6795 -0.1089 -0.1976
10372TIP3   OH252606   5.041   4.617   4.772  0.6178  0.5026  0.2747
10372TIP3    H152607   5.107   4.630   4.839  1.0839  0.2768 -0.1402
10372TIP3    H252608   5.080   4.652   4.692 -0.2518  1.5159  0.2826
10373TIP3   OH252609   5.994   1.313   3.957 -1.0186 -0.3254 -0.1900
10373TIP3    H152610   5.942   1.381   4.000 -1.4739  0.0710 -1.3335
10373TIP3    H252611   6.085   1.337   3.973 -1.1850  0.0405  0.2004
10374TIP3   OH252612   4.392   0.736   6.499  0.4233 -0.1715  0.1062
10374TIP3    H152613   4.367   0.650   6.465 -0.2270 -0.2711  0.8111
10374TIP3    H252614   4.484   0.727   6.522 -0.3850 -1.6658  3.1012
10375TIP3   OH252615   2.090   3.808   2.409  0.3009 -0.1203 -0.2458
10375TIP3    H152616   2.062   3.747   2.342  0.0069 -0.7924  0.4737
10375TIP3    H252617   2.041   3.782   2.487 -0.0882  1.2590 -0.0207
10376TIP3   OH252618   2.233   5.020   1.280 -0.3111  0.0222  0.5165
10376TIP3    H152619   2.163   5.081   1.257 -1.5844 -1.2301  0.9542
10376TIP3    H252620   2.313   5.062   1.248 -1.3827  0.9540 -1.0610
10377TIP3   OH252621   2.248   3.184   0.753  0.4672  0.3888  0.2123
10377TIP3    H152622   2.158   3.165   0.724  0.6462 -0.9783  0.5227
10377TIP3    H252623   2.238   3.219   0.841  0.2118  0.7422  0.0472
10378TIP3   OH252624   4.020   4.855  11.368  0.2487  0.5057 -0.3855
10378TIP3    H152625   4.034   4.911  11.292 -0.1000  1.5360  0.3043
10378TIP3    H252626   3.929   4.870  11.392  0.4949  0.5557  0.5287
10379TIP3   OH252627   1.027   5.720   4.726 -0.1331 -0.5389  0.0254
10379TIP3    H152628   0.937   5.698   4.700  0.0818 -0.5060 -0.7538
10379TIP3    H252629   1.074   5.637   4.724 -0.1679 -0.5696  0.5157
10380TIP3   OH252630   4.208   6.479   2.838  0.0852 -0.0684  0.4609
10380TIP3    H152631   4.255   6.450   2.915  1.0050 -0.3340 -0.1903
10380TIP3    H252632   4.222   6.410   2.773 -0.9263  0.0038  0.1598
10381TIP3   OH252633   0.583   3.205   5.594 -0.0191  0.0518  0.5225
10381TIP3    H152634   0.531   3.264   5.649  0.5712  1.7457 -0.7164
10381TIP3    H252635   0.573   3.119   5.636  0.0561  1.2083  3.0272
10382TIP3   OH252636   4.296   5.340   0.179 -0.4859  0.0237  0.1323
10382TIP3    H152637   4.220   5.389   0.148 -0.2818 -0.2801 -0.8464
10382TIP3    H252638   4.259   5.268   0.230 -0.7778  1.7426  2.4559
10383TIP3   OH252639   2.776   5.205  15.637  0.3789 -0.2293  0.5730
10383TIP3    H152640   2.700   5.185  15.582  0.9216  2.4446 -1.2062
10383TIP3    H252641   2.738   5.239  15.718 -0.3650 -0.4901  0.3376
10384TIP3   OH252642   2.884   3.315  16.487  0.6178  0.2922  0.4404
10384TIP3    H152643   2.890   3.301  16.392  1.9967 -0.7292  0.6668
10384TIP3    H252644   2.965   3.360  16.509  0.7003 -0.2557  1.2627
10385TIP3   OH252645   5.127   6.200   2.652  0.2096  0.3545  0.1112
10385TIP3    H152646   5.132   6.295   2.662 -0.3858  0.2595  1.5256
10385TIP3    H252647   5.185   6.166   2.720 -2.0724 -0.3194  1.7939
10386TIP3   OH252648   4.668   6.352  16.987 -1.0371 -0.0176 -0.2084
10386TIP3    H152649   4.719   6.292  16.933 -0.6338  1.0644 -1.0353
10386TIP3    H252650   4.731   6.387  17.050 -1.4297 -1.0005  0.7670
10387TIP3   OH252651   6.525   1.200   5.604 -0.0622  0.3542  0.4314
10387TIP3    H152652   6.548   1.163   5.519  1.8534  0.7686  0.7492
10387TIP3    H252653   6.531   1.125   5.664  0.5426  0.4776  0.5263
10388TIP3   OH252654   5.743   0.045  14.582 -0.0053 -0.3979  0.3630
10388TIP3    H152655   5.769   0.102  14.654  0.9879 -1.8060  1.1478
10388TIP3    H252656   5.672   0.092  14.539 -0.9582  0.2730  2.5547
10389TIP3   OH252657   1.573   4.695  15.083 -0.7878  0.4435 -0.8335
10389TIP3    H152658   1.657   4.669  15.044 -0.6299 -1.7184  0.8281
10389TIP3    H252659   1.508   4.663  15.021 -0.4359  1.0761 -1.5456
10390TIP3   OH252660   2.214   4.291  14.483  0.2911  0.5107  0.0422
10390TIP3    H152661   2.305   4.265  14.472  0.2630 -0.3870  1.6990
10390TIP3    H252662   2.163   4.219  14.446  0.2479 -0.3712  1.7554
10391TIP3   OH252663   2.986   3.418  14.460  0.1949 -0.7847  0.1685
10391TIP3    H152664   3.043   3.350  14.499  0.9461  0.6400  1.6102
10391TIP3    H252665   3.008   3.498  14.508 -1.9233  0.1314 -0.3374
10392TIP3   OH252666   5.312   3.334  12.668 -0.3178  0.1846 -0.3870
10392TIP3    H152667   5.398   3.361  12.637 -0.2674  0.2516 -0.1933
10392TIP3    H252668   5.267   3.416  12.689 -1.1243  0.2509 -2.2867
10393TIP3   OH252669   3.033   6.488  15.977  0.1097  0.4735  0.0293
10393TIP3    H152670   2.968   6.460  15.914 -0.8029 -0.4968  1.3740
10393TIP3    H252671   3.001   6.572  16.010 -0.5169 -0.0188  0.7164
10394TIP3   OH252672   4.961   1.076  14.682  0.2386  0.2686  0.4926
10394TIP3    H152673   5.019   1.149  14.704 -0.9620  1.2897  0.3176
10394TIP3    H252674   4.986   1.052  14.593  0.0982  1.0085  0.2468
10395TIP3   OH252675   3.243   2.713  16.527 -0.3906 -0.3230  0.1395
10395TIP3    H152676   3.291   2.712  16.609 -0.1361 -1.3859 -0.0223
10395TIP3    H252677   3.204   2.801  16.523  0.1721 -0.0298  1.0513
10396TIP3   OH252678   2.347   2.651   1.687 -0.4209 -0.8371 -0.2904
10396TIP3    H152679   2.378   2.561   1.678  1.3637 -0.4215  1.3004
10396TIP3    H252680   2.296   2.651   1.767  1.8094  0.1066  1.1800
10397TIP3   OH252681   1.538   0.126  15.980  0.0084  0.2570  0.0373
10397TIP3    H152682   1.490   0.071  15.918 -1.5660  0.7601  0.7800
10397TIP3    H252683   1.506   0.098  16.066 -1.1918  2.6523  0.4096
10398TIP3   OH252684   6.116   0.661  10.546 -0.4359  0.1305 -0.3220
10398TIP3    H152685   6.050   0.594  10.562 -1.3923  1.0938 -0.1037
10398TIP3    H252686   6.087   0.704  10.465  0.9298 -0.6167 -1.2249
10399TIP3   OH252687   1.525   4.223  15.963  0.3157  0.2479 -0.3911
10399TIP3    H152688   1.595   4.272  15.921  0.6621  0.8763  0.9153
10399TIP3    H252689   1.570   4.154  16.012  0.1181  1.5610  1.6536
10400TIP3   OH252690   0.790   0.542   4.447  0.2413  0.1857 -0.0143
10400TIP3    H152691   0.750   0.616   4.492 -1.0367 -0.3476 -0.2747
10400TIP3    H252692   0.732   0.469   4.463  1.4744 -0.7621  0.1910
10401TIP3   OH252693   0.112   3.573   5.164 -0.3346  0.5675 -0.0387
10401TIP3    H152694   0.093   3.544   5.075 -0.9280 -1.4531  0.7158
10401TIP3    H252695   0.136   3.493   5.211 -1.0294  1.4442  1.8734
10402TIP3   OH252696   1.492   4.383  13.532  0.0522 -0.6006 -0.2981
10402TIP3    H152697   1.442   4.317  13.484 -1.8574  1.9560 -1.9438
10402TIP3    H252698   1.426   4.444  13.565  1.8495  1.0517  0.3330
10403TIP3   OH252699   5.243   5.936  12.393  0.4920 -0.0103  1.0658
10403TIP3    H152700   5.259   5.853  12.439 -0.6552  0.3036  2.0561
10403TIP3    H252701   5.217   5.997  12.462 -0.9383  0.5649  0.0395
10404TIP3   OH252702   2.886   0.819   1.607 -0.3980  0.2253 -0.3746
10404TIP3    H152703   2.957   0.764   1.575 -0.1087 -0.5422  1.5084
10404TIP3    H252704   2.810   0.794   1.554  0.2249 -0.5291 -0.9101
10405TIP3   OH252705   4.384   0.079   1.595 -0.5622 -0.2647 -0.2304
10405TIP3    H152706   4.454   0.145   1.593  0.5473 -1.3812  0.6977
10405TIP3    H252707   4.365   0.061   1.503 -0.6244  1.0855 -0.4920
10406TIP3   OH252708   2.181   5.199  17.247 -1.0122  0.2030  0.0601
10406TIP3    H152709   2.101   5.250  17.258 -0.5985  1.4235 -2.3206
10406TIP3    H252710   2.250   5.264  17.236  0.0818 -0.8501  0.5581
10407TIP3   OH252711   0.842   3.476   2.834  0.3083  0.1324  0.0357
10407TIP3    H152712   0.791   3.544   2.879  1.7830  0.6214  1.0453
10407TIP3    H252713   0.848   3.506   2.744  0.4137  1.0483  0.3383
10408TIP3   OH252714   1.836   1.342   6.252  0.1319 -0.3602 -0.1000
10408TIP3    H152715   1.771   1.281   6.217 -0.3332 -0.0541  0.2205
10408TIP3    H252716   1.790   1.426   6.258  0.6789 -0.0438 -0.2640
10409TIP3   OH252717   1.686   4.838   0.043 -0.0108  0.7165  0.2835
10409TIP3    H152718   1.616   4.794  -0.004 -1.5322  1.4564  1.7998
10409TIP3    H252719   1.716   4.907  -0.016 -1.0096  0.8144 -0.1205
10410TIP3   OH252720   3.654   6.162  13.768  0.5092  0.3610 -0.0092
10410TIP3    H152721   3.580   6.219  13.745  0.2330  0.4108  0.9912
10410TIP3    H252722   3.620   6.105  13.836  1.4212  0.4310  0.5058
10411TIP3   OH252723   2.598   4.577   5.065  0.5645 -0.2690 -0.1807
10411TIP3    H152724   2.624   4.651   5.119 -1.6561 -1.4955  2.6741
10411TIP3    H252725   2.523   4.609   5.014  1.0608  0.1240 -0.6674
10412TIP3   OH252726   3.245   3.036   0.293 -0.0131  0.7739  0.0225
10412TIP3    H152727   3.159   3.012   0.329  0.6018 -2.0936 -0.2905
10412TIP3    H252728   3.290   3.079   0.365 -0.1058 -1.6941  1.6065
10413TIP3   OH252729   5.902   3.473  14.611 -0.1228 -0.7037  0.6779
10413TIP3    H152730   5.924   3.474  14.518 -0.8328 -2.0975  0.4797
10413TIP3    H252731   5.966   3.413  14.650 -1.0636 -1.6843  0.7406
10414TIP3   OH252732   5.420   5.208   3.084 -0.0579 -0.5434  0.1504
10414TIP3    H152733   5.470   5.290   3.087  0.7856 -1.0535  0.2830
10414TIP3    H252734   5.479   5.143   3.123 -1.1246 -1.0099  1.0071
10415TIP3   OH252735   5.566   2.548  16.142  0.1325 -0.1257 -0.3977
10415TIP3    H152736   5.573   2.566  16.236 -0.6346  2.1018 -0.7462
10415TIP3    H252737   5.475   2.569  16.121  0.2748 -0.7349 -1.6371
10416TIP3   OH252738   5.627   3.457  14.625  0.3753 -0.0173 -0.3465
10416TIP3    H152739   5.721   3.478  14.629  0.7376 -1.6941  0.4505
10416TIP3    H252740   5.607   3.425  14.713 -1.3506  1.9282 -0.0054
10417TIP3   OH252741   6.457   0.863   3.168  0.4984 -0.2896 -0.0931
10417TIP3    H152742   6.467   0.880   3.075  1.9640  1.2017  0.3193
10417TIP3    H252743   6.545   0.869   3.204  0.1198 -2.0331  1.2224
10418TIP3   OH252744   3.054   3.087   6.301  0.6808 -0.4638  0.4714
10418TIP3    H152745   3.130   3.117   6.251  1.5412 -0.2027  1.9072
10418TIP3    H252746   3.090   3.033   6.370 -0.5247 -1.0721  0.6355
10419TIP3   OH252747   1.848   0.650  13.975 -0.3960 -0.5495 -0.8536
10419TIP3    H152748   1.787   0.586  13.939 -0.8139 -0.0757 -0.9991
10419TIP3    H252749   1.931   0.632  13.931 -0.8591 -0.0762 -1.9495
10420TIP3   OH252750   1.367   2.815  15.928 -0.7005  0.1101  0.1608
10420TIP3    H152751   1.462   2.807  15.916 -0.8104 -1.4550  0.2206
10420TIP3    H252752   1.330   2.788  15.844 -1.1494 -1.5378  0.8494
10421TIP3   OH252753   3.635   3.092  17.174 -0.4634 -0.0466 -0.3434
10421TIP3    H152754   3.682   3.111  17.093 -0.8647 -0.3047 -0.6384
10421TIP3    H252755   3.703   3.087  17.241  0.0890 -1.8512 -1.0239
10422TIP3   OH252756   5.794   2.796   1.745  0.1626  0.3745  0.3827
10422TIP3    H152757   5.852   2.782   1.819  0.8907 -2.3287 -0.6252
10422TIP3    H252758   5.836   2.749   1.673 -2.5812 -0.5085 -0.7036
10423TIP3   OH252759   2.331   3.648  13.207 -0.0148  0.5538  0.0524
10423TIP3    H152760   2.334   3.698  13.289 -0.9873 -1.2108  1.1909
10423TIP3    H252761   2.323   3.557  13.235 -1.5710  0.0326 -2.0084
10424TIP3   OH252762   6.491   5.493   1.599 -0.2329 -0.0560  0.4225
10424TIP3    H152763   6.575   5.485   1.555 -0.7807  1.5010 -0.9735
10424TIP3    H252764   6.467   5.403   1.622  1.4031 -0.5905  0.0656
10425TIP3   OH252765   3.267   4.695   0.372 -0.3259  0.4381 -0.0025
10425TIP3    H152766   3.302   4.775   0.411 -0.0162 -0.2907  1.2373
10425TIP3    H252767   3.196   4.725   0.315  0.5844  1.6952 -0.4816
10426TIP3   OH252768   4.173   6.578  13.562 -0.2153  0.4686  0.0554
10426TIP3    H152769   4.181   6.598  13.655 -0.1372 -0.1047  0.1745
10426TIP3    H252770   4.171   6.663  13.519  1.0396  0.7240  0.4811
10427TIP3   OH252771   3.251   4.925   4.149  0.0376 -0.2611 -0.2327
10427TIP3    H152772   3.195   4.864   4.101 -0.4907 -0.4431  0.6106
10427TIP3    H252773   3.228   4.912   4.241 -0.1552  1.2623 -0.0483
10428TIP3   OH252774   4.458   4.374  12.561 -0.2852 -1.1805  0.1800
10428TIP3    H152775   4.532   4.402  12.615  1.4564 -1.0057 -2.1652
10428TIP3    H252776   4.496   4.305  12.505 -1.6764 -0.5320 -1.6044
10429TIP3   OH252777   3.289   1.031   4.938 -0.5442 -0.8261  0.1754
10429TIP3    H152778   3.200   1.066   4.943 -0.2791 -0.2006  0.5132
10429TIP3    H252779   3.286   0.968   4.866 -1.2442 -0.7628  0.1456
10430TIP3   OH252780   1.167   1.362   2.947  0.9493  0.5435 -0.5149
10430TIP3    H152781   1.225   1.288   2.968  0.0865 -0.0485 -0.1728
10430TIP3    H252782   1.117   1.331   2.871  0.8581  0.9301 -0.6100
10431TIP3   OH252783   3.444   4.437   4.891 -0.1066 -0.4457  0.0845
10431TIP3    H152784   3.381   4.420   4.962 -1.6366 -2.9679 -1.7774
10431TIP3    H252785   3.490   4.354   4.880  0.8967  0.2633 -1.1315
10432TIP3   OH252786   5.272   4.556  13.488  0.7479  0.1884 -0.0645
10432TIP3    H152787   5.254   4.509  13.406  1.4124  2.6143 -1.6490
10432TIP3    H252788   5.364   4.537  13.506  1.1923  1.3294 -1.0429
10433TIP3   OH252789   6.635   1.246   3.796  0.5145  0.3323  0.1220
10433TIP3    H152790   6.682   1.326   3.819 -0.1242  1.0253 -0.9657
10433TIP3    H252791   6.546   1.275   3.776  0.8707 -0.3309 -2.5100
10434TIP3   OH252792   2.552   1.019   4.414  0.0429 -0.4561 -0.0576
10434TIP3    H152793   2.460   1.006   4.436  0.1873 -0.0057  0.8466
10434TIP3    H252794   2.555   1.107   4.376  0.2247 -0.1241  0.7070
10435TIP3   OH252795   2.183   0.312   2.722  0.1025 -0.1895  0.1449
10435TIP3    H152796   2.197   0.396   2.765 -0.3849  0.7511 -1.4936
10435TIP3    H252797   2.207   0.247   2.788  1.9465  1.2386  0.9269
10436TIP3   OH252798   1.971   1.871   0.029 -0.0336 -0.3436 -0.6798
10436TIP3    H152799   2.066   1.878   0.041 -0.1628 -0.3702  0.4266
10436TIP3    H252800   1.961   1.838  -0.060  1.0077 -0.6473 -0.6972
10437TIP3   OH252801   1.676   1.361   5.917 -0.7286 -1.1341 -0.4384
10437TIP3    H152802   1.594   1.392   5.878 -0.9531 -1.6942 -0.4257
10437TIP3    H252803   1.741   1.425   5.891 -1.1636 -0.7192 -0.5054
10438TIP3   OH252804   1.523   5.641  13.190 -0.2641 -0.5365  0.1774
10438TIP3    H152805   1.497   5.583  13.118  0.2206 -0.5573  0.0196
10438TIP3    H252806   1.573   5.584  13.249 -0.4996 -0.4750  0.4358
10439TIP3   OH252807   3.164   1.266   5.312 -0.6057  0.2690 -0.5360
10439TIP3    H152808   3.076   1.233   5.331  0.2743 -1.2336  1.1096
10439TIP3    H252809   3.219   1.188   5.312  0.6285  1.1149 -2.2741
10440TIP3   OH252810   6.785   0.346  16.069  0.1734  0.0514 -0.5092
10440TIP3    H152811   6.784   0.253  16.051  2.2120 -0.1364  0.2644
10440TIP3    H252812   6.695   0.375  16.050 -0.1628 -1.8126 -1.8881
10441TIP3   OH252813   0.932   0.395  14.777  0.2283  0.0802  0.6754
10441TIP3    H152814   1.024   0.366  14.778  0.5000  0.9108  0.4964
10441TIP3    H252815   0.902   0.383  14.867  0.7259  0.4573  0.8957
10442TIP3   OH252816   2.229   1.902  11.408 -0.0935  0.1251  0.0430
10442TIP3    H152817   2.298   1.965  11.390 -1.1185  1.3453  0.3068
10442TIP3    H252818   2.261   1.819  11.371  1.4791  0.6744  0.1419
10443TIP3   OH252819   6.190   4.268  11.233  0.1724  0.0017 -0.8607
10443TIP3    H152820   6.155   4.278  11.145  0.3089 -2.2551 -1.1940
10443TIP3    H252821   6.261   4.204  11.224  0.9643  0.6296  0.6897
10444TIP3   OH252822   6.602   4.928  16.955  0.4503 -0.1549 -0.1180
10444TIP3    H152823   6.691   4.960  16.968  0.3627 -0.5776  1.6334
10444TIP3    H252824   6.595   4.851  17.012 -1.0458 -0.1076 -0.2021
10445TIP3   OH252825   5.526   1.559   5.052 -0.9794 -0.3063  0.3674
10445TIP3    H152826   5.483   1.642   5.028 -0.3074  0.2165  0.9658
10445TIP3    H252827   5.481   1.532   5.132 -0.8789 -0.2878  0.4290
10446TIP3   OH252828   4.028   6.017  17.060 -0.1865 -0.1898 -0.2868
10446TIP3    H152829   4.079   5.943  17.026  0.5911 -0.5251  1.5457
10446TIP3    H252830   4.063   6.093  17.015  2.4632 -0.3227  1.4686
10447TIP3   OH252831   5.438   3.942  13.460  0.5980 -0.1233 -0.1636
10447TIP3    H152832   5.514   3.949  13.519 -1.8325 -1.7012  3.3239
10447TIP3    H252833   5.364   3.925  13.519 -2.1398 -0.7164 -3.6562
10448TIP3   OH252834   1.738   2.895   0.502 -0.7135 -0.0745 -0.4819
10448TIP3    H152835   1.710   2.907   0.592 -0.3262  1.2083 -0.5244
10448TIP3    H252836   1.706   2.808   0.478  1.0016 -1.3085  1.5711
10449TIP3   OH252837   2.259   2.914   2.461 -0.2137  0.1278  0.8441
10449TIP3    H152838   2.198   2.985   2.444 -0.1902  0.1703  0.9387
10449TIP3    H252839   2.345   2.956   2.465  0.1486 -0.2434 -1.7675
10450TIP3   OH252840   3.658   4.204   2.085 -0.0840 -0.3953  0.1111
10450TIP3    H152841   3.676   4.120   2.126  2.2794 -0.3680 -0.8078
10450TIP3    H252842   3.663   4.187   1.991 -1.0237  0.4856 -0.1182
10451TIP3   OH252843   4.553   3.461  13.854  0.5870  0.0381 -0.0095
10451TIP3    H152844   4.514   3.374  13.865  1.6141 -0.3752  0.4746
10451TIP3    H252845   4.533   3.506  13.937 -0.0083  0.2941 -0.2897
10452TIP3   OH252846   5.479   5.585  13.304  0.1439 -0.2604  0.2264
10452TIP3    H152847   5.464   5.627  13.388 -1.6794  0.0806 -0.2413
10452TIP3    H252848   5.512   5.655  13.248  0.6446 -0.3107  0.4636
10453TIP3   OH252849   2.434   5.771   6.044  0.0996  0.2626  0.0148
10453TIP3    H152850   2.440   5.858   6.084 -0.4789 -0.0646  0.8448
10453TIP3    H252851   2.350   5.736   6.076 -0.0665 -0.2650 -0.9817
10454TIP3   OH252852   0.143   4.986   2.567 -0.4822 -0.0257 -0.2022
10454TIP3    H152853   0.206   5.054   2.544 -0.9045  0.6458  0.6157
10454TIP3    H252854   0.060   5.019   2.532 -0.3333 -1.0710 -1.5889
10455TIP3   OH252855   2.100   3.354   5.759 -0.5918  0.3016  0.0731
10455TIP3    H152856   2.046   3.433   5.751 -1.0233  0.0517  0.5070
10455TIP3    H252857   2.049   3.285   5.717 -0.5613  0.0882  0.3829
10456TIP3   OH252858   4.682   0.684  17.159  0.3105  0.2003  0.0817
10456TIP3    H152859   4.655   0.768  17.123  2.4541  1.3048  0.9554
10456TIP3    H252860   4.749   0.653  17.098 -0.7160 -1.0744 -0.4370
10457TIP3   OH252861   6.185   0.418  16.182  0.5874  0.6849  0.4366
10457TIP3    H152862   6.112   0.359  16.163  1.6014 -0.7651  0.9490
10457TIP3    H252863   6.213   0.450  16.096  0.9918 -0.7625  0.0258
10458TIP3   OH252864   0.261   1.432  11.959 -0.0308 -0.3199 -0.6719
10458TIP3    H152865   0.350   1.426  11.925 -0.2961 -0.8478 -1.3074
10458TIP3    H252866   0.222   1.347  11.937 -0.6209 -0.1734 -0.2078
10459TIP3   OH252867   3.838   3.979  12.657  0.1889  0.5956 -0.1408
10459TIP3    H152868   3.863   4.055  12.604  0.1554 -0.0113 -1.0505
10459TIP3    H252869   3.758   3.947  12.616 -0.1924  0.4955  0.6794
10460TIP3   OH252870   3.942   6.107   5.828 -0.2925  0.4635  0.2021
10460TIP3    H152871   4.030   6.073   5.845 -0.7058 -0.8039 -0.1735
10460TIP3    H252872   3.956   6.194   5.790  0.8044  0.1096 -0.2019
10461TIP3   OH252873   2.158   4.736  13.348 -0.2446 -0.2405 -0.1105
10461TIP3    H152874   2.099   4.663  13.365 -0.6124  0.1916  0.5166
10461TIP3    H252875   2.129   4.773  13.265  0.9713 -1.8020 -1.2546
10462TIP3   OH252876   3.219   5.498   4.332 -0.1071  0.1957  0.2753
10462TIP3    H152877   3.143   5.452   4.368  0.3817  0.1637  1.2990
10462TIP3    H252878   3.227   5.576   4.387  0.5962  0.1914  0.1798
10463TIP3   OH252879   0.976   2.466  15.393 -0.3502 -0.1355 -0.2027
10463TIP3    H152880   0.909   2.399  15.404 -1.4434  0.7217 -1.4466
10463TIP3    H252881   1.039   2.449  15.463 -1.2737 -1.6546  0.2792
10464TIP3   OH252882   3.756   2.690  12.788 -0.2745 -0.1448  0.1331
10464TIP3    H152883   3.750   2.742  12.869  1.6673  0.7734 -0.2798
10464TIP3    H252884   3.753   2.599  12.818  1.8836  0.1639  1.4167
10465TIP3   OH252885   4.856   2.567   4.220  0.8124 -0.4456 -0.1153
10465TIP3    H152886   4.854   2.662   4.213  1.8626 -0.4074  0.0760
10465TIP3    H252887   4.769   2.544   4.253 -0.2891  0.2475 -2.4174
10466TIP3   OH252888   0.746   2.267  13.980  0.3786 -0.0382 -0.1548
10466TIP3    H152889   0.772   2.192  14.034  1.1239 -0.7688 -1.5117
10466TIP3    H252890   0.661   2.241  13.944 -0.7424  0.9910  1.6673
10467TIP3   OH252891   3.611   3.853  16.725 -0.3138 -0.4866 -0.7895
10467TIP3    H152892   3.587   3.912  16.796 -0.9491 -1.7640  0.0963
10467TIP3    H252893   3.663   3.785  16.768  2.3087  0.5868 -2.1612
10468TIP3   OH252894   2.302   1.498  15.336 -0.2384 -0.4093 -0.2933
10468TIP3    H152895   2.223   1.551  15.348 -0.4579 -0.6273 -0.7962
10468TIP3    H252896   2.284   1.417  15.384  0.0777 -0.0548  0.4327
10469TIP3   OH252897   2.364   5.050   3.378 -0.2518 -0.0868  0.2928
10469TIP3    H152898   2.350   5.136   3.337 -1.3134 -0.3573  0.0821
10469TIP3    H252899   2.319   5.056   3.462  0.6205 -0.0671  0.7717
10470TIP3   OH252900   5.067   0.275   0.840 -0.1004 -0.5989 -0.6092
10470TIP3    H152901   5.115   0.222   0.776 -1.4230 -2.2806 -0.2217
10470TIP3    H252902   5.113   0.261   0.922  0.0366 -0.4956 -0.6677
10471TIP3   OH252903   4.429   3.522   4.582  0.0095  0.2376  0.0402
10471TIP3    H152904   4.444   3.439   4.536 -2.5373 -0.4909  0.4570
10471TIP3    H252905   4.494   3.524   4.651  0.5875 -1.0539 -0.4570
10472TIP3   OH252906   3.565   1.791  11.978 -0.0171 -0.5830  0.5763
10472TIP3    H152907   3.628   1.829  11.918 -0.7652 -1.9715 -1.1414
10472TIP3    H252908   3.497   1.857  11.987  0.4450 -0.0934  0.4536
10473TIP3   OH252909   0.748   3.972   2.395  0.0477 -0.0461  0.2115
10473TIP3    H152910   0.700   3.913   2.337 -0.0459  0.6000 -0.3802
10473TIP3    H252911   0.715   3.952   2.482  0.3492 -1.1758  0.0658
10474TIP3   OH252912   1.567   0.032   3.011  0.1417  0.7981  0.0645
10474TIP3    H152913   1.580   0.020   3.105 -0.6736 -1.5602 -0.0921
10474TIP3    H252914   1.483   0.076   3.003 -0.4227 -0.1982  0.4146
10475TIP3   OH252915   4.317   1.062   3.185 -0.1706  0.4001  0.3487
10475TIP3    H152916   4.280   1.037   3.101  1.0234 -0.2578  0.0027
10475TIP3    H252917   4.294   0.990   3.244  0.1483  0.2110  0.2455
10476TIP3   OH252918   0.888   5.768   5.952 -0.2613  0.3539  0.5958
10476TIP3    H152919   0.860   5.743   6.040  0.2505  1.5031  1.1004
10476TIP3    H252920   0.973   5.810   5.965  0.2964 -0.3740 -0.5726
10477TIP3   OH252921   2.218   5.277   0.624  0.5988 -0.0508  0.0139
10477TIP3    H152922   2.240   5.351   0.568  0.0240  0.4286  0.4014
10477TIP3    H252923   2.202   5.316   0.710 -0.9052 -0.4608 -0.0614
10478TIP3   OH252924   6.575   5.558  12.763 -0.0725  0.9493  0.2503
10478TIP3    H152925   6.596   5.473  12.725 -0.9724 -0.1902  2.2225
10478TIP3    H252926   6.649   5.614  12.740  1.0262 -0.6539 -0.1792
10479TIP3   OH252927   6.497   2.806   1.175  0.5160 -0.4675  0.0134
10479TIP3    H152928   6.570   2.751   1.204 -0.9165 -2.0868  0.6260
10479TIP3    H252929   6.440   2.747   1.127  0.1911  1.0611 -1.4966
10480TIP3   OH252930   6.666   6.485   0.738 -0.1267  0.0967  0.1788
10480TIP3    H152931   6.653   6.523   0.651  0.9988  1.6277  0.6596
10480TIP3    H252932   6.707   6.401   0.722 -0.5885  0.0469 -0.7964
10481TIP3   OH252933   6.770   4.213  16.203 -0.3446 -0.3689 -0.0127
10481TIP3    H152934   6.849   4.265  16.221  0.4816 -0.8919 -2.0088
10481TIP3    H252935   6.777   4.190  16.110 -2.4455 -1.1198 -0.0110
10482TIP3   OH252936   4.678   6.047   6.067 -0.3327  0.0857  0.1094
10482TIP3    H152937   4.737   6.091   6.128  1.3972 -1.6608 -0.2331
10482TIP3    H252938   4.694   5.954   6.081 -0.9432 -0.3729 -1.9720
10483TIP3   OH252939   4.765   6.353   2.734 -0.4983  0.2330  0.4874
10483TIP3    H152940   4.809   6.270   2.717 -0.7911  0.0642  0.5494
10483TIP3    H252941   4.775   6.367   2.828 -0.4071  0.2928  0.4690
10484TIP3   OH252942   5.561   2.733   2.189  0.5797  0.1876  0.6629
10484TIP3    H152943   5.620   2.808   2.178 -0.0714  0.5845 -0.2365
10484TIP3    H252944   5.550   2.698   2.101 -1.2767  0.7026  0.6589
10485TIP3   OH252945   3.517   6.568   1.096  0.4978 -0.2644 -0.8656
10485TIP3    H152946   3.581   6.506   1.064 -0.6181 -1.4955 -0.7543
10485TIP3    H252947   3.504   6.630   1.023  1.8858  0.0706 -0.8293
10486TIP3   OH252948   6.576   3.354   6.499  0.6077  0.3797 -0.2763
10486TIP3    H152949   6.609   3.402   6.575 -2.6077 -0.2795  1.6173
10486TIP3    H252950   6.500   3.404   6.470 -2.6651 -3.2658  1.5907
10487TIP3   OH252951   4.493   3.085  15.490 -0.1606  0.2302  0.0534
10487TIP3    H152952   4.471   3.051  15.404 -1.9489 -1.8428  1.2812
10487TIP3    H252953   4.580   3.049  15.509  1.0432  2.1562 -1.5842
10488TIP3   OH252954   6.208   3.259   0.656 -0.5308  0.4566  0.3330
10488TIP3    H152955   6.123   3.227   0.685 -1.2258  1.4849 -0.5615
10488TIP3    H252956   6.188   3.326   0.590  0.9314  1.7258  1.1470
10489TIP3   OH252957   3.104   1.735  11.440 -0.6613 -0.5907  0.6014
10489TIP3    H152958   3.103   1.735  11.345 -1.1874  2.2935  0.5733
10489TIP3    H252959   3.190   1.768  11.464 -0.0394 -2.5506  1.1647
10490TIP3   OH252960   0.691   1.412  11.572 -0.0941 -0.0599  0.2002
10490TIP3    H152961   0.753   1.482  11.594  1.5194 -1.0999 -0.9909
10490TIP3    H252962   0.650   1.441  11.491 -1.5838  0.8730  1.2591
10491TIP3   OH252963   6.135   5.146  15.995  0.3756 -0.5197  0.3977
10491TIP3    H152964   6.047   5.154  16.032 -0.3899 -1.5607 -1.1217
10491TIP3    H252965   6.182   5.222  16.029 -2.0060  1.7885 -1.1958
10492TIP3   OH252966   3.389   5.513   6.599 -0.0280  0.0923  0.1021
10492TIP3    H152967   3.470   5.486   6.643 -0.7272 -0.9844  0.7517
10492TIP3    H252968   3.332   5.436   6.604 -1.1347  0.8765 -0.2617
10493TIP3   OH252969   3.905   5.420  16.478  0.3283  0.2076 -0.3942
10493TIP3    H152970   3.892   5.429  16.383  0.3761 -0.6332 -0.4848
10493TIP3    H252971   3.862   5.337  16.500  0.0968  0.5294  0.3639
10494TIP3   OH252972   6.295   2.678   4.642 -0.7146  0.2610 -0.1968
10494TIP3    H152973   6.365   2.741   4.659  0.5545 -1.1164 -0.2001
10494TIP3    H252974   6.236   2.724   4.582 -0.5622  1.9402  0.8864
10495TIP3   OH252975   2.345   4.650   1.061  0.8592  0.0182  0.2815
10495TIP3    H152976   2.282   4.722   1.063  0.9430  0.0823  0.6970
10495TIP3    H252977   2.401   4.665   1.137  0.6446 -0.6994  0.5816
10496TIP3   OH252978   2.472   5.935   3.536  0.2750  0.5794 -0.5713
10496TIP3    H152979   2.521   5.998   3.483 -2.0239  1.7816 -1.3787
10496TIP3    H252980   2.457   5.980   3.619  3.5283 -1.1523  1.0410
10497TIP3   OH252981   3.996   6.035  13.534 -0.2194 -0.1329  0.4391
10497TIP3    H152982   4.070   6.066  13.482 -0.6883  1.3034  0.6068
10497TIP3    H252983   3.924   6.092  13.509 -1.6794 -2.4049 -0.7709
10498TIP3   OH252984   2.302   1.855   0.008 -0.1901  0.0668  0.0606
10498TIP3    H152985   2.313   1.926   0.072  0.3099 -0.4616  0.5692
10498TIP3    H252986   2.356   1.881  -0.066 -1.3635  1.0528 -0.4769
10499TIP3   OH252987   3.332   1.893   1.552  0.4715  0.3536 -0.4504
10499TIP3    H152988   3.257   1.950   1.571 -0.0679 -0.4366 -0.1776
10499TIP3    H252989   3.409   1.948   1.567 -0.0675  1.7109 -2.4596
10500TIP3   OH252990   3.182   1.954  14.389  0.1769  0.0839  0.0587
10500TIP3    H152991   3.163   1.862  14.369 -1.2867  0.1392  1.0652
10500TIP3    H252992   3.272   1.966  14.362 -0.2570 -1.0872 -2.0226
10501TIP3   OH252993   1.297   4.135  15.788  0.1624 -0.3192 -0.0640
10501TIP3    H152994   1.367   4.145  15.852 -0.7373  0.1151  0.8747
10501TIP3    H252995   1.224   4.186  15.824 -0.7278 -0.9967 -0.8716
10502TIP3   OH252996   0.775   4.494  14.569 -0.3267 -0.7604 -0.5480
10502TIP3    H152997   0.685   4.481  14.539  0.2844  0.2926 -3.0576
10502TIP3    H252998   0.789   4.589  14.562  1.4574 -1.0763 -1.7339
10503TIP3   OH252999   6.300   6.242  12.336  0.0950 -0.3606 -0.4892
10503TIP3    H153000   6.282   6.268  12.427 -0.3872  1.0701 -0.9779
10503TIP3    H253001   6.385   6.281  12.317  0.9551 -2.0287 -0.1386
10504TIP3   OH253002   6.146   2.462   3.960 -0.2102 -0.2181 -0.1099
10504TIP3    H153003   6.223   2.408   3.940 -0.8792 -0.6582 -1.5054
10504TIP3    H253004   6.147   2.531   3.894  0.2348  1.0853  1.2357
10505TIP3   OH253005   3.270   5.249   3.346 -0.0795 -0.8493 -0.1816
10505TIP3    H153006   3.192   5.290   3.309  0.4345  0.3760  0.0660
10505TIP3    H253007   3.327   5.234   3.271 -0.0794 -0.6744 -0.2178
10506TIP3   OH253008   4.033   0.470  14.931 -0.2119  1.0541  0.1040
10506TIP3    H153009   4.123   0.497  14.913 -0.4747  1.1102 -1.1724
10506TIP3    H253010   3.996   0.452  14.845 -0.7861 -1.0282  0.7708
10507TIP3   OH253011   3.320   3.472   0.905  0.1131 -0.6297  0.2250
10507TIP3    H153012   3.331   3.437   0.993  0.3453 -0.5114  0.2423
10507TIP3    H253013   3.347   3.563   0.911 -0.4521 -0.4512  0.1720
10508TIP3   OH253014   0.622   5.433   3.078 -0.0434 -0.3083  0.1301
10508TIP3    H153015   0.568   5.470   3.008 -1.7536 -2.3293  0.3487
10508TIP3    H253016   0.565   5.371   3.123  2.1500 -1.7644  1.0052
10509TIP3   OH253017   1.801   6.398   3.516  0.3890 -0.1810  0.1854
10509TIP3    H153018   1.788   6.429   3.426  4.0258 -1.8760 -1.0357
10509TIP3    H253019   1.848   6.470   3.559 -1.8756  0.8776  0.9646
10510TIP3   OH253020   2.830   3.999  15.171  0.1260  0.2961  0.0429
10510TIP3    H153021   2.744   3.970  15.201  0.0792  0.3360 -0.0533
10510TIP3    H253022   2.870   4.041  15.247  0.4552 -0.6179  0.3787
10511TIP3   OH253023   1.425   1.630  16.053 -0.4033 -0.1413  0.2377
10511TIP3    H153024   1.416   1.655  16.145  0.7020  0.5570  0.1562
10511TIP3    H253025   1.506   1.672  16.024  0.0290 -1.5551 -0.6562
10512TIP3   OH253026   1.591   2.570  15.561  0.0324  0.1537 -0.2998
10512TIP3    H153027   1.679   2.568  15.523  0.4015  1.1111  0.4939
10512TIP3    H253028   1.575   2.480  15.589  0.9782  0.0867  0.0401
10513TIP3   OH253029   3.074   3.292   3.454 -0.3110  1.0268 -0.1771
10513TIP3    H153030   3.140   3.238   3.496  0.9889  3.8945  1.6400
10513TIP3    H253031   2.992   3.244   3.466  0.8585 -0.7651  0.8540
10514TIP3   OH253032   6.524   0.945  11.243  0.1293 -0.4723 -0.3362
10514TIP3    H153033   6.582   1.001  11.192  0.7115 -0.0874  0.7146
10514TIP3    H253034   6.461   0.911  11.180 -0.4747  1.6894 -0.9258
10515TIP3   OH253035   1.832   4.944   2.045  0.3151 -0.0644  1.0268
10515TIP3    H153036   1.899   4.882   2.074  0.3999 -0.2154  0.5077
10515TIP3    H253037   1.878   5.002   1.985 -0.2537 -0.8023 -0.1286
10516TIP3   OH253038   3.097   0.333  12.912  0.3436 -0.0965  1.0614
10516TIP3    H153039   3.002   0.340  12.910  0.4776  1.9457  0.4051
10516TIP3    H253040   3.125   0.401  12.973  1.4805  0.7359 -0.3535
10517TIP3   OH253041   5.058   4.306   1.500  0.4173 -0.0729 -0.4278
10517TIP3    H153042   5.099   4.392   1.492  0.6577 -0.0872  0.5536
10517TIP3    H253043   5.034   4.282   1.411 -0.8901  1.6172 -0.5650
10518TIP3   OH253044   2.746   6.683   0.427  0.2116  0.0774  0.3361
10518TIP3    H153045   2.747   6.778   0.433  1.3396  0.2454 -2.0326
10518TIP3    H253046   2.722   6.664   0.337 -2.0521 -1.9410  1.3073
10519TIP3   OH253047   5.880   2.873  15.398  0.3647  0.6298 -0.0786
10519TIP3    H153048   5.897   2.790  15.353  0.4020  1.2414 -1.1878
10519TIP3    H253049   5.796   2.859  15.442 -0.9831  0.9326 -2.4917
10520TIP3   OH253050   0.615   5.439   2.497 -0.2123  0.6658 -0.4516
10520TIP3    H153051   0.581   5.420   2.410 -1.3483  2.6273 -0.4671
10520TIP3    H253052   0.550   5.497   2.536  0.9024  0.8159  1.2470
10521TIP3   OH253053   0.285   1.438   6.544  0.3320 -0.4594 -0.0419
10521TIP3    H153054   0.330   1.497   6.605 -1.7744  0.8082  0.3244
10521TIP3    H253055   0.269   1.359   6.595  1.6407 -0.7118 -0.0065
10522TIP3   OH253056   5.734   6.682   2.644  0.1514 -0.1855  0.0090
10522TIP3    H153057   5.793   6.617   2.606  0.0025 -0.5170  0.3440
10522TIP3    H253058   5.717   6.744   2.573  1.2807  0.1702  0.0425
10523TIP3   OH253059   4.544   1.544   2.564 -0.3648  0.5729  0.3388
10523TIP3    H153060   4.488   1.527   2.489 -0.9577  0.6040  0.7686
10523TIP3    H253061   4.628   1.506   2.541 -0.3671  1.1291 -0.5942
10524TIP3   OH253062   4.693   6.714  14.679  0.1357 -0.5547  0.0057
10524TIP3    H153063   4.637   6.695  14.755  1.4168 -2.1069  0.5849
10524TIP3    H253064   4.742   6.792  14.706  0.7001 -1.1890  0.8429
10525TIP3   OH253065   4.903   6.098   5.157 -0.5198  0.1369  0.1475
10525TIP3    H153066   4.924   6.169   5.218 -0.1142  0.5371 -0.4540
10525TIP3    H253067   4.807   6.095   5.157 -0.5254  0.1476  0.7828
10526TIP3   OH253068   6.219   3.199   3.349 -0.1556  0.1445 -0.0891
10526TIP3    H153069   6.148   3.252   3.310  1.7382  2.1687 -0.9042
10526TIP3    H253070   6.207   3.112   3.312 -3.1502  0.0363  0.9970
10527TIP3   OH253071   5.713   6.140  15.752  0.2169  0.4397  0.0314
10527TIP3    H153072   5.686   6.221  15.709  0.6081  0.1331 -0.7866
10527TIP3    H253073   5.751   6.169  15.835 -0.7867  1.0088  0.3035
10528TIP3   OH253074   2.733   0.782   6.079  0.4124 -0.2757  0.4957
10528TIP3    H153075   2.750   0.845   6.149  1.2782 -0.0169  0.0592
10528TIP3    H253076   2.650   0.741   6.104  0.4989  0.1100  1.4536
10529TIP3   OH253077   2.462   2.938   4.417  0.0170  0.4952 -0.4454
10529TIP3    H153078   2.502   2.854   4.392 -0.1745  0.5060 -0.7918
10529TIP3    H253079   2.368   2.924   4.409 -0.0145  0.7625 -0.5791
10530TIP3   OH253080   2.858   1.546  16.638 -0.2856  0.0087 -0.0564
10530TIP3    H153081   2.892   1.543  16.728 -2.1568 -1.4324  0.6470
10530TIP3    H253082   2.852   1.454  16.612 -1.5667  0.3356 -0.9444
10531TIP3   OH253083   4.396   5.953   6.624 -0.1110  0.1427 -0.2365
10531TIP3    H153084   4.451   6.017   6.580  0.4730  0.4730  0.9399
10531TIP3    H253085   4.339   6.005   6.681 -1.2877 -0.2292 -1.0685
10532TIP3   OH253086   6.612   3.261   0.980  0.3648 -0.9971  0.5068
10532TIP3    H153087   6.596   3.203   0.905 -2.6701  1.1185 -0.5676
10532TIP3    H253088   6.531   3.259   1.029  1.3203 -0.0407  2.1629
10533TIP3   OH253089   0.547   2.175  13.805 -0.1669  0.1192  0.1709
10533TIP3    H153090   0.502   2.093  13.824 -1.7163  1.3356  1.9087
10533TIP3    H253091   0.477   2.237  13.787  0.7767  2.0125  2.7374
10534TIP3   OH253092   5.246   3.020  15.715  0.8245 -0.3519 -0.0622
10534TIP3    H153093   5.279   3.106  15.740 -1.0660 -0.0097  1.3592
10534TIP3    H253094   5.190   3.037  15.639  1.1667 -0.4818 -0.3496
10535TIP3   OH253095   3.878   2.211  16.705  0.2451 -0.6994  0.1774
10535TIP3    H153096   3.793   2.184  16.742  0.0160 -1.8878 -1.1665
10535TIP3    H253097   3.855   2.277  16.640  0.5609  0.6377  1.4010
10536TIP3   OH253098   2.839   5.026   2.155 -0.1120 -0.3228 -0.1001
10536TIP3    H153099   2.825   4.966   2.228 -0.4174  1.9214  1.7419
10536TIP3    H253100   2.929   5.010   2.128  0.4542 -0.2432  1.6694
10537TIP3   OH253101   1.269   1.675  15.688  0.4798 -0.2031 -0.2889
10537TIP3    H153102   1.276   1.736  15.762  1.1968  1.2992 -1.5447
10537TIP3    H253103   1.175   1.663  15.675  0.3457 -0.3625  0.7581
10538TIP3   OH253104   1.793   1.469  12.877  0.2271 -0.1483  0.3135
10538TIP3    H153105   1.852   1.394  12.886  0.6398  0.0001 -1.0536
10538TIP3    H253106   1.800   1.515  12.961  1.3479 -0.6430  0.5022
10539TIP3   OH253107   1.605   5.309  12.004  0.3194  0.0877 -0.6166
10539TIP3    H153108   1.630   5.367  11.933  0.3184  0.2646 -0.4723
10539TIP3    H253109   1.676   5.246  12.010  0.2442 -0.0248 -0.8816
10540TIP3   OH253110   6.632   2.151  11.899  1.0171 -0.2122  0.1353
10540TIP3    H153111   6.710   2.111  11.939  1.7024  0.8150 -0.1424
10540TIP3    H253112   6.637   2.243  11.924 -0.6737 -0.3237  0.9525
10541TIP3   OH253113   0.941   6.775   2.107 -0.1120  0.1886  0.3839
10541TIP3    H153114   0.958   6.849   2.048 -2.3156 -0.3314 -0.9590
10541TIP3    H253115   0.856   6.742   2.080 -0.3089 -1.2705  2.6610
10542TIP3   OH253116   1.416   4.921   3.188  0.0428  0.3798 -0.0355
10542TIP3    H153117   1.333   4.929   3.235  0.0066  2.4287 -0.3781
10542TIP3    H253118   1.393   4.935   3.096  0.7045  0.5276 -0.1845
10543TIP3   OH253119   2.791   2.684  11.641  0.3168 -0.2732  0.4523
10543TIP3    H153120   2.834   2.675  11.556  0.6468  0.5854  0.5284
10543TIP3    H253121   2.700   2.659  11.625  0.4898 -0.6042 -0.0399
10544TIP3   OH253122   1.575   4.616  14.598  0.1541 -0.1228 -0.1059
10544TIP3    H153123   1.624   4.534  14.587  0.6450 -0.0042  1.1529
10544TIP3    H253124   1.636   4.684  14.571 -0.5099 -0.2047 -1.8884
10545TIP3   OH253125   4.634   2.720  15.299  0.2702  0.8829  0.1548
10545TIP3    H153126   4.584   2.789  15.254 -0.5666 -1.0053 -1.9045
10545TIP3    H253127   4.576   2.690  15.369  0.1420  1.4070  0.2798
10546TIP3   OH253128   5.807   2.575   0.628  0.6470  0.1514  0.4196
10546TIP3    H153129   5.799   2.490   0.672  0.8040  0.3448  0.8212
10546TIP3    H253130   5.723   2.586   0.583 -0.4997  1.1096  2.7200
10547TIP3   OH253131   4.055   1.724   0.727  0.2001 -0.3669  0.5279
10547TIP3    H153132   3.963   1.725   0.756  0.4048 -1.1999  1.2293
10547TIP3    H253133   4.103   1.692   0.803  0.9919 -0.6542 -0.0922
10548TIP3   OH253134   5.882   3.157  10.451 -0.3267  0.4622  0.3387
10548TIP3    H153135   5.794   3.193  10.439  0.4903  1.7945 -1.9337
10548TIP3    H253136   5.888   3.086  10.386 -0.6751 -1.5064  2.3900
10549TIP3   OH253137   0.844   4.699  11.117  0.3930 -0.8245 -0.2864
10549TIP3    H153138   0.913   4.743  11.067  1.2469 -1.5115  0.2782
10549TIP3    H253139   0.891   4.649  11.184 -0.7126 -0.3767  0.8409
10550TIP3   OH253140   2.128   6.607   0.314  0.1559  0.2890 -0.0852
10550TIP3    H153141   2.132   6.613   0.410  1.2563 -0.9944 -0.0297
10550TIP3    H253142   2.035   6.618   0.293 -0.4671 -1.8705  1.3415
10551TIP3   OH253143   2.665   4.301   1.093 -0.0769  0.2040  0.0904
10551TIP3    H153144   2.645   4.306   1.000  0.7083  0.3919 -0.0716
10551TIP3    H253145   2.590   4.341   1.136  0.2230  1.4599 -0.5362
10552TIP3   OH253146   3.352   0.995   2.303 -0.0568  0.0847 -0.3786
10552TIP3    H153147   3.340   0.900   2.305 -0.5784  0.1723  2.2253
10552TIP3    H253148   3.434   1.007   2.254 -0.2017 -1.6556 -1.1201
10553TIP3   OH253149   5.773   1.522  15.023  0.3274  0.1306 -0.2092
10553TIP3    H153150   5.691   1.498  14.981 -0.6101 -1.8632  2.6346
10553TIP3    H253151   5.839   1.470  14.978 -0.1105  0.7942 -1.6485
10554TIP3   OH253152   3.447   3.749   2.149 -1.0110  0.4500  0.0524
10554TIP3    H153153   3.507   3.798   2.093 -0.6691 -0.9897 -0.8796
10554TIP3    H253154   3.485   3.756   2.237 -0.8196  1.5964 -0.1136
10555TIP3   OH253155   4.586   3.947   5.407 -0.8960  0.3663  0.0918
10555TIP3    H153156   4.554   3.867   5.364 -1.2585 -0.6497  2.1739
10555TIP3    H253157   4.679   3.928   5.424 -1.3253 -0.2115  1.8709
10556TIP3   OH253158   3.903   3.710  14.049 -0.3188  0.4720 -0.3071
10556TIP3    H153159   3.832   3.655  14.082 -0.1970  0.1147 -0.6376
10556TIP3    H253160   3.942   3.747  14.128  0.1223 -0.5627 -0.0241
10557TIP3   OH253161   5.576   0.038   5.067 -0.0608  0.2715 -0.1833
10557TIP3    H153162   5.588   0.108   5.131  0.0379  1.9474 -2.0073
10557TIP3    H253163   5.500  -0.011   5.098  0.0876  0.9566  1.2892
10558TIP3   OH253164   4.760   5.762   4.297 -0.1946 -0.0659 -0.1751
10558TIP3    H153165   4.791   5.681   4.257  0.6302 -1.0717  2.3699
10558TIP3    H253166   4.665   5.761   4.283 -0.4103 -2.2862  1.1420
10559TIP3   OH253167   1.052   2.575   5.330 -0.1114 -0.2411  0.0498
10559TIP3    H153168   1.000   2.508   5.375 -0.9232  0.3846  0.0458
10559TIP3    H253169   1.139   2.567   5.369  0.2831 -2.4705 -1.1550
10560TIP3   OH253170   3.950   3.352  11.243  0.8255  0.3644  0.3426
10560TIP3    H153171   4.026   3.305  11.277  0.0355  0.3788  2.1744
10560TIP3    H253172   3.908   3.290  11.184  2.4448  0.4797 -0.9567
10561TIP3   OH253173   2.072   4.218   4.707  0.4716  0.1648 -0.4566
10561TIP3    H153174   2.152   4.240   4.661  1.6307 -3.4444 -0.3072
10561TIP3    H253175   2.090   4.134   4.749 -2.6853  0.2799  1.3112
10562TIP3   OH253176   3.594   3.659  16.538  0.3557  0.0982  0.0899
10562TIP3    H153177   3.567   3.738  16.584 -2.1808  0.5146 -1.9673
10562TIP3    H253178   3.684   3.677  16.508  0.5579  1.3459  1.4366
10563TIP3   OH253179   0.588   3.915   1.132 -0.0383  0.2578 -0.0769
10563TIP3    H153180   0.641   3.852   1.179  0.7564  0.8666 -0.1562
10563TIP3    H253181   0.633   3.927   1.049 -0.6215  0.3276 -0.3856
10564TIP3   OH253182   6.787   4.138  14.114  0.1346  0.5053  0.0754
10564TIP3    H153183   6.771   4.161  14.205 -1.0291  1.1388 -0.2742
10564TIP3    H253184   6.869   4.089  14.115  0.4979  1.1310  1.3630
10565TIP3   OH253185   0.235   6.120   5.749  0.0958 -0.0188  0.3381
10565TIP3    H153186   0.148   6.098   5.714 -0.2590  1.4170  0.2736
10565TIP3    H253187   0.220   6.133   5.843  0.0843  0.9976  0.1979
10566TIP3   OH253188   5.564   3.508  15.569 -0.1987  0.1210 -0.2153
10566TIP3    H153189   5.653   3.506  15.533  0.4097 -2.8808  1.3035
10566TIP3    H253190   5.532   3.596  15.549  2.2213  0.4602 -2.9083
10567TIP3   OH253191   3.063   5.173   4.060  0.2421 -0.5452  0.8889
10567TIP3    H153192   2.979   5.143   4.023  0.5547 -1.6426  1.0395
10567TIP3    H253193   3.113   5.092   4.073 -0.1013 -0.2839  4.3316
10568TIP3   OH253194   4.764   0.549  11.990  0.4961  0.5269  0.1675
10568TIP3    H153195   4.809   0.561  11.906  0.2554  1.8881  0.2265
10568TIP3    H253196   4.712   0.628  12.001  0.3845  0.2758  1.5214
10569TIP3   OH253197   2.316   2.209  13.435 -0.2099  0.4446 -0.2237
10569TIP3    H153198   2.364   2.176  13.359 -4.2438 -2.4983 -1.6423
10569TIP3    H253199   2.332   2.304  13.434  0.1474  0.4380 -4.5282
10570TIP3   OH253200   4.485   2.482  12.169 -0.3310 -0.3176  0.0355
10570TIP3    H153201   4.389   2.479  12.166 -0.3226 -0.1874 -0.3600
10570TIP3    H253202   4.513   2.426  12.097 -0.0942 -1.2809  0.8522
10571TIP3   OH253203   4.412   2.085  12.057  0.0558  0.0398  0.2756
10571TIP3    H153204   4.385   2.177  12.053  1.7523  0.5071 -1.3522
10571TIP3    H253205   4.445   2.073  12.145 -0.8632  0.7784  0.7307
10572TIP3   OH253206   1.861   0.056   2.059 -0.3521  0.3411  0.1454
10572TIP3    H153207   1.917   0.043   2.135 -0.4354 -0.8867  0.0044
10572TIP3    H253208   1.809   0.133   2.081  0.2951  0.5619  0.9293
10573TIP3   OH253209   2.688   0.350   1.564  0.2659  0.3576 -0.0329
10573TIP3    H153210   2.726   0.419   1.511  0.3521  0.4712  0.1753
10573TIP3    H253211   2.613   0.318   1.513  0.0482  0.8029  0.0077
10574TIP3   OH253212   1.105   5.041   4.520 -0.3245 -0.3144  0.1010
10574TIP3    H153213   1.098   4.999   4.434  0.3894  0.6109 -0.4298
10574TIP3    H253214   1.169   4.988   4.568  1.2512  0.6351 -0.8806
10575TIP3   OH253215   3.900   4.467   5.412 -0.0143 -0.0607 -0.0184
10575TIP3    H153216   3.988   4.469   5.374 -0.2586 -1.0344 -0.6391
10575TIP3    H253217   3.862   4.385   5.381 -0.6528 -0.2950  1.3722
10576TIP3   OH253218   5.672   3.776   4.164  0.3455 -0.1078  0.0173
10576TIP3    H153219   5.592   3.805   4.210 -1.1926 -2.1287 -1.3278
10576TIP3    H253220   5.670   3.824   4.081  1.2824  0.8915  0.5624
10577TIP3   OH253221   6.700   3.023  13.798  0.6117  0.3694  0.1085
10577TIP3    H153222   6.689   3.022  13.703  1.2332 -0.6391  0.0273
10577TIP3    H253223   6.668   3.109  13.825  0.3048  0.6224 -0.9934
10578TIP3   OH253224   3.352   0.410  11.921  0.2541  0.9050  0.4902
10578TIP3    H153225   3.395   0.454  11.848  1.0456  2.2323  1.7197
10578TIP3    H253226   3.265   0.449  11.925  0.3283  1.0748  0.4624
10579TIP3   OH253227   2.882   6.755   0.742  0.0112  0.0374  0.1275
10579TIP3    H153228   2.875   6.838   0.790  1.1850 -0.6177  1.4825
10579TIP3    H253229   2.922   6.779   0.658 -1.4497  1.1010 -0.2912
10580TIP3   OH253230   1.224   2.657   3.617  0.5337  0.2557 -0.2620
10580TIP3    H153231   1.174   2.736   3.637 -1.2198 -0.6471 -0.9483
10580TIP3    H253232   1.299   2.660   3.676 -0.5296  1.4454  1.0561
10581TIP3   OH253233   5.464   0.790  13.092  0.0914  0.4740  0.4568
10581TIP3    H153234   5.415   0.755  13.017  0.6189 -0.5191  0.5641
10581TIP3    H253235   5.405   0.854  13.132 -0.5428  0.3594 -0.2817
10582TIP3   OH253236   1.182   1.978  16.867 -0.1560 -0.3387 -0.0764
10582TIP3    H153237   1.253   1.992  16.805  0.1873 -1.1018  0.1322
10582TIP3    H253238   1.103   1.972  16.813 -0.2721  1.8902 -0.2053
10583TIP3   OH253239   2.992   0.643   3.961  0.0694 -0.4691  0.5415
10583TIP3    H153240   3.010   0.727   4.004 -0.2994 -1.3442  2.4708
10583TIP3    H253241   2.900   0.647   3.937  0.0035 -0.3817  0.8033
10584TIP3   OH253242   1.386   4.457  13.246 -0.2317 -0.3942 -0.7193
10584TIP3    H153243   1.344   4.512  13.313  0.4343 -0.8056  0.0377
10584TIP3    H253244   1.334   4.377  13.245 -0.6433 -0.1309 -1.1765
10585TIP3   OH253245   1.256   0.280   3.713 -0.5655 -0.2517 -0.4994
10585TIP3    H153246   1.231   0.226   3.787 -0.7672  0.4885 -0.0194
10585TIP3    H253247   1.232   0.369   3.739 -1.5687 -0.1080 -1.8541
10586TIP3   OH253248   3.762   0.831   0.429 -0.7922  0.2648 -0.1389
10586TIP3    H153249   3.772   0.922   0.456 -0.5467 -0.5036  2.5489
10586TIP3    H253250   3.682   0.802   0.473 -0.6215 -0.9289 -0.6001
10587TIP3   OH253251   1.565   2.114  17.130  0.2358  0.1311 -0.2976
10587TIP3    H153252   1.472   2.136  17.142  0.5151  1.3907 -0.3207
10587TIP3    H253253   1.565   2.037  17.074 -0.8455 -0.6926  0.8238
10588TIP3   OH253254   5.337   1.208   5.647 -0.6262  0.3577  0.5361
10588TIP3    H153255   5.366   1.157   5.722  1.7906  0.8563 -0.0027
10588TIP3    H253256   5.262   1.159   5.612 -0.8204 -0.6867  2.3382
10589TIP3   OH253257   2.351   6.167  17.102  0.2520  0.2420 -0.3483
10589TIP3    H153258   2.357   6.256  17.067  1.7985 -0.0985 -1.0064
10589TIP3    H253259   2.437   6.151  17.141 -0.1449 -0.8241  0.1046
10590TIP3   OH253260   0.169   4.516  12.914  0.7008 -0.6501 -0.2541
10590TIP3    H153261   0.090   4.504  12.967  0.5908  0.9120 -0.0426
10590TIP3    H253262   0.240   4.483  12.970  0.2284 -1.8941 -0.3786
10591TIP3   OH253263   6.577   4.422  12.269 -0.6384  0.1296 -0.5898
10591TIP3    H153264   6.584   4.518  12.262  0.0394  0.2920  1.7580
10591TIP3    H253265   6.484   4.406  12.285 -0.5876  0.5040  0.1256
10592TIP3   OH253266   1.701   2.912  16.156 -0.1772  0.6027  0.4498
10592TIP3    H153267   1.653   2.847  16.105 -1.2182  0.1241  2.0205
10592TIP3    H253268   1.773   2.864  16.197 -0.9046  0.4586  1.5551
10593TIP3   OH253269   6.659   0.647   0.793  0.1261 -0.4101  0.7156
10593TIP3    H153270   6.733   0.612   0.744  1.3241  0.1734  2.0578
10593TIP3    H253271   6.684   0.635   0.885 -1.4506 -0.2059  1.1778
10594TIP3   OH253272   2.232   0.890  11.590 -0.1845 -0.1429 -0.6486
10594TIP3    H153273   2.226   0.967  11.533  1.8313 -0.7916 -1.8216
10594TIP3    H253274   2.185   0.821  11.543  0.1393 -0.2634 -0.8018
10595TIP3   OH253275   5.813   4.419  13.632  0.0849 -0.0623 -0.6643
10595TIP3    H153276   5.877   4.465  13.578 -0.2687 -1.5013 -2.3890
10595TIP3    H253277   5.863   4.350  13.675  0.1050  0.1756 -0.3106
10596TIP3   OH253278   3.857   5.181   0.054  0.1403 -0.3959 -0.5728
10596TIP3    H153279   3.786   5.117   0.052  1.3193 -1.7321 -0.1329
10596TIP3    H253280   3.891   5.182  -0.035 -0.4725  0.3007 -0.8022
10597TIP3   OH253281   2.574   5.639  16.705  0.3833  0.1018  0.5935
10597TIP3    H153282   2.516   5.712  16.687 -0.1301 -0.2716  0.7208
10597TIP3    H253283   2.621   5.625  16.623 -0.8984 -0.6491 -0.0381
10598TIP3   OH253284   2.816   2.094   3.515  0.0292  0.0919 -0.1794
10598TIP3    H153285   2.884   2.102   3.448  0.1672 -2.2733 -0.3573
10598TIP3    H253286   2.804   2.183   3.547  3.5971  0.4933  0.2262
10599TIP3   OH253287   3.435   5.053   1.715 -0.1343 -0.0956 -0.3702
10599TIP3    H153288   3.367   4.986   1.713 -0.0973 -0.1805  0.7103
10599TIP3    H253289   3.415   5.105   1.793  0.2519  0.7140 -0.7994
10600TIP3   OH253290   1.867   3.835  14.888  0.4252 -0.5604 -0.1121
10600TIP3    H153291   1.958   3.854  14.913  0.2774 -3.0541  2.5845
10600TIP3    H253292   1.814   3.887  14.947  0.1014 -1.1546  0.1289
10601TIP3   OH253293   0.774   0.350  11.630 -0.3469 -0.2495  0.4636
10601TIP3    H153294   0.858   0.322  11.593 -0.1412 -0.1778  0.8729
10601TIP3    H253295   0.787   0.442  11.652 -1.0363  0.1978 -0.9156
10602TIP3   OH253296   1.611   3.137   0.877  0.2774  0.1631 -0.0104
10602TIP3    H153297   1.586   3.126   0.785 -2.7323 -1.0469  0.8894
10602TIP3    H253298   1.607   3.232   0.891 -2.1307  0.1544 -0.4025
10603TIP3   OH253299   3.393   4.366  15.552 -0.5625 -0.0349  0.1131
10603TIP3    H153300   3.438   4.285  15.529  1.0281  0.7214  0.4799
10603TIP3    H253301   3.420   4.384  15.642 -2.4951 -0.1433  0.7380
10604TIP3   OH253302   5.742   4.466  15.074 -0.1069 -0.5881 -0.1472
10604TIP3    H153303   5.799   4.537  15.102  0.0393 -0.7695  0.0140
10604TIP3    H253304   5.715   4.423  15.155 -1.5917  0.3538 -0.1117
10605TIP3   OH253305   1.866   3.426   3.570  0.0606  0.3740 -0.3750
10605TIP3    H153306   1.805   3.455   3.637  0.4934 -0.4623  0.4026
10605TIP3    H253307   1.923   3.363   3.615  1.6529  1.3117 -1.0102
10606TIP3   OH253308   6.002   1.651  11.386  0.7715 -0.0497 -0.7078
10606TIP3    H153309   6.067   1.719  11.403 -1.1547  1.9316 -1.0104
10606TIP3    H253310   5.946   1.650  11.464 -1.0312  0.8530 -1.9567
10607TIP3   OH253311   2.572   0.769   6.593  0.1528  0.0742 -0.3189
10607TIP3    H153312   2.542   0.818   6.670  2.4894  1.1433 -0.0524
10607TIP3    H253313   2.641   0.712   6.626 -2.0759 -2.9760 -0.7732
10608TIP3   OH253314   5.355   0.539   2.274  0.3163  0.2592  0.0639
10608TIP3    H153315   5.296   0.583   2.335  1.7229 -0.3226  1.8666
10608TIP3    H253316   5.316   0.452   2.261 -0.4336  0.6833 -0.5430
10609TIP3   OH253317   5.801   0.454   5.772  0.6506 -0.2325 -0.3542
10609TIP3    H153318   5.750   0.411   5.840  2.0504 -2.5870 -0.7376
10609TIP3    H253319   5.756   0.432   5.690  1.4668 -1.1916 -0.5659
10610TIP3   OH253320   6.326   5.370   3.546 -0.5021  0.5512  0.5681
10610TIP3    H153321   6.377   5.425   3.486 -0.9903  0.7732  0.3581
10610TIP3    H253322   6.249   5.343   3.495 -0.5994  0.2182  0.8878
10611TIP3   OH253323   1.303   2.695  11.520  0.3932  1.1136 -0.2790
10611TIP3    H153324   1.306   2.768  11.458  0.1098 -0.4126 -2.1414
10611TIP3    H253325   1.210   2.673  11.528  0.5901 -0.0216 -0.9418
10612TIP3   OH253326   1.978   6.544  14.028  0.1879 -0.8443  0.1548
10612TIP3    H153327   2.048   6.500  13.981 -0.9646 -1.1244 -1.3257
10612TIP3    H253328   1.901   6.489  14.013 -0.7202  0.3710  0.3325
10613TIP3   OH253329   0.785   5.208   3.107  0.2647  0.4423 -0.6083
10613TIP3    H153330   0.719   5.157   3.154  0.9118 -0.0418 -0.2242
10613TIP3    H253331   0.736   5.284   3.073 -0.8241 -0.7127 -1.6945
10614TIP3   OH253332   0.542   3.889  17.206  0.7664 -0.2619  0.0168
10614TIP3    H153333   0.478   3.959  17.212  1.7525  0.5159  1.9621
10614TIP3    H253334   0.499   3.813  17.245  0.5796 -0.0609  0.2026
10615TIP3   OH253335   5.106   2.111  14.419 -0.1287  0.0672  0.6208
10615TIP3    H153336   5.037   2.077  14.361 -0.5581  0.0344  1.1363
10615TIP3    H253337   5.062   2.179  14.470  0.5488  0.8977  0.0974
10616TIP3   OH253338   1.423   1.878   5.384 -0.0707 -0.2270  0.3670
10616TIP3    H153339   1.369   1.943   5.429  0.8423  1.4131 -0.8791
10616TIP3    H253340   1.507   1.882   5.429 -0.3086 -1.3113  0.9513
10617TIP3   OH253341   1.344   0.475  16.296 -0.5212 -0.3701  0.4309
10617TIP3    H153342   1.320   0.555  16.249 -0.2249  0.1481  1.1438
10617TIP3    H253343   1.316   0.404  16.239 -0.9681  0.2422 -0.1192
10618TIP3   OH253344   2.821   0.813   0.931  0.1150 -0.0491  0.0275
10618TIP3    H153345   2.883   0.874   0.971 -1.5348  1.6886 -0.0145
10618TIP3    H253346   2.808   0.745   0.996  0.6024  0.5865  0.7967
10619TIP3   OH253347   4.616   2.814   3.948 -0.1489  0.2066 -0.4434
10619TIP3    H153348   4.593   2.746   3.885  1.2849  0.0762 -0.8487
10619TIP3    H253349   4.650   2.886   3.894 -0.3930  0.7054  0.0673
10620TIP3   OH253350   6.112   6.553   5.057 -0.4578 -0.3665 -0.4664
10620TIP3    H153351   6.053   6.627   5.075  0.0556  0.4439 -2.0237
10620TIP3    H253352   6.200   6.591   5.062 -0.1663 -1.0283 -0.5779
10621TIP3   OH253353   3.522   1.498  11.864 -0.1929  0.4310 -0.6874
10621TIP3    H153354   3.547   1.480  11.774  2.5788 -1.3872  0.3832
10621TIP3    H253355   3.583   1.565  11.894 -1.2104  1.1635 -0.1779
10622TIP3   OH253356   5.995   2.439   2.643 -0.4142  0.7889 -0.0667
10622TIP3    H153357   6.012   2.526   2.607 -0.6115 -0.2813 -2.9109
10622TIP3    H253358   5.917   2.409   2.597 -0.5782 -0.7529  1.1689
10623TIP3   OH253359   1.371   2.095   0.312 -0.2591  0.0640 -0.3687
10623TIP3    H153360   1.358   2.079   0.219 -0.5802 -0.6311 -0.2105
10623TIP3    H253361   1.290   2.137   0.340  0.0393  0.7413 -0.5013
10624TIP3   OH253362   3.991   5.402   1.370 -0.0191  0.2678  0.0826
10624TIP3    H153363   4.047   5.390   1.447 -0.1799  0.1288  0.1772
10624TIP3    H253364   3.902   5.396   1.404 -0.0887 -0.2156 -0.1842
10625TIP3   OH253365   4.731   1.493  11.132  0.0433  0.0391  0.3113
10625TIP3    H153366   4.643   1.472  11.099  0.4051  0.1449 -0.7095
10625TIP3    H253367   4.785   1.503  11.054  0.0932  3.9714  0.7502
10626TIP3   OH253368   3.115   0.152  13.173 -0.3786  0.1472 -0.4156
10626TIP3    H153369   3.139   0.092  13.244  1.2554  0.1831 -0.9327
10626TIP3    H253370   3.179   0.223  13.178 -0.4044  0.2731 -1.7662
10627TIP3   OH253371   6.200   6.528  13.422  0.4594  0.2575  0.0424
10627TIP3    H153372   6.195   6.437  13.449  0.6026 -0.2601 -1.6089
10627TIP3    H253373   6.163   6.577  13.495 -1.3836 -1.2688  0.1836
10628TIP3   OH253374   6.007   1.988  11.346 -0.3382 -0.0641 -1.0060
10628TIP3    H153375   6.071   1.952  11.407 -0.9108 -0.5219 -0.6689
10628TIP3    H253376   6.056   2.000  11.264  0.5232  0.9086 -0.3514
10629TIP3   OH253377   0.826   6.591  15.844  0.8824 -0.0279  0.1941
10629TIP3    H153378   0.903   6.587  15.787  1.5254 -0.3521  1.0635
10629TIP3    H253379   0.848   6.532  15.916 -0.2108 -0.1583  0.4197
10630TIP3   OH253380   2.296   6.255   6.370 -0.4325  0.3496  0.0637
10630TIP3    H153381   2.298   6.350   6.374  0.6144  0.2943  1.2386
10630TIP3    H253382   2.383   6.228   6.399 -0.5088 -0.9494 -0.8944
10631TIP3   OH253383   2.146   3.855  11.746  0.6324  0.0969  0.7140
10631TIP3    H153384   2.225   3.817  11.786 -0.6327 -1.7330  1.5766
10631TIP3    H253385   2.101   3.780  11.707 -1.5737  0.8244  1.7913
10632TIP3   OH253386   4.553   0.057  10.528 -0.0461  0.5055 -0.1946
10632TIP3    H153387   4.474   0.028  10.573  0.4896 -1.6642 -0.5731
10632TIP3    H253388   4.613  -0.018  10.534 -0.0810 -0.0175 -4.7468
10633TIP3   OH253389   1.403   3.077   3.318  0.0322  0.1368 -0.1580
10633TIP3    H153390   1.357   3.023   3.381 -1.9890  1.2835 -0.5976
10633TIP3    H253391   1.493   3.044   3.318 -0.5436 -1.4758  1.4726
10634TIP3   OH253392   5.011   5.810   5.602 -0.1573 -0.2179  0.1574
10634TIP3    H153393   5.093   5.766   5.628 -0.3416 -0.5370  0.2091
10634TIP3    H253394   4.988   5.864   5.677  2.7246  3.9314 -1.7334
10635TIP3   OH253395   4.665   1.706   4.871  0.5638  0.1541 -0.1070
10635TIP3    H153396   4.656   1.617   4.902 -0.6979  0.3131 -0.0140
10635TIP3    H253397   4.621   1.707   4.786  1.1796  0.5166 -0.4300
10636TIP3   OH253398   5.348   3.240   4.371  0.1047 -0.0798  0.3556
10636TIP3    H153399   5.354   3.146   4.386 -2.4714 -0.1571  1.2528
10636TIP3    H253400   5.286   3.249   4.299  0.6547  0.9094  0.0036
10637TIP3   OH253401   1.486   4.650  16.683 -0.3480 -0.2963  0.4473
10637TIP3    H153402   1.494   4.721  16.748  0.6543 -0.4264  0.4688
10637TIP3    H253403   1.576   4.625  16.665 -0.5393  0.7527 -2.1265
10638TIP3   OH253404   4.979   0.297   1.820  0.5961  0.3589 -0.2428
10638TIP3    H153405   4.941   0.383   1.800 -1.3844 -0.1553  1.1621
10638TIP3    H253406   4.920   0.260   1.885  2.1532 -1.5512  0.1041
10639TIP3   OH253407   4.432   5.054   2.271  0.1769 -0.2542  0.1734
10639TIP3    H153408   4.443   5.066   2.365 -0.2919 -0.4144  0.2508
10639TIP3    H253409   4.413   5.142   2.237  2.8347  0.2377 -0.1350
10640TIP3   OH253410   3.217   3.767   5.435  0.4086  0.3697 -0.2097
10640TIP3    H153411   3.164   3.766   5.515  0.2037  2.2347 -0.2984
10640TIP3    H253412   3.264   3.684   5.437 -0.0708  0.1088  1.5290
10641TIP3   OH253413   6.114   6.530   4.690  0.1998 -0.8174 -0.1605
10641TIP3    H153414   6.041   6.539   4.752 -0.0066 -2.3269 -0.1795
10641TIP3    H253415   6.084   6.465   4.627  0.6707  0.2442 -1.5087
10642TIP3   OH253416   0.102   1.537  16.736  0.1010 -0.6452 -0.5167
10642TIP3    H153417   0.009   1.523  16.716 -0.4843  1.2992  0.7243
10642TIP3    H253418   0.101   1.596  16.811  2.3832  1.4844 -2.0985
10643TIP3   OH253419   6.724   5.428  17.136  0.1699 -0.0370 -0.3256
10643TIP3    H153420   6.778   5.475  17.200 -0.5095 -1.8224  1.6253
10643TIP3    H253421   6.694   5.350  17.183 -1.3693 -0.7684 -2.4502
10644TIP3   OH253422   2.658   1.651  14.376 -0.4189  0.4535  0.3643
10644TIP3    H153423   2.602   1.662  14.454 -1.5623 -0.9842 -0.2398
10644TIP3    H253424   2.598   1.621  14.308  1.2028 -1.7288 -0.1373
10645TIP3   OH253425   5.670   5.809   5.615  0.4374 -0.2422 -0.3771
10645TIP3    H153426   5.730   5.801   5.689 -0.3697 -2.3538  0.0785
10645TIP3    H253427   5.728   5.815   5.538  1.2607  0.0277  0.2585
10646TIP3   OH253428   0.409   1.380  13.082 -0.4088  0.1524 -0.0284
10646TIP3    H153429   0.423   1.466  13.042  0.0089  0.8129  1.5099
10646TIP3    H253430   0.498   1.346  13.099 -0.5831  0.7152  2.0810
10647TIP3   OH253431   2.400   2.044   3.618  0.0310  0.3678 -0.2171
10647TIP3    H153432   2.363   2.049   3.530  0.7096  1.0623 -0.4728
10647TIP3    H253433   2.419   1.951   3.631  0.0313  0.2785 -0.8417
10648TIP3   OH253434   5.117   3.719   2.580 -0.3835  0.3714  0.3068
10648TIP3    H153435   5.179   3.791   2.587  0.6153 -0.6813  2.9259
10648TIP3    H253436   5.049   3.752   2.522  1.1308  2.6201 -0.2772
10649TIP3   OH253437   1.085   6.638  13.288 -0.0179 -0.3859 -0.3327
10649TIP3    H153438   1.166   6.634  13.237 -0.2086  0.4641 -0.7259
10649TIP3    H253439   1.080   6.554  13.333  1.0969 -0.4299 -0.2787
10650TIP3   OH253440   3.937   0.368   0.989 -0.1977 -0.0748 -0.0671
10650TIP3    H153441   3.949   0.371   0.894 -1.2452 -0.2640 -0.2119
10650TIP3    H253442   3.963   0.280   1.014 -1.3970 -0.5441 -0.4061
10651TIP3   OH253443   6.100   5.886  14.170  0.0025  0.2229  0.2310
10651TIP3    H153444   6.057   5.873  14.255  1.0486  1.6954  1.0170
10651TIP3    H253445   6.192   5.900  14.192  0.2987  0.5126 -1.1640
10652TIP3   OH253446   3.296   0.885  12.105  0.2899 -0.4343  0.1890
10652TIP3    H153447   3.250   0.843  12.033  0.1465 -0.8284  0.5034
10652TIP3    H253448   3.343   0.958  12.065 -1.9193  0.9888  0.1270
10653TIP3   OH253449   5.308   3.797   3.765 -0.8024  0.3292  0.3748
10653TIP3    H153450   5.257   3.737   3.819 -2.1415  0.3948 -0.7941
10653TIP3    H253451   5.364   3.741   3.712 -1.6578  0.1297 -0.3233
10654TIP3   OH253452   2.982   1.019  14.787  0.3808 -0.5949  0.0360
10654TIP3    H153453   2.971   0.975  14.703  2.9149 -1.2009 -0.0041
10654TIP3    H253454   3.005   1.109  14.765  0.2447 -0.5463  0.0900
10655TIP3   OH253455   1.126   3.506   1.371  0.3247  0.0464  0.0444
10655TIP3    H153456   1.212   3.501   1.329  1.3570  0.9939  1.9996
10655TIP3    H253457   1.128   3.588   1.420 -2.8273  1.6299 -2.2968
10656TIP3   OH253458   4.537   5.061   6.545  0.0162 -0.6675 -0.3809
10656TIP3    H153459   4.597   5.129   6.514 -0.3310 -0.9098 -1.6332
10656TIP3    H253460   4.465   5.110   6.585  0.7995 -0.3647  0.6757
10657TIP3   OH253461   6.033   6.095  13.988 -0.3343  0.4564  0.5918
10657TIP3    H153462   6.037   6.009  14.029 -0.3637 -0.4925 -1.3456
10657TIP3    H253463   6.121   6.107  13.951 -0.6903  0.7287 -0.1680
10658TIP3   OH253464   2.716   1.133   2.328 -0.3261 -0.0607 -0.3546
10658TIP3    H153465   2.716   1.039   2.315 -0.2668  0.0556 -1.2359
10658TIP3    H253466   2.751   1.169   2.246  1.8530  0.6156  0.8231
10659TIP3   OH253467   1.036   4.577   2.059  0.4702  0.3311  0.0792
10659TIP3    H153468   1.027   4.506   1.995  0.0316  0.2530  0.2257
10659TIP3    H253469   1.077   4.537   2.135  0.5059  0.3052  0.0460
10660TIP3   OH253470   5.259   0.795   4.251 -0.0387 -0.1160  0.2033
10660TIP3    H153471   5.181   0.847   4.236 -0.5698 -0.9052  0.2191
10660TIP3    H253472   5.248   0.760   4.340  1.6543  2.0553  1.3198
10661TIP3   OH253473   1.096   4.260  11.172 -0.0108 -0.1277 -0.6071
10661TIP3    H153474   1.184   4.227  11.152 -0.1995 -1.1433  0.2258
10661TIP3    H253475   1.106   4.306  11.255 -0.2858 -0.3009 -0.4800
10662TIP3   OH253476   3.220   6.356   4.256 -0.0050  0.2568  0.6675
10662TIP3    H153477   3.285   6.289   4.232 -0.5539 -0.0728  0.0687
10662TIP3    H253478   3.218   6.415   4.181 -1.3663 -0.4907  0.0860
10663TIP3   OH253479   2.477   0.083  15.287  0.6051 -0.0545  0.7137
10663TIP3    H153480   2.390   0.044  15.283 -0.0442  1.4790 -0.4874
10663TIP3    H253481   2.537   0.009  15.290 -0.6299 -1.1354 -0.7902
10664TIP3   OH253482   5.870   5.897  11.050 -0.3048  0.0843  0.2953
10664TIP3    H153483   5.935   5.833  11.078 -0.5870 -0.5692 -0.5184
10664TIP3    H253484   5.920   5.978  11.036  0.2028 -0.2093  0.4122
10665TIP3   OH253485   4.318   4.856   0.075  0.9861 -0.2130  0.2567
10665TIP3    H153486   4.386   4.802   0.117  0.5272 -1.3186 -0.3952
10665TIP3    H253487   4.304   4.815  -0.010 -0.9291 -0.3676  0.6161
10666TIP3   OH253488   1.878   3.624   6.547  0.1948 -0.1313 -0.1508
10666TIP3    H153489   1.812   3.684   6.512  1.0009  1.3320  0.7514
10666TIP3    H253490   1.842   3.596   6.631  0.4722  0.2881  0.1164
10667TIP3   OH253491   6.018   1.816   4.343 -0.3623 -0.3767  0.5514
10667TIP3    H153492   5.989   1.852   4.426  3.5813 -0.5928  2.1393
10667TIP3    H253493   5.972   1.733   4.335 -1.4575  0.0779  2.0704
10668TIP3   OH253494   0.350   0.560   5.186 -0.8884  0.6879  0.0103
10668TIP3    H153495   0.258   0.534   5.196 -0.6552  0.7492  3.0733
10668TIP3    H253496   0.389   0.492   5.131 -2.5680  0.1627 -0.5522
10669TIP3   OH253497   6.335   2.433  16.467  0.6197  0.5948  0.0281
10669TIP3    H153498   6.393   2.378  16.519 -0.9240 -1.3629 -0.2791
10669TIP3    H253499   6.391   2.503  16.434  2.1598  0.4172  2.1690
10670TIP3   OH253500   1.275   4.864  14.991  0.0744 -0.0780  0.3490
10670TIP3    H153501   1.212   4.910  14.937 -0.0515  0.4921  0.9783
10670TIP3    H253502   1.346   4.841  14.931  0.3887  1.4039  0.1530
10671TIP3   OH253503   3.405   0.986   0.581  0.2505  0.5182  0.5164
10671TIP3    H153504   3.394   0.986   0.676  1.5091  0.7683  0.6738
10671TIP3    H253505   3.491   1.027   0.567  1.8971 -3.0431 -0.4677
10672TIP3   OH253506   1.072   0.945   4.015  0.1958  0.6483 -0.2522
10672TIP3    H153507   1.009   0.885   4.056 -1.8381  0.9368 -2.8432
10672TIP3    H253508   1.089   0.907   3.929 -1.0556  3.6467 -1.9040
10673TIP3   OH253509   5.520   0.874   4.267  0.0606 -0.5827  0.6967
10673TIP3    H153510   5.582   0.842   4.201  0.4093 -0.1260  0.7978
10673TIP3    H253511   5.437   0.835   4.242 -0.3354  1.5352 -1.4645
10674TIP3   OH253512   4.513   0.701   3.789  0.0416 -0.5401 -0.5519
10674TIP3    H153513   4.489   0.672   3.700 -1.2095 -1.0129 -0.0784
10674TIP3    H253514   4.602   0.671   3.801  0.0087 -1.0114 -1.4310
10675TIP3   OH253515   6.620   3.562  14.865 -0.7869  0.4517  0.0041
10675TIP3    H153516   6.542   3.618  14.857 -1.9503 -1.0032  0.8076
10675TIP3    H253517   6.584   3.474  14.880  1.0067 -0.4955 -1.1254
10676TIP3   OH253518   1.002   3.027   3.963  0.0541  0.1134  0.0607
10676TIP3    H153519   0.911   3.036   3.934 -0.1483 -0.2771  0.5651
10676TIP3    H253520   0.996   2.973   4.042  0.6899  0.3818  0.2910
10677TIP3   OH253521   1.535   2.650   1.209  0.6673 -0.4211 -0.2313
10677TIP3    H153522   1.454   2.668   1.257  0.9105 -0.8344  0.3492
10677TIP3    H253523   1.529   2.557   1.187  2.0405 -1.0453  1.8685
10678TIP3   OH253524   2.574   0.728   4.464 -0.0214 -0.5947  0.1590
10678TIP3    H153525   2.529   0.680   4.394 -0.0797 -1.1527  0.5783
10678TIP3    H253526   2.595   0.813   4.424  1.1805 -1.4059 -0.9848
10679TIP3   OH253527   4.064   3.833  12.718 -0.0139  0.0552  0.0822
10679TIP3    H153528   4.130   3.875  12.663  0.0752 -2.0896 -1.5365
10679TIP3    H253529   3.984   3.883  12.703  1.2408  2.9735  2.4161
10680TIP3   OH253530   0.107   4.847   5.414 -0.1475 -0.4018  0.2560
10680TIP3    H153531   0.051   4.916   5.450  0.0109 -0.1901  0.1034
10680TIP3    H253532   0.068   4.828   5.328 -0.8444 -1.2909  0.7681
10681TIP3   OH253533   1.539   5.626   3.804 -0.1405  0.2836  0.5496
10681TIP3    H153534   1.567   5.654   3.891 -1.7982 -0.9033  1.5070
10681TIP3    H253535   1.451   5.661   3.794 -0.9664 -1.7186  0.4267
10682TIP3   OH253536   4.243   1.563   3.779  0.0143 -0.2666 -0.1760
10682TIP3    H153537   4.236   1.482   3.830 -2.2987  0.5324  0.8378
10682TIP3    H253538   4.234   1.536   3.688  0.8186 -1.3255  0.0528
10683TIP3   OH253539   2.752   3.230  13.351 -0.1976  0.7505  0.5645
10683TIP3    H153540   2.766   3.139  13.376 -0.2327  0.4171 -0.5968
10683TIP3    H253541   2.715   3.271  13.429 -0.7232 -0.3627  0.9057
10684TIP3   OH253542   5.621   1.098   5.373 -0.9651 -0.2627  0.6404
10684TIP3    H153543   5.715   1.096   5.388 -0.6191  0.3718 -1.2963
10684TIP3    H253544   5.589   1.167   5.431  0.2695  1.8731 -1.1208
10685TIP3   OH253545   0.983   0.940   0.647  0.5489  0.7652  0.1734
10685TIP3    H153546   1.018   0.859   0.609 -1.8194  0.1701 -0.8206
10685TIP3    H253547   0.965   0.917   0.739 -0.1768  0.1369 -0.1208
10686TIP3   OH253548   5.232   1.897  15.960  0.1435 -0.2492  0.2797
10686TIP3    H153549   5.291   1.907  15.885  0.7472  0.3394  0.8277
10686TIP3    H253550   5.234   1.803  15.979  0.8272 -0.2526  0.2241
10687TIP3   OH253551   5.537   4.649   4.819  0.0671  0.4557  0.3271
10687TIP3    H153552   5.580   4.578   4.772 -0.8230 -0.1955  0.4786
10687TIP3    H253553   5.582   4.653   4.903  0.3903  0.3501  0.1601
10688TIP3   OH253554   3.215   4.858  17.149  0.2911  0.2920  0.5123
10688TIP3    H153555   3.144   4.829  17.092  0.9223  0.1458 -0.2215
10688TIP3    H253556   3.177   4.928  17.201 -0.9919 -1.2165  1.6513
10689TIP3   OH253557   3.198   3.205   1.284 -0.2799  0.0558  0.2359
10689TIP3    H153558   3.251   3.184   1.361 -2.4654 -1.6892  1.3131
10689TIP3    H253559   3.109   3.176   1.307 -1.8574  3.4162 -1.2850
10690TIP3   OH253560   4.050   2.110  17.027 -0.1341 -0.1655  0.1938
10690TIP3    H153561   4.059   2.114  16.932 -0.2093  1.0601  0.2304
10690TIP3    H253562   4.102   2.034  17.053 -0.7881 -0.9963 -0.9032
10691TIP3   OH253563   1.428   2.274   3.149 -0.7224  0.0935  0.0128
10691TIP3    H153564   1.446   2.196   3.203 -0.6728  0.3304  0.3392
10691TIP3    H253565   1.333   2.284   3.155 -0.6516  0.4694  0.5431
10692TIP3   OH253566   2.696   2.651  13.114 -0.1108  0.2081 -0.0488
10692TIP3    H153567   2.727   2.565  13.143 -0.0788 -0.0651 -0.8732
10692TIP3    H253568   2.767   2.711  13.137  0.4223 -0.1913 -0.6318
10693TIP3   OH253569   2.880   3.507  12.190 -0.1197  0.5236 -0.1406
10693TIP3    H153570   2.799   3.557  12.198  0.1514  0.7265  1.6616
10693TIP3    H253571   2.868   3.433  12.250  0.5725 -0.0823 -0.7278
10694TIP3   OH253572   1.687   1.294  16.827  0.0354 -0.4618 -0.0014
10694TIP3    H153573   1.694   1.345  16.907 -2.3820  2.6876 -1.6460
10694TIP3    H253574   1.609   1.240  16.840 -1.8482  1.8728 -1.0584
10695TIP3   OH253575   5.600   3.102  13.493  0.3159  0.0413 -0.0858
10695TIP3    H153576   5.592   3.058  13.409 -1.1737  0.7269 -0.3182
10695TIP3    H253577   5.536   3.173  13.490  0.6312  0.4239  1.4057
10696TIP3   OH253578   2.157   3.994   1.680  0.2401  0.3041  0.3802
10696TIP3    H153579   2.192   3.913   1.641 -0.4594  0.6266 -0.9495
10696TIP3    H253580   2.068   3.971   1.706  0.2815  0.4467  0.6453
10697TIP3   OH253581   5.900   4.081  11.166 -0.9309  0.4833  0.2421
10697TIP3    H153582   5.928   4.008  11.110 -0.9286 -0.5363  1.5469
10697TIP3    H253583   5.944   4.157  11.129 -0.6273 -0.2380 -0.9211
10698TIP3   OH253584   6.813   2.456  15.766 -0.7193 -0.3427  0.4717
10698TIP3    H153585   6.720   2.455  15.743 -0.7626  0.9496  0.5322
10698TIP3    H253586   6.850   2.524  15.710  0.2122 -0.9188  0.3844
10699TIP3   OH253587   4.490   3.637   4.129  0.3367  0.3634  0.6095
10699TIP3    H153588   4.505   3.604   4.041 -0.6647  0.3846  0.4209
10699TIP3    H253589   4.399   3.668   4.128 -0.3417 -1.4825  2.2314
10700TIP3   OH253590   1.443   1.602   3.237 -0.3632 -0.2944 -0.0694
10700TIP3    H153591   1.430   1.624   3.145 -3.3742 -0.5009  0.2528
10700TIP3    H253592   1.401   1.517   3.247  2.3899 -1.6052  0.9168
10701TIP3   OH253593   1.467   6.257   1.446 -0.3743 -0.1594  0.0940
10701TIP3    H153594   1.392   6.223   1.496 -0.4812 -0.8613 -0.5444
10701TIP3    H253595   1.466   6.351   1.464 -3.3368  0.3901 -2.4005
10702TIP3   OH253596   2.379   0.992  14.531 -0.2458  0.2246  0.1916
10702TIP3    H153597   2.311   1.019  14.470 -0.8947 -2.4739 -0.3303
10702TIP3    H253598   2.346   1.018  14.617 -0.4339  1.8487 -0.3520
10703TIP3   OH253599   2.595   6.360   4.969 -0.0630  0.0084  0.0619
10703TIP3    H153600   2.515   6.412   4.977  1.1153  1.9757 -0.3462
10703TIP3    H253601   2.594   6.327   4.880  0.0424  0.8700 -0.2706
10704TIP3   OH253602   2.482   4.787  15.243 -0.2813  0.3281 -0.1736
10704TIP3    H153603   2.481   4.851  15.171  0.1827 -0.5563 -0.9789
10704TIP3    H253604   2.531   4.713  15.208 -2.2158 -1.1537  0.1687
10705TIP3   OH253605   4.780   2.478   3.851  0.1444  0.9839 -0.1856
10705TIP3    H153606   4.761   2.389   3.823 -0.7912  0.6665  1.4304
10705TIP3    H253607   4.708   2.530   3.815  0.3787  1.0095 -0.6273
10706TIP3   OH253608   2.978   2.934  11.637 -0.1349 -0.1779  0.3032
10706TIP3    H153609   2.970   3.016  11.686 -0.7818 -0.1409  0.1419
10706TIP3    H253610   2.890   2.919  11.602  0.1239 -0.6396 -0.1486
10707TIP3   OH253611   2.093   5.403   3.471 -0.2919 -0.2918  0.2922
10707TIP3    H153612   2.016   5.403   3.527  1.4302 -1.5643  2.7719
10707TIP3    H253613   2.166   5.426   3.529  1.0591  2.2527 -2.2557
10708TIP3   OH253614   1.262   0.459  17.024  0.6715 -0.7390 -0.7687
10708TIP3    H153615   1.234   0.481  17.113 -2.4059 -1.8754 -1.3615
10708TIP3    H253616   1.353   0.486  17.020  0.5140  0.5284  2.3200
10709TIP3   OH253617   6.616   4.980  15.940 -0.0184  0.0658  0.4892
10709TIP3    H153618   6.640   4.979  15.847  1.0621  1.2536  0.7485
10709TIP3    H253619   6.521   4.966  15.940  0.1398 -1.1372 -0.7280
10710TIP3   OH253620   3.100   5.066   2.074 -0.4613 -0.1531 -0.4920
10710TIP3    H153621   3.128   5.079   2.165  0.7674  0.2252 -0.9122
10710TIP3    H253622   3.136   4.980   2.050 -0.5974 -0.1578 -0.6837
10711TIP3   OH253623   5.306   0.856  11.648 -0.4163  0.3886 -0.5971
10711TIP3    H153624   5.368   0.928  11.642  1.1149 -0.8264  0.2782
10711TIP3    H253625   5.356   0.779  11.620 -1.3803 -0.6923  0.5905
10712TIP3   OH253626   5.297   3.049  11.742 -0.2362  0.2373 -0.4764
10712TIP3    H153627   5.367   3.038  11.806  0.3465 -0.8873 -1.2875
10712TIP3    H253628   5.217   3.035  11.792  0.1049  1.4321  0.4355
10713TIP3   OH253629   3.735   0.129   3.511  0.0212  0.0519  0.0748
10713TIP3    H153630   3.738   0.212   3.465  1.2265 -1.2691 -2.3563
10713TIP3    H253631   3.707   0.065   3.445 -1.1992 -1.4297  1.9590
10714TIP3   OH253632   1.888   5.595   4.130  0.2862  0.7651 -0.1212
10714TIP3    H153633   1.823   5.556   4.188 -1.4858  0.4586 -2.2284
10714TIP3    H253634   1.943   5.648   4.187 -1.5607  0.6888  1.7703
10715TIP3   OH253635   1.198   2.680   3.174  0.4362  0.0173 -0.2120
10715TIP3    H153636   1.272   2.715   3.124 -0.2443 -0.6965 -1.7280
10715TIP3    H253637   1.239   2.628   3.243  1.3620  0.0365 -0.7343
10716TIP3   OH253638   5.501   4.223  13.295  0.8001  0.0266  0.0301
10716TIP3    H153639   5.559   4.180  13.358  1.7089 -1.1510 -1.5675
10716TIP3    H253640   5.412   4.197  13.323  1.2599 -1.7052 -0.0441
10717TIP3   OH253641   2.598   2.182  14.811 -0.1958  0.0705  0.1127
10717TIP3    H153642   2.534   2.231  14.759  0.3413 -1.4949 -2.1027
10717TIP3    H253643   2.643   2.249  14.862 -3.1924  1.2840  1.3156
10718TIP3   OH253644   6.564   6.240  14.098 -0.4003  0.3635 -0.0403
10718TIP3    H153645   6.543   6.150  14.122  0.2743  0.5679  1.3667
10718TIP3    H253646   6.648   6.233  14.053 -1.3379  0.0616 -1.7984
10719TIP3   OH253647   0.767   3.356   1.831  0.1017  0.1189  0.6385
10719TIP3    H153648   0.700   3.346   1.899 -0.3599  0.0543  0.1774
10719TIP3    H253649   0.815   3.435   1.856  1.7885 -1.4664  2.6211
10720TIP3   OH253650   1.779   6.282  16.823  0.5342  0.5586 -0.4828
10720TIP3    H153651   1.754   6.207  16.769 -1.0214 -0.5482  1.7062
10720TIP3    H253652   1.834   6.246  16.892  3.0757  2.0687 -1.6185
10721TIP3   OH253653   0.332   0.946   0.056 -0.8567  0.0948  0.3208
10721TIP3    H153654   0.298   0.985  -0.024 -3.0614 -1.1266  0.6272
10721TIP3    H253655   0.256   0.938   0.113  0.4168 -0.3872  1.9970
10722TIP3   OH253656   4.459   2.892   2.075 -0.4474  0.0976  0.2166
10722TIP3    H153657   4.477   2.967   2.019  0.7583  0.5715  1.2268
10722TIP3    H253658   4.421   2.827   2.016  0.1423  0.8494 -1.0105
10723TIP3   OH253659   6.148   1.911  13.770  0.1939 -0.3493  0.6793
10723TIP3    H153660   6.114   1.938  13.685 -0.9056 -1.0270  0.8892
10723TIP3    H253661   6.210   1.841  13.751 -1.1579 -1.5283  0.5223
10724TIP3   OH253662   5.746   3.922  14.346 -0.0123 -0.3075 -0.5483
10724TIP3    H153663   5.664   3.889  14.310  0.0762 -1.0943 -0.0433
10724TIP3    H253664   5.789   3.966  14.272 -0.6802 -0.2907 -0.9272
10725TIP3   OH253665   1.838   4.226  14.752  0.0235 -0.1141  0.3567
10725TIP3    H153666   1.931   4.248  14.754  0.3624 -1.3955 -0.6209
10725TIP3    H253667   1.812   4.227  14.844  0.8804  0.7440  0.6047
10726TIP3   OH253668   6.165   4.470   2.717  0.2346 -0.0021 -0.1991
10726TIP3    H153669   6.225   4.477   2.791 -0.7419  2.7214  0.3882
10726TIP3    H253670   6.078   4.461   2.758 -0.0365 -1.5249 -1.0464
10727TIP3   OH253671   3.567   2.088  16.166 -0.0197 -0.1492 -0.5557
10727TIP3    H153672   3.656   2.090  16.203  0.1973  2.1850 -1.1608
10727TIP3    H253673   3.553   1.995  16.145  1.7720 -0.7560  0.7217
10728TIP3   OH253674   5.714   2.772   3.620 -0.2398 -0.1950  0.5040
10728TIP3    H153675   5.656   2.802   3.550 -3.4542 -3.7821  1.4990
10728TIP3    H253676   5.782   2.721   3.575  0.2457  1.1714 -0.3485
10729TIP3   OH253677   2.470   6.743   6.007 -0.3543  0.7627 -0.0467
10729TIP3    H153678   2.462   6.653   6.040 -1.4668  1.1523  0.7614
10729TIP3    H253679   2.381   6.778   6.010  0.1823  2.1190  0.2845
10730TIP3   OH253680   2.938   1.733  11.664 -0.2753 -0.5105  0.4879
10730TIP3    H153681   2.860   1.782  11.637 -0.3699 -0.5675  0.6544
10730TIP3    H253682   2.984   1.714  11.582  0.5744  1.2034  0.5357
10731TIP3   OH253683   0.654   5.585   1.819  0.1442 -0.0542 -0.2899
10731TIP3    H153684   0.626   5.666   1.777 -2.1879 -0.1142  1.0685
10731TIP3    H253685   0.575   5.530   1.821  1.2178 -1.6180  0.5253
10732TIP3   OH253686   0.644   6.519   2.349 -0.0609 -0.3359  0.3247
10732TIP3    H153687   0.639   6.487   2.259  1.8059 -2.9649  1.0765
10732TIP3    H253688   0.737   6.536   2.363 -0.5494  1.7036  1.2324
10733TIP3   OH253689   3.340   2.922   0.040  0.7967 -0.2883 -0.1686
10733TIP3    H153690   3.272   2.859   0.019  0.7544 -0.2553 -0.1325
10733TIP3    H253691   3.293   3.005   0.050  0.9408 -0.1207 -0.8874
10734TIP3   OH253692   5.061   4.030   4.369  0.1239 -0.5584  0.1757
10734TIP3    H153693   5.021   4.078   4.442 -2.5617 -1.2498 -0.8055
10734TIP3    H253694   5.130   3.979   4.410 -0.9162 -0.4502  2.1534
10735TIP3   OH253695   2.986   4.486   5.013  0.9637  0.5403  0.3680
10735TIP3    H153696   3.050   4.550   5.046  1.8944 -1.2348  2.1616
10735TIP3    H253697   2.925   4.475   5.085  0.8496 -0.6208  0.1019
10736TIP3   OH253698   6.003   4.778  11.653 -0.0984 -0.0988 -0.7682
10736TIP3    H153699   5.937   4.710  11.669 -0.6107  0.5921  0.1239
10736TIP3    H253700   6.072   4.734  11.605 -0.7110 -1.1062 -0.7360
10737TIP3   OH253701   2.138   2.847  15.565  0.5596  0.6464  0.5078
10737TIP3    H153702   2.148   2.927  15.616  0.3115  1.6622 -1.0132
10737TIP3    H253703   2.054   2.810  15.594  0.8943  0.7032  1.5337
10738TIP3   OH253704   3.308   2.523  14.703 -0.7344  0.1437  0.2109
10738TIP3    H153705   3.373   2.539  14.634 -1.5007  0.4434 -0.4512
10738TIP3    H253706   3.241   2.470  14.660 -0.7700 -0.4362  0.9798
10739TIP3   OH253707   4.342   4.844  12.760  0.3267 -0.5304  0.4977
10739TIP3    H153708   4.259   4.891  12.763 -0.4642 -1.9335  0.8858
10739TIP3    H253709   4.384   4.863  12.844 -0.2579 -1.0000  0.8963
10740TIP3   OH253710   4.279   2.154   2.680  0.3377 -0.5076  0.4504
10740TIP3    H153711   4.343   2.152   2.751 -0.0867  1.4347  0.9385
10740TIP3    H253712   4.329   2.131   2.602  1.3013 -0.4780  1.0480
10741TIP3   OH253713   3.244   0.481   0.877 -0.4226 -0.6693  0.0694
10741TIP3    H153714   3.150   0.468   0.863 -0.5084 -1.8105  1.5716
10741TIP3    H253715   3.249   0.556   0.936 -0.2550  0.9940 -1.9747
10742TIP3   OH253716   3.241   5.691   6.355 -0.1000  0.0807  0.0766
10742TIP3    H153717   3.249   5.726   6.444 -0.1653 -1.7431  0.8248
10742TIP3    H253718   3.193   5.608   6.366 -1.3222  0.5065 -1.8226
10743TIP3   OH253719   0.578   1.714  17.277  0.2418 -0.4826 -0.2840
10743TIP3    H153720   0.629   1.661  17.216 -0.3389  1.1821 -2.3073
10743TIP3    H253721   0.570   1.660  17.356 -0.1532 -3.2683 -2.1604
10744TIP3   OH253722   3.357   2.193   0.434  0.8921 -0.2127 -0.2483
10744TIP3    H153723   3.405   2.230   0.360 -0.7906  0.9398 -0.7915
10744TIP3    H253724   3.280   2.151   0.394  0.4473 -0.3821  0.7737
10745TIP3   OH253725   6.761   6.717  11.529  0.1608  0.3781 -0.1070
10745TIP3    H153726   6.712   6.667  11.594 -1.3537  1.6178 -0.2721
10745TIP3    H253727   6.802   6.650  11.474  0.8398 -0.6688  1.6406
10746TIP3   OH253728   6.507   4.401  11.163 -0.7009  0.4358 -0.0140
10746TIP3    H153729   6.478   4.335  11.100  1.1134  0.1847 -0.6087
10746TIP3    H253730   6.506   4.483  11.113  2.2413 -0.0068 -0.8518
10747TIP3   OH253731   0.553   3.981   0.768 -0.6409  0.0997 -0.2288
10747TIP3    H153732   0.511   3.895   0.772 -3.5637  1.4757 -0.1081
10747TIP3    H253733   0.640   3.967   0.805 -1.5560 -2.5095  1.0417
10748TIP3   OH253734   3.402   1.609   5.687  0.2014 -0.0559  0.0370
10748TIP3    H153735   3.479   1.566   5.724 -0.0044  1.2518  2.0524
10748TIP3    H253736   3.403   1.697   5.726 -1.9719  0.1728 -0.3889
10749TIP3   OH253737   4.526   5.649   4.603  0.3049  0.7814  0.4967
10749TIP3    H153738   4.445   5.662   4.653 -0.1921  1.5449 -0.5009
10749TIP3    H253739   4.505   5.679   4.515  1.2675 -0.3224 -0.1151
10750TIP3   OH253740   3.972   6.413   4.810 -0.4405 -0.5950  0.7895
10750TIP3    H153741   3.988   6.502   4.840  2.0470 -1.2947  1.6716
10750TIP3    H253742   3.971   6.419   4.714 -3.0918  0.7977  0.8721
10751TIP3   OH253743   1.646   5.746   4.026  0.1452 -0.5571 -0.0897
10751TIP3    H153744   1.725   5.705   4.062  0.8280 -1.2277 -2.3046
10751TIP3    H253745   1.667   5.839   4.024 -0.5001 -0.3021  2.6786
10752TIP3   OH253746   3.608   1.682   0.598 -0.5913 -0.2050 -0.1111
10752TIP3    H153747   3.565   1.768   0.594  1.6169  0.9045 -0.5001
10752TIP3    H253748   3.646   1.671   0.511  1.5481 -0.3182  0.8316
10753TIP3   OH253749   1.792   3.057  15.934  0.3185  0.1113  0.2308
10753TIP3    H153750   1.737   3.074  16.011  0.2700  1.3743 -0.0657
10753TIP3    H253751   1.815   2.965  15.941  2.3601  0.7702  3.1108
10754TIP3   OH253752   3.517   1.847  11.325 -0.3452  0.0010  0.4909
10754TIP3    H153753   3.470   1.930  11.340 -0.8218 -0.2685  0.5162
10754TIP3    H253754   3.457   1.796  11.270  0.2602 -0.0454 -0.1277
10755TIP3   OH253755   2.739   0.623   0.741  0.3215  0.4045 -0.0556
10755TIP3    H153756   2.786   0.700   0.773 -0.6067  0.5302  1.0284
10755TIP3    H253757   2.747   0.558   0.811  1.0341 -0.4575 -0.9348
10756TIP3   OH253758   3.330   5.429   7.023 -0.2053 -0.1867 -0.6738
10756TIP3    H153759   3.270   5.356   7.037  0.1502 -0.5354 -0.9299
10756TIP3    H253760   3.354   5.423   6.931 -1.4460  1.2558 -1.1037
10757TIP3   OH253761   0.516   5.838   5.332  0.2585 -0.2179 -0.6049
10757TIP3    H153762   0.577   5.867   5.401  2.2985 -2.0830 -1.5726
10757TIP3    H253763   0.541   5.889   5.255 -2.5915  2.5073  0.1540
10758TIP3   OH253764   2.187   3.690   4.270 -0.2996  0.0330  0.7653
10758TIP3    H153765   2.154   3.712   4.357 -0.4616 -1.2813  1.0407
10758TIP3    H253766   2.218   3.600   4.278  0.4242  0.1759 -0.3293
10759TIP3   OH253767   2.610   1.437  12.214  0.2204  0.3745  0.4504
10759TIP3    H153768   2.650   1.358  12.251 -2.2116 -0.3563  1.6730
10759TIP3    H253769   2.616   1.502  12.284 -2.5318 -0.3788  1.4401
10760TIP3   OH253770   3.254   2.836  15.696 -0.1049 -0.3061  0.0226
10760TIP3    H153771   3.274   2.760  15.750  1.4473 -0.0955 -0.2295
10760TIP3    H253772   3.179   2.877  15.739  0.3048 -0.8575  1.2881
10761TIP3   OH253773   2.790   5.771  15.601  0.1060  0.4875  1.0914
10761TIP3    H153774   2.711   5.742  15.554  0.7847  0.2992  0.0468
10761TIP3    H253775   2.834   5.690  15.626  2.2882  0.5523 -2.3039
10762TIP3   OH253776   4.216   5.838  16.995 -0.3916 -0.3125  0.2821
10762TIP3    H153777   4.262   5.858  16.913 -1.8524 -1.5464 -0.8833
10762TIP3    H253778   4.285   5.819  17.058  0.7532  0.6506 -0.6745
10763TIP3   OH253779   2.235   3.905   1.988  0.5432 -0.1688  0.0166
10763TIP3    H153780   2.185   3.824   1.994  0.1232  0.0847 -0.0155
10763TIP3    H253781   2.191   3.955   1.919  0.5589  0.2493  0.3068
10764TIP3   OH253782   5.920   1.917   0.204 -0.1211 -0.0315  0.0985
10764TIP3    H153783   5.973   1.850   0.160 -1.7065 -1.0368 -0.3379
10764TIP3    H253784   5.977   1.951   0.274  0.5925 -2.1059  0.5658
10765TIP3   OH253785   5.927   6.177   4.361 -0.1475 -0.3367 -0.1873
10765TIP3    H153786   5.873   6.197   4.437  0.4143  0.2311  0.0707
10765TIP3    H253787   5.959   6.088   4.377 -1.5340 -0.9381 -0.6675
10766TIP3   OH253788   3.171   0.005  13.409 -0.0176 -0.4480  0.0704
10766TIP3    H153789   3.180  -0.083  13.373 -0.9666 -0.1493 -0.9228
10766TIP3    H253790   3.137  -0.008  13.498  0.9510 -1.1193  0.3508
10767TIP3   OH253791   0.103   6.172   4.755 -0.5125  0.2474  0.0049
10767TIP3    H153792   0.147   6.255   4.772 -1.8418  1.2859 -1.4240
10767TIP3    H253793   0.164   6.124   4.699  0.2109  0.3195  0.7329
10768TIP3   OH253794   6.008   2.590   1.121 -0.1318 -0.4569  0.1791
10768TIP3    H153795   6.103   2.600   1.117 -0.2939  0.3849 -4.0178
10768TIP3    H253796   5.994   2.495   1.115  0.4134 -0.5864  0.8286
10769TIP3   OH253797   4.302   1.505   6.545 -0.0617  0.0834  0.2306
10769TIP3    H153798   4.397   1.512   6.552 -0.0853 -1.3264  2.3475
10769TIP3    H253799   4.285   1.510   6.451  2.1176  0.2602 -0.1793
10770TIP3   OH253800   6.190   6.085  16.115 -0.0546  0.5759  0.3011
10770TIP3    H153801   6.209   6.015  16.178 -0.4731 -0.6716 -0.9323
10770TIP3    H253802   6.196   6.043  16.029  0.4572  2.2465 -0.5040
10771TIP3   OH253803   1.059   0.401   0.846 -0.3440 -0.2844 -0.1781
10771TIP3    H153804   1.037   0.324   0.898  0.0992 -0.3895 -0.1424
10771TIP3    H253805   0.983   0.458   0.854 -1.2760 -1.3239 -1.3669
10772TIP3   OH253806   2.647   5.441   4.124  0.1507 -0.0775 -0.9907
10772TIP3    H153807   2.605   5.509   4.072 -1.5746 -2.9770 -3.5124
10772TIP3    H253808   2.740   5.448   4.102  0.2573  2.5550  0.1332
10773TIP3   OH253809   4.597   4.384   5.563 -0.3962 -0.0433 -0.1918
10773TIP3    H153810   4.502   4.396   5.554 -0.4335 -0.3294 -0.1597
10773TIP3    H253811   4.608   4.341   5.647 -0.2246  0.1580 -0.1120
10774TIP3   OH253812   3.827   2.633  16.832  0.6328  0.2978  0.8105
10774TIP3    H153813   3.737   2.647  16.862  0.7869  0.3524  1.2499
10774TIP3    H253814   3.879   2.695  16.883  0.7952  0.9510 -0.1411
10775TIP3   OH253815   5.256   1.180  14.468 -0.4069  0.2118 -0.1359
10775TIP3    H153816   5.352   1.178  14.475 -0.2384  1.0352 -1.7947
10775TIP3    H253817   5.233   1.096  14.429 -0.1887  0.6360 -1.2159
10776TIP3   OH253818   6.528   0.463  16.052 -0.4731  0.3783  0.1151
10776TIP3    H153819   6.466   0.412  16.000 -0.3799  0.6856 -0.2954
10776TIP3    H253820   6.517   0.553  16.021  0.6235  0.3377 -0.3743
10777TIP3   OH253821   4.391   3.353  13.122 -0.0581  0.0736  0.3162
10777TIP3    H153822   4.437   3.435  13.143  0.1751 -0.4853  2.1199
10777TIP3    H253823   4.461   3.292  13.099 -0.3377  0.7631 -2.4801
10778TIP3   OH253824   0.280   3.670  12.258  0.3425  0.6921 -0.1788
10778TIP3    H153825   0.292   3.623  12.176  1.8707  0.2139  0.3183
10778TIP3    H253826   0.328   3.751  12.247 -0.6706  1.2855 -0.2969
10779TIP3   OH253827   4.788   3.190   1.070  0.1469  0.2933  0.2723
10779TIP3    H153828   4.841   3.152   1.140  0.5450  3.0830  1.5720
10779TIP3    H253829   4.699   3.160   1.089  0.2929  0.8086  1.8503
10780TIP3   OH253830   4.692   4.563   1.900 -0.0623  0.4564 -0.4492
10780TIP3    H153831   4.671   4.573   1.993  1.3052  1.3675 -0.2188
10780TIP3    H253832   4.786   4.583   1.894  0.5345 -2.3775 -1.6021
10781TIP3   OH253833   2.884   4.393  14.540  0.7267  0.1046  0.0249
10781TIP3    H153834   2.861   4.401  14.447 -0.6015  0.2109  0.3487
10781TIP3    H253835   2.940   4.315  14.544  1.1697  0.3662 -0.9235
10782TIP3   OH253836   0.438   1.395   3.898  0.4527  0.4830  0.3953
10782TIP3    H153837   0.400   1.323   3.847  0.9854  0.4044  0.1033
10782TIP3    H253838   0.385   1.399   3.978 -1.4556  1.7037 -0.8870
10783TIP3   OH253839   3.666   2.075   3.199 -0.1467 -0.6070 -0.3490
10783TIP3    H153840   3.582   2.029   3.197 -1.0943  0.9002  1.9500
10783TIP3    H253841   3.649   2.153   3.253  2.6097 -0.0247 -0.2416
10784TIP3   OH253842   2.037   5.986   2.609 -0.0412  0.7621 -0.1313
10784TIP3    H153843   2.000   6.075   2.606  1.1364  1.3078  0.8515
10784TIP3    H253844   2.097   5.988   2.684 -1.2698 -1.3683  0.9479
10785TIP3   OH253845   4.230   5.020   1.716 -0.5740 -0.2904  0.6205
10785TIP3    H153846   4.310   5.064   1.744 -0.2744 -1.4185  1.5691
10785TIP3    H253847   4.163   5.089   1.716  0.4640  0.7357 -0.5504
10786TIP3   OH253848   2.334   2.087  15.719 -0.7184 -0.5508  0.1025
10786TIP3    H153849   2.374   2.043  15.645  0.8066  0.0614  0.5390
10786TIP3    H253850   2.278   2.154  15.680 -1.1148 -1.2368 -0.5143
10787TIP3   OH253851   3.899   3.557   0.259 -0.3006 -0.5589  0.1784
10787TIP3    H153852   3.851   3.479   0.287 -1.8193 -0.2989 -1.6235
10787TIP3    H253853   3.982   3.552   0.307 -0.8251 -2.6874  0.9369
10788TIP3   OH253854   0.904   4.953   0.580  0.0935  0.0045  0.0862
10788TIP3    H153855   0.944   4.883   0.528 -1.5220 -1.1075  0.2872
10788TIP3    H253856   0.923   4.928   0.671 -0.3886 -0.1277  0.1533
10789TIP3   OH253857   6.383   3.889  12.431  0.1916  0.3787  0.3814
10789TIP3    H153858   6.459   3.939  12.402 -0.0599  0.3155 -0.3878
10789TIP3    H253859   6.340   3.946  12.496  0.4913  0.7134  0.2847
10790TIP3   OH253860   5.900   4.329   5.330 -0.2848  0.2838  0.2111
10790TIP3    H153861   5.849   4.406   5.353  0.7599  0.7865  0.8729
10790TIP3    H253862   5.870   4.261   5.390 -0.3688  0.5092  0.4233
10791TIP3   OH253863   5.237   3.799  13.611 -0.5073  0.3716 -0.4492
10791TIP3    H153864   5.202   3.732  13.552 -0.5163 -0.8653  0.9416
10791TIP3    H253865   5.207   3.773  13.698 -0.4613  2.1562  0.1172
10792TIP3   OH253866   2.194   5.325  13.191 -0.2701  0.2319 -0.4890
10792TIP3    H153867   2.275   5.348  13.145  1.3921  1.3440  2.8020
10792TIP3    H253868   2.196   5.230  13.197 -0.9435 -0.0172 -3.3179
10793TIP3   OH253869   0.626   0.666  13.582 -0.2127  0.2219 -0.2864
10793TIP3    H153870   0.592   0.659  13.671  1.3549  0.1758  0.3153
10793TIP3    H253871   0.580   0.597  13.533 -1.4682  0.5910  0.3353
10794TIP3   OH253872   3.198   0.143  12.748 -0.5502  0.0505  0.2218
10794TIP3    H153873   3.135   0.195  12.796  0.7989  1.1505  0.8459
10794TIP3    H253874   3.200   0.182  12.660 -1.0161 -0.2244  0.0916
10795TIP3   OH253875   5.855   3.578  14.869  0.1682  0.5491 -0.1408
10795TIP3    H153876   5.852   3.545  14.780 -1.2641  1.4983 -0.4627
10795TIP3    H253877   5.929   3.640  14.869 -0.0197  0.7768 -0.7493
10796TIP3   OH253878   4.082   4.152  13.866  0.3032  0.9232 -0.1022
10796TIP3    H153879   3.993   4.132  13.835 -0.1856  1.1935  1.1263
10796TIP3    H253880   4.088   4.247  13.861  0.2558  0.9619  0.5291
10797TIP3   OH253881   5.406   6.112   5.981  0.4474 -0.1990  0.3615
10797TIP3    H153882   5.484   6.128   6.035  1.7255  1.8041 -1.9820
10797TIP3    H253883   5.441   6.072   5.901 -0.9591  0.5652 -0.6441
10798TIP3   OH253884   2.501   4.745  13.872 -0.0808 -0.2768 -0.7520
10798TIP3    H153885   2.513   4.784  13.959  2.3389 -0.5035 -0.9406
10798TIP3    H253886   2.494   4.651  13.889  0.6468 -0.3464 -0.7995
10799TIP3   OH253887   0.183   4.391  13.446  0.6992 -0.2033 -0.5390
10799TIP3    H153888   0.256   4.400  13.384  0.7565  0.6574 -0.3503
10799TIP3    H253889   0.148   4.479  13.455  0.5497 -0.3590  0.4973
10800TIP3   OH253890   0.228   2.415  14.741  0.4195 -0.1740 -0.0137
10800TIP3    H153891   0.247   2.364  14.820 -2.3621 -0.0745  0.7615
10800TIP3    H253892   0.249   2.356  14.668 -0.3889 -1.5488  0.8552
10801TIP3   OH253893   0.072   1.256  13.577 -0.2992  0.2103  0.0418
10801TIP3    H153894  -0.020   1.271  13.553  0.2594  1.1949 -1.5568
10801TIP3    H253895   0.070   1.177  13.632 -1.8923 -0.9730 -1.6314
10802TIP3   OH253896   0.007   0.189   2.045  0.6937 -0.0414 -0.0202
10802TIP3    H153897   0.023   0.110   2.097  1.3403  0.1055  0.0051
10802TIP3    H253898   0.094   0.221   2.022  0.4247  0.3589 -0.4974
10803TIP3   OH253899   3.821   4.272   0.336  0.6516 -0.3965  0.3868
10803TIP3    H153900   3.901   4.222   0.324  1.4330  0.8353  0.3986
10803TIP3    H253901   3.844   4.341   0.399 -0.0812  0.6780 -0.4953
10804TIP3   OH253902   4.445   6.629  12.563 -0.2603 -0.0902  0.6575
10804TIP3    H153903   4.441   6.719  12.530  0.3503 -0.4527 -0.4100
10804TIP3    H253904   4.537   6.605  12.559 -0.6663 -1.4992 -1.0888
10805TIP3   OH253905   0.051   0.000  16.336  0.3326 -0.1956 -0.0427
10805TIP3    H153906   0.135  -0.045  16.326 -0.3458 -1.0866 -2.0761
10805TIP3    H253907   0.053   0.035  16.425  2.2253 -1.4889  0.4643
10806TIP3   OH253908   2.837   0.390  13.359  0.1886 -0.1272  0.2123
10806TIP3    H153909   2.847   0.301  13.391 -0.7072 -0.6026 -0.7901
10806TIP3    H253910   2.742   0.405  13.359  0.1848 -0.0329 -1.8866
10807TIP3   OH253911   1.021   0.969  11.532 -0.1234  0.6657 -0.7023
10807TIP3    H153912   0.959   1.022  11.582 -0.2240 -1.0565  1.0396
10807TIP3    H253913   0.971   0.937  11.457 -0.7594  0.9704 -0.4118
10808TIP3   OH253914   6.274   5.193  13.757  0.6325  0.0415  0.4873
10808TIP3    H153915   6.230   5.225  13.678  0.9469 -0.1798  0.2168
10808TIP3    H253916   6.314   5.271  13.795  1.7065 -0.0737 -0.3667
10809TIP3   OH253917   1.179   5.895   1.477  0.1801  0.4442 -0.1540
10809TIP3    H153918   1.166   5.984   1.444 -0.4311  0.9530  1.3882
10809TIP3    H253919   1.133   5.894   1.561  0.2115 -1.3222 -0.1396
10810TIP3   OH253920   0.240   2.092   2.832  0.1436 -0.0129  0.3406
10810TIP3    H153921   0.191   2.172   2.814  0.5606  0.1917  0.1222
10810TIP3    H253922   0.172   2.025   2.843 -0.1860  0.2609  0.0058
10811TIP3   OH253923   3.097   4.354  13.538  0.3603 -0.6646  0.2115
10811TIP3    H153924   3.021   4.374  13.484  0.6233  2.5983  0.9250
10811TIP3    H253925   3.171   4.354  13.477  0.0668 -1.6847 -0.1470
10812TIP3   OH253926   2.424   1.734  10.763 -0.1711 -0.7588  0.0308
10812TIP3    H153927   2.509   1.770  10.787 -0.3424 -1.6713  2.1855
10812TIP3    H253928   2.385   1.800  10.706  1.6170  0.0543 -0.3031
10813TIP3   OH253929   2.419   5.382   6.006 -0.3395  0.2535  0.0354
10813TIP3    H153930   2.408   5.393   5.911  0.2349 -0.4588 -0.1150
10813TIP3    H253931   2.333   5.403   6.042 -1.3814 -2.2080 -0.8828
10814TIP3   OH253932   5.680   3.221   1.053 -0.4629 -0.0561  0.0507
10814TIP3    H153933   5.763   3.265   1.072 -0.4226 -0.1771  0.1544
10814TIP3    H253934   5.706   3.136   1.016 -0.5390  0.1374 -0.4632
10815TIP3   OH253935   0.992   0.846   2.089 -0.2148 -0.0298  0.0933
10815TIP3    H153936   0.998   0.940   2.074 -0.5797 -0.0213 -0.0009
10815TIP3    H253937   0.955   0.810   2.009  0.9224 -0.3928 -0.2873
10816TIP3   OH253938   5.319   0.350   6.024 -0.2447 -0.4185  0.2180
10816TIP3    H153939   5.388   0.333   6.088 -0.4900 -1.9135  0.1097
10816TIP3    H253940   5.362   0.399   5.955  0.2804  0.2500  1.0078
10817TIP3   OH253941   4.959   4.833  11.574 -0.2561  0.5315  0.6223
10817TIP3    H153942   4.999   4.790  11.499 -0.0875  0.8372  0.5362
10817TIP3    H253943   4.874   4.863  11.542  0.6137  2.3801 -0.0143
10818TIP3   OH253944   1.776   2.788   4.423  0.1409  0.4730 -0.6045
10818TIP3    H153945   1.802   2.805   4.332  0.0363 -0.6203 -0.8501
10818TIP3    H253946   1.853   2.749   4.463 -0.3873 -0.7216 -0.7287
10819TIP3   OH253947   1.833   1.733   6.143  0.7667 -0.0632 -0.0769
10819TIP3    H153948   1.897   1.747   6.212 -0.3144 -0.6875  1.0661
10819TIP3    H253949   1.768   1.674   6.181 -0.8903  1.1387 -0.9575
10820TIP3   OH253950   5.321   4.182  14.112 -0.2610 -0.2395  0.0370
10820TIP3    H153951   5.337   4.171  14.206  1.1763 -1.1236 -0.2985
10820TIP3    H253952   5.364   4.106  14.071  0.2431  0.8175 -1.4322
10821TIP3   OH253953   1.588   6.325   6.129 -0.0714  0.0947 -0.3845
10821TIP3    H153954   1.579   6.392   6.197 -1.4092 -0.4632 -0.0088
10821TIP3    H253955   1.654   6.265   6.163 -1.1237 -0.4816  0.6854
10822TIP3   OH253956   6.531   4.135   2.172 -0.1503 -0.3359  0.2952
10822TIP3    H153957   6.445   4.117   2.208  0.1722 -0.8662  0.8013
10822TIP3    H253958   6.514   4.192   2.096 -1.0667 -1.7566 -0.5850
10823TIP3   OH253959   6.804   4.983  12.122 -0.0054 -0.4340  0.1632
10823TIP3    H153960   6.772   4.939  12.043  0.1896 -1.4428  0.6389
10823TIP3    H253961   6.833   5.069  12.091  0.2627 -0.8986 -0.8955
10824TIP3   OH253962   3.181   3.464   2.909 -0.5208 -0.3198 -0.1034
10824TIP3    H153963   3.139   3.517   2.976  1.2345 -0.3536  1.0779
10824TIP3    H253964   3.153   3.375   2.928 -0.6274 -0.2378  0.1316
10825TIP3   OH253965   3.916   0.263   3.884  0.1929  0.3017 -0.2650
10825TIP3    H153966   3.856   0.194   3.858  3.0852 -1.6109 -2.2335
10825TIP3    H253967   3.860   0.334   3.915 -2.8828 -2.7181  1.3688
10826TIP3   OH253968   3.107   5.843  11.976  0.1428 -0.3192  0.1875
10826TIP3    H153969   3.143   5.759  12.005  1.6699  0.3255  0.2045
10826TIP3    H253970   3.146   5.856  11.889 -1.2947 -0.3546 -0.4716
10827TIP3   OH253971   2.617   3.344  13.560  0.1866 -0.4358  0.1615
10827TIP3    H153972   2.529   3.315  13.535 -0.0125  0.1557  0.1562
10827TIP3    H253973   2.622   3.328  13.654 -0.0169 -0.2358  0.2056
10828TIP3   OH253974   0.558   3.998  14.944  0.3936 -0.2508  0.0894
10828TIP3    H153975   0.500   4.055  14.894 -0.2983  1.5882  2.8516
10828TIP3    H253976   0.521   3.911  14.934 -2.1164  0.6985  0.7045
10829TIP3   OH253977   5.973   2.542   4.155  0.4410  0.3104  0.3404
10829TIP3    H153978   5.906   2.568   4.092  1.3956  1.3796 -0.2478
10829TIP3    H253979   6.052   2.529   4.103  0.9857  0.1798  1.1760
10830TIP3   OH253980   2.832   6.536   6.033  0.1996  0.0500 -0.3149
10830TIP3    H153981   2.907   6.493   6.073 -0.7271 -1.2747  0.0068
10830TIP3    H253982   2.869   6.581   5.957  1.3839 -0.2403  0.0747
10831TIP3   OH253983   2.000   2.125  11.864  0.5822 -0.2255  1.0559
10831TIP3    H153984   2.041   2.129  11.778 -1.4759  0.8598  0.1089
10831TIP3    H253985   2.014   2.034  11.892  0.9840 -0.6863 -0.5668
10832TIP3   OH253986   4.220   3.825  12.047  0.1791 -0.4651  0.4050
10832TIP3    H153987   4.230   3.899  11.987 -0.3082 -1.7571 -1.3201
10832TIP3    H253988   4.127   3.824  12.068  0.1051 -0.8346  0.0756
10833TIP3   OH253989   3.408   3.541   4.840 -0.6669 -0.5621 -0.2386
10833TIP3    H153990   3.382   3.618   4.789 -2.0687 -0.6867  0.2636
10833TIP3    H253991   3.503   3.538   4.832 -0.5760  1.3529 -0.0957
10834TIP3   OH253992   4.167   4.470   5.574  0.3423 -0.4795  0.6810
10834TIP3    H153993   4.173   4.426   5.489 -0.5812 -1.6573  1.2204
10834TIP3    H253994   4.206   4.557   5.559 -2.5236  0.4629 -1.7023
10835TIP3   OH253995   6.616   1.783  13.511 -0.0966  0.4697 -0.2277
10835TIP3    H153996   6.629   1.729  13.589  0.8860  1.6924  0.4752
10835TIP3    H253997   6.704   1.808  13.484 -0.3922 -0.2919 -2.0078
10836TIP3   OH253998   5.268   3.390   3.265 -0.2721 -0.7391  0.1323
10836TIP3    H153999   5.298   3.469   3.221  3.1713 -1.3229  1.2951
10836TIP3    H254000   5.214   3.345   3.199 -1.7145  2.1963 -0.7551
10837TIP3   OH254001   4.371   4.097   5.463 -0.2526  0.1241  0.1050
10837TIP3    H154002   4.406   4.159   5.528 -0.1390  0.7131 -0.5124
10837TIP3    H254003   4.444   4.037   5.448  0.4044  1.1460 -0.9219
10838TIP3   OH254004   5.327   4.179   4.239  0.2213 -0.0639 -1.3012
10838TIP3    H154005   5.319   4.263   4.194 -0.8491 -0.9987 -2.8989
10838TIP3    H254006   5.238   4.143   4.239  0.6238 -1.0927 -0.4032
10839TIP3   OH254007   0.242   2.061   0.227 -0.0726  0.2424 -0.4835
10839TIP3    H154008   0.318   2.038   0.173  1.3656  1.2965  1.0329
10839TIP3    H254009   0.252   2.154   0.245 -1.8427  0.4330 -0.4022
10840TIP3   OH254010   4.878   5.089  12.580  0.2182 -0.0526 -0.3861
10840TIP3    H154011   4.892   5.117  12.670  0.1916  2.3700 -1.1081
10840TIP3    H254012   4.784   5.099  12.565  0.5193  1.5691 -1.3074
10841TIP3   OH254013   5.807   2.783  15.838  0.4060 -0.2665  0.1965
10841TIP3    H154014   5.842   2.839  15.769  0.1650 -1.4162 -0.8717
10841TIP3    H254015   5.717   2.765  15.810  0.1867 -0.4474  1.0004
10842TIP3   OH254016   1.334   3.181  16.308  0.6125 -0.1163  0.0399
10842TIP3    H154017   1.396   3.123  16.352  0.4122  0.0638  0.5604
10842TIP3    H254018   1.282   3.124  16.251  0.3570 -0.4538  0.6150
10843TIP3   OH254019   5.325   2.065  15.220 -0.5620  0.3241 -0.5096
10843TIP3    H154020   5.230   2.057  15.216 -0.4701 -0.5586 -0.9472
10843TIP3    H254021   5.347   2.046  15.311 -0.7178 -0.4265 -0.6274
10844TIP3   OH254022   6.790   3.955  13.249  0.5260 -0.5039  0.2403
10844TIP3    H154023   6.714   3.991  13.295  1.3659  2.2621 -0.4186
10844TIP3    H254024   6.757   3.878  13.204 -1.5164 -0.2433  1.2498
10845TIP3   OH254025   4.449   5.169  12.719 -0.2112  0.0357  0.7771
10845TIP3    H154026   4.461   5.263  12.734 -0.1010  0.2203 -0.4297
10845TIP3    H254027   4.363   5.150  12.756 -0.8514  0.9069 -0.2288
10846TIP3   OH254028   1.148   4.503   3.929 -0.0304 -0.1837  0.7193
10846TIP3    H154029   1.165   4.410   3.946  1.8080 -0.1330 -0.7261
10846TIP3    H254030   1.069   4.503   3.874 -0.1556 -0.8720  0.8898
10847TIP3   OH254031   6.461   3.748  15.120 -0.1440  0.4996 -0.3578
10847TIP3    H154032   6.406   3.674  15.094 -1.6640  1.4917 -0.0062
10847TIP3    H254033   6.506   3.774  15.039 -0.5452 -0.0111 -0.7500
10848TIP3   OH254034   3.918   3.386  10.907 -0.1433 -0.0165 -0.1881
10848TIP3    H154035   3.925   3.294  10.935  1.0331 -0.0887 -0.6801
10848TIP3    H254036   3.827   3.396  10.879 -0.3333 -0.9812  0.0675
10849TIP3   OH254037   3.461   5.477   1.287 -0.4878  0.0876 -0.2687
10849TIP3    H154038   3.402   5.502   1.216  0.0918  0.7717 -0.5105
10849TIP3    H254039   3.402   5.443   1.355 -0.9721 -1.4656 -1.4342
10850TIP3   OH254040   6.071   2.756   2.874  0.2378  0.0005  0.3133
10850TIP3    H154041   6.146   2.807   2.905  0.8254 -0.0078 -1.0341
10850TIP3    H254042   6.107   2.668   2.860 -0.0136 -0.0038 -0.3331
10851TIP3   OH254043   3.467   0.648   0.831 -0.0785 -0.1228  0.7872
10851TIP3    H154044   3.519   0.595   0.891 -1.0044  0.3118  2.0044
10851TIP3    H254045   3.393   0.591   0.808 -0.6264  0.3261  1.4246
10852TIP3   OH254046   2.476   5.281  16.685  0.2171 -0.5566  0.3384
10852TIP3    H154047   2.389   5.244  16.698  0.3689 -1.0230  0.0712
10852TIP3    H254048   2.464   5.349  16.618  0.0466 -0.5792  0.3479
10853TIP3   OH254049   4.265   5.069  10.817 -0.8557  0.0342 -0.1867
10853TIP3    H154050   4.293   4.978  10.811 -1.6881 -0.0840 -2.4580
10853TIP3    H254051   4.342   5.119  10.787 -0.3868  0.1041  1.0908
10854TIP3   OH254052   0.503   3.890   1.835 -0.7948 -0.0304 -0.2425
10854TIP3    H154053   0.532   3.901   1.744 -2.3804 -2.3515 -1.0546
10854TIP3    H254054   0.409   3.906   1.833 -1.0365 -1.2349  0.7815
10855TIP3   OH254055   0.452   6.375  15.346 -0.0234 -0.7844 -0.3733
10855TIP3    H154056   0.535   6.386  15.392  0.3491 -0.9829 -0.9842
10855TIP3    H254057   0.463   6.294  15.295 -0.4617 -0.6273 -0.7293
10856TIP3   OH254058   1.339   2.072  12.208 -0.0082 -0.2619  0.4205
10856TIP3    H154059   1.295   2.113  12.282  0.6745 -0.2241  0.8101
10856TIP3    H254060   1.392   2.141  12.170 -0.4318 -0.2583 -0.1664
10857TIP3   OH254061   4.615   6.772  15.388 -0.3369  0.5174  0.4102
10857TIP3    H154062   4.613   6.799  15.479  0.4561 -0.3741  0.6993
10857TIP3    H254063   4.693   6.717  15.381 -0.9436 -0.2306 -0.5726
10858TIP3   OH254064   6.777   0.090  15.930 -0.1355 -0.1475  0.3554
10858TIP3    H154065   6.847   0.025  15.937 -0.2282 -0.0856  2.0485
10858TIP3    H254066   6.699   0.044  15.960 -0.8727 -0.2628 -1.6933
10859TIP3   OH254067   5.031   4.522   1.055  0.2435 -0.0860  0.6855
10859TIP3    H154068   4.960   4.585   1.052 -1.7172 -2.2166  0.9391
10859TIP3    H254069   5.098   4.559   0.997 -1.8070  1.0884 -1.0053
10860TIP3   OH254070   3.298   1.175   3.661  0.0157  0.0722 -0.2464
10860TIP3    H154071   3.255   1.260   3.671 -1.3510 -0.7316  0.8458
10860TIP3    H254072   3.294   1.158   3.567  0.4866  1.2933 -0.5069
10861TIP3   OH254073   2.678   5.072  15.975 -0.0641 -0.0569  0.2643
10861TIP3    H154074   2.769   5.043  15.969 -0.2797 -0.7548  0.2873
10861TIP3    H254075   2.683   5.160  16.011  0.5144 -0.7241  1.8541
10862TIP3   OH254076   5.682   4.222  17.068  0.3594 -0.0574  0.0194
10862TIP3    H154077   5.592   4.242  17.094  0.6403 -1.7486  2.4969
10862TIP3    H254078   5.727   4.306  17.072 -0.7896  0.5615  0.1298
10863TIP3   OH254079   3.652   2.765  13.497  0.3287  0.1297  0.3745
10863TIP3    H154080   3.688   2.821  13.566  0.8552  0.1910  0.0549
10863TIP3    H254081   3.700   2.791  13.418  0.4729 -0.6767  0.1948
10864TIP3   OH254082   5.197   5.502  14.946 -0.4757 -0.7942 -0.2227
10864TIP3    H154083   5.129   5.459  14.894 -2.1692  0.7146  0.6726
10864TIP3    H254084   5.251   5.548  14.882 -2.0385  0.3557 -0.7534
10865TIP3   OH254085   1.431   2.253   4.026 -0.1726 -0.5907  0.1964
10865TIP3    H154086   1.521   2.228   4.050  0.8103  1.0649 -1.5940
10865TIP3    H254087   1.401   2.183   3.969  0.5629 -0.3950 -0.4392
10866TIP3   OH254088   1.320   0.008   6.726  0.1408  0.2073 -0.0590
10866TIP3    H154089   1.268   0.003   6.645  0.9002 -0.2326 -0.5288
10866TIP3    H254090   1.275  -0.050   6.787  1.5437 -2.2634 -1.3025
10867TIP3   OH254091   2.844   3.603  13.872  0.7786  0.1323 -0.1964
10867TIP3    H154092   2.927   3.623  13.915  0.5239 -0.9830  0.8625
10867TIP3    H254093   2.796   3.550  13.937 -0.7951  0.8590 -0.7447
10868TIP3   OH254094   0.227   2.105  15.229  0.0028 -0.5016 -0.4393
10868TIP3    H154095   0.219   2.190  15.274 -0.4469 -1.8902  2.2241
10868TIP3    H254096   0.138   2.086  15.199 -0.4267 -1.1710  1.1909
10869TIP3   OH254097   5.655   4.281  11.798  0.0792 -0.8430  0.1305
10869TIP3    H154098   5.656   4.289  11.702 -0.8568  1.5675  0.3023
10869TIP3    H254099   5.563   4.294  11.822 -0.0424 -3.3672  1.2439
10870TIP3   OH254100   6.729   5.461  16.410 -0.4526  0.1211 -0.3535
10870TIP3    H154101   6.651   5.495  16.453  0.5195  0.8526  0.8807
10870TIP3    H254102   6.787   5.537  16.400  0.5096 -0.5859 -0.3200
10871TIP3   OH254103   3.142   4.770   0.635 -0.1642  0.5856 -1.0258
10871TIP3    H154104   3.187   4.709   0.577 -0.0837  1.0036 -1.4018
10871TIP3    H254105   3.150   4.855   0.592 -1.8714  0.5631 -1.4174
10872TIP3   OH254106   2.352   2.919   5.262 -0.1035  0.2894  0.0055
10872TIP3    H154107   2.395   2.864   5.196  1.1065 -0.0337  1.0652
10872TIP3    H254108   2.258   2.904   5.248  0.0785  1.1896 -2.4751
10873TIP3   OH254109   6.740   1.307   4.147 -0.6298 -0.1432  0.3039
10873TIP3    H154110   6.673   1.238   4.149 -1.1069  0.3084 -0.2267
10873TIP3    H254111   6.700   1.378   4.098  0.4938 -0.1309 -0.5932
10874TIP3   OH254112   6.546   2.181  14.663  0.6853 -0.7723 -0.0877
10874TIP3    H154113   6.582   2.270  14.656 -2.6008  0.5737 -0.9531
10874TIP3    H254114   6.522   2.158  14.573  3.2712 -3.3531 -0.1573
10875TIP3   OH254115   1.433   4.639   3.296 -0.0427 -0.2660  0.3078
10875TIP3    H154116   1.397   4.579   3.230 -1.8067  1.0374  0.0397
10875TIP3    H254117   1.416   4.727   3.260 -1.1004  0.4649  2.5372
10876TIP3   OH254118   4.738   2.377   2.300 -0.7051  0.4567  0.5352
10876TIP3    H154119   4.731   2.282   2.306  0.6159  0.4633  2.2979
10876TIP3    H254120   4.705   2.397   2.212 -1.3431 -1.5794  0.2763
10877TIP3   OH254121   0.598   2.313  15.957  0.1486 -0.3637  0.6312
10877TIP3    H154122   0.522   2.256  15.968 -1.4349  1.7277  0.7432
10877TIP3    H254123   0.601   2.364  16.038 -0.5454  2.1422 -0.8759
10878TIP3   OH254124   2.574   4.951   3.591 -0.6253  0.4973 -0.2070
10878TIP3    H154125   2.548   5.039   3.616 -1.5283  0.9371 -2.5474
10878TIP3    H254126   2.626   4.963   3.511 -0.8460 -1.0979 -0.6074
10879TIP3   OH254127   4.171   4.629   2.581  0.3126  0.0379 -0.6348
10879TIP3    H154128   4.251   4.640   2.529  0.8598  1.2738  0.4253
10879TIP3    H254129   4.108   4.689   2.541  1.6552  3.3181  1.8704
10880TIP3   OH254130   5.716   3.705  15.341  0.0408 -0.4569  0.2614
10880TIP3    H154131   5.638   3.754  15.316 -0.7309 -1.0207  1.5128
10880TIP3    H254132   5.733   3.647  15.267 -0.8441 -0.4551  0.0502
10881TIP3   OH254133   0.432   0.912  12.464 -0.2689 -0.4007  0.1885
10881TIP3    H154134   0.433   0.985  12.525  1.2374 -1.3983  1.4019
10881TIP3    H254135   0.409   0.950  12.379 -0.1207  1.3414  0.9312
10882TIP3   OH254136   6.502   1.255  13.479  0.2198 -0.3928 -0.5698
10882TIP3    H154137   6.446   1.186  13.443  0.2642 -1.0610  0.6011
10882TIP3    H254138   6.590   1.218  13.477  0.3356 -0.1186 -0.5585
10883TIP3   OH254139   2.171   2.468  14.333  0.3495  0.0696  0.4922
10883TIP3    H154140   2.200   2.377  14.344  0.4798 -0.1370 -1.4357
10883TIP3    H254141   2.129   2.489  14.416 -1.5687 -2.4728  0.2480
10884TIP3   OH254142   4.565   6.786   0.209  0.0083  0.1804 -0.3334
10884TIP3    H154143   4.550   6.829   0.125  0.0908  0.0728 -0.4040
10884TIP3    H254144   4.478   6.759   0.238  0.1654 -1.4410 -1.2793
10885TIP3   OH254145   3.002   6.571   1.720  0.5942  0.3769  0.2860
10885TIP3    H154146   2.966   6.649   1.761 -0.1155  0.6394 -0.8089
10885TIP3    H254147   3.060   6.534   1.786  1.5896  2.2784  0.5130
10886TIP3   OH254148   3.727   2.015  14.273  0.2495  0.2542  0.5358
10886TIP3    H154149   3.762   2.092  14.229  0.3831 -0.0367  0.1265
10886TIP3    H254150   3.794   1.992  14.338  0.2371  0.4448  0.6178
10887TIP3   OH254151   3.409   4.631  14.510  0.5894  0.6120  0.1410
10887TIP3    H154152   3.449   4.642  14.597  2.1347  1.5080 -0.6631
10887TIP3    H254153   3.336   4.570  14.525  0.7760  0.8162  2.0817
10888TIP3   OH254154   3.374   1.722  14.521  0.2996 -0.3704 -0.2803
10888TIP3    H154155   3.315   1.679  14.459  0.4114 -1.0815  0.0988
10888TIP3    H254156   3.318   1.747  14.594  0.5636 -1.6989  0.4128
10889TIP3   OH254157   6.787   4.781  15.734  0.0204 -0.0323 -0.5852
10889TIP3    H154158   6.849   4.734  15.678  2.3459 -1.4573  2.9968
10889TIP3    H254159   6.831   4.863  15.755 -0.1067 -0.2015  0.3893
10890TIP3   OH254160   3.044   1.919  10.704 -0.7568  0.5029 -0.1680
10890TIP3    H154161   3.106   1.963  10.762 -0.2975 -1.1071  0.5984
10890TIP3    H254162   2.961   1.922  10.750 -0.3086 -1.1218  0.7879
10891TIP3   OH254163   5.038   1.983   5.648 -0.2111  0.1809  0.0540
10891TIP3    H154164   5.071   1.939   5.726 -0.9203  1.0354  0.8620
10891TIP3    H254165   5.016   1.912   5.588 -0.0909 -0.5149  0.8172
10892TIP3   OH254166   4.004   5.676  16.929  0.7992  0.1186  0.1010
10892TIP3    H154167   4.029   5.613  16.996  0.5444 -0.6955 -0.5635
10892TIP3    H254168   4.080   5.734  16.920  0.2988  1.1177  2.1093
10893TIP3   OH254169   4.511   6.310  16.596  0.3581 -0.1664 -0.1749
10893TIP3    H154170   4.531   6.217  16.592  0.9824 -0.1066  1.1334
10893TIP3    H254171   4.550   6.347  16.517  0.2369 -0.9866 -0.6216
10894TIP3   OH254172   6.146   5.858  14.630 -0.0173  0.1586  0.4178
10894TIP3    H154173   6.171   5.949  14.611  0.3760 -0.3231 -1.4740
10894TIP3    H254174   6.214   5.826  14.688  0.6586  0.6353 -0.1036
10895TIP3   OH254175   3.012   1.129  13.369  0.4295 -0.9492  0.1683
10895TIP3    H154176   2.921   1.148  13.392  0.2459 -3.0212  1.2671
10895TIP3    H254177   3.043   1.208  13.325 -1.7356 -0.0221  0.2708
10896TIP3   OH254178   6.457   3.050  15.985 -0.1302 -0.5658  0.0524
10896TIP3    H154179   6.415   3.007  16.060 -1.1410 -0.3941 -0.4232
10896TIP3    H254180   6.400   3.122  15.963  0.5472 -0.1753 -0.4362
10897TIP3   OH254181   2.706   0.317   6.201 -0.1702 -0.3093  0.7423
10897TIP3    H154182   2.646   0.297   6.130  0.2191  0.1686  0.2741
10897TIP3    H254183   2.656   0.301   6.281 -0.1677 -2.2695  0.3864
10898TIP3   OH254184   3.790   5.667  11.438  0.3245  0.3647 -0.0310
10898TIP3    H154185   3.702   5.637  11.459  0.6209 -0.6950 -0.2929
10898TIP3    H254186   3.797   5.659  11.343  1.0570 -0.5422  0.0935
10899TIP3   OH254187   6.796   3.125  14.552  0.3980  0.2963  0.9757
10899TIP3    H154188   6.742   3.203  14.541  0.1409 -0.2044 -1.5914
10899TIP3    H254189   6.886   3.158  14.557  0.1420  0.8744  1.8718
10900TIP3   OH254190   1.934   6.629   3.593 -0.0206  0.5626  0.3585
10900TIP3    H154191   2.002   6.658   3.654  0.9962  1.2694 -1.0842
10900TIP3    H254192   1.878   6.706   3.583 -0.2975  0.3848  0.5448
10901TIP3   OH254193   4.685   4.309  12.041 -0.4705 -0.0184 -0.2066
10901TIP3    H154194   4.744   4.325  11.967  0.6168 -2.4296  0.0727
10901TIP3    H254195   4.607   4.271  12.001 -0.2018 -0.5790 -0.2076
10902TIP3   OH254196   2.497   1.551   3.077  0.1470 -0.5496  0.1059
10902TIP3    H154197   2.536   1.565   2.991  0.2144  1.2129  0.4061
10902TIP3    H254198   2.569   1.520   3.131  0.0137 -2.0614 -0.5592
10903TIP3   OH254199   3.796   6.035   2.011 -0.4024 -0.1428  0.7194
10903TIP3    H154200   3.800   6.029   2.106 -0.6513  1.1680  0.8217
10903TIP3    H254201   3.740   6.111   1.993  0.6736  0.4218 -0.4428
10904TIP3   OH254202   2.550   5.853   4.862  0.0272  0.0928  0.1911
10904TIP3    H154203   2.540   5.808   4.945  1.3204  0.8151  0.7605
10904TIP3    H254204   2.487   5.925   4.866 -1.5098 -1.2023 -0.4123
10905TIP3   OH254205   5.999   1.705  10.770 -0.4497  0.2725  0.6565
10905TIP3    H154206   6.065   1.692  10.838 -0.8053 -0.8518  0.7931
10905TIP3    H254207   6.047   1.749  10.699 -0.1110  1.5825  1.6599
10906TIP3   OH254208   5.698   2.506  12.419 -0.0421 -0.3716  0.1139
10906TIP3    H154209   5.604   2.495  12.407 -0.2617 -0.7089  1.8898
10906TIP3    H254210   5.710   2.600  12.433 -0.4052 -0.5847  1.9676
10907TIP3   OH254211   5.338   5.467   4.947 -0.0165 -0.3251  0.0103
10907TIP3    H154212   5.264   5.406   4.952  1.1279 -1.8232 -0.8657
10907TIP3    H254213   5.339   5.496   4.856  0.2039  0.0257  0.1243
10908TIP3   OH254214   1.455   3.349   4.790  0.9478 -0.1154 -0.8359
10908TIP3    H154215   1.432   3.274   4.735  0.9928 -0.8452  0.1133
10908TIP3    H254216   1.483   3.309   4.873  1.0687  0.9518 -0.3617
10909TIP3   OH254217   6.275   5.012   1.905  0.2232 -0.5042  0.9307
10909TIP3    H154218   6.350   5.052   1.860 -1.2705 -0.0418 -1.2265
10909TIP3    H254219   6.273   5.056   1.991  1.3446  0.7582  0.3448
10910TIP3   OH254220   3.581   2.766  16.194  0.5670  0.4187 -0.5214
10910TIP3    H154221   3.575   2.751  16.289 -1.1496 -2.2581 -1.0123
10910TIP3    H254222   3.518   2.835  16.177  1.3256  1.3532  0.3569
10911TIP3   OH254223   5.877   2.480   5.150  0.3774  0.8206 -0.1518
10911TIP3    H154224   5.853   2.467   5.058  1.2958  2.4516 -0.6372
10911TIP3    H254225   5.955   2.425   5.162  0.1452  0.4594 -0.2914
10912TIP3   OH254226   1.284   1.679  14.252 -0.1508  0.2489 -0.6310
10912TIP3    H154227   1.377   1.661  14.258  0.0084  1.1512 -0.4242
10912TIP3    H254228   1.269   1.697  14.159  0.3428  2.6015 -0.2782
10913TIP3   OH254229   5.819   3.518  11.249 -0.1969  0.7859  0.3123
10913TIP3    H154230   5.826   3.613  11.242 -2.8640  0.9281 -0.9333
10913TIP3    H254231   5.794   3.489  11.161  0.3751 -1.0468  0.7318
10914TIP3   OH254232   3.272   5.561  11.262  0.4129 -0.0859 -0.6685
10914TIP3    H154233   3.322   5.561  11.181  1.0759 -1.0806 -0.2786
10914TIP3    H254234   3.240   5.651  11.272  1.5653  0.3962 -1.2682
10915TIP3   OH254235   1.137   5.784   4.498 -0.2167  0.2493 -0.5957
10915TIP3    H154236   1.178   5.699   4.482  0.3939  0.1673  1.3052
10915TIP3    H254237   1.085   5.770   4.578 -0.5770  1.5018 -0.6064
10916TIP3   OH254238   3.409   1.166   5.866 -0.5048  0.3219 -0.2234
10916TIP3    H154239   3.503   1.167   5.847 -0.5753  0.9583 -0.5573
10916TIP3    H254240   3.398   1.094   5.928  0.1593  0.0545 -0.4097
10917TIP3   OH254241   4.507   1.664  14.404  0.0407  0.0479 -0.7728
10917TIP3    H154242   4.563   1.702  14.472 -0.8369  0.7638 -0.4350
10917TIP3    H254243   4.516   1.724  14.330 -0.5509  0.3767 -0.5890
10918TIP3   OH254244   4.592   5.930  16.272 -0.1937 -0.0433  0.0232
10918TIP3    H154245   4.613   5.901  16.183  1.2352  0.5752  0.1403
10918TIP3    H254246   4.637   5.868  16.329 -0.5764 -0.0538  0.3195
10919TIP3   OH254247   6.544   0.100   5.344  0.1117  0.0311 -0.7921
10919TIP3    H154248   6.473   0.067   5.289 -0.0829  1.4261 -1.4156
10919TIP3    H254249   6.500   0.133   5.423  0.0066  1.2135 -1.3285
10920TIP3   OH254250   6.645   0.576   1.454 -0.4520  0.5196 -0.3052
10920TIP3    H154251   6.713   0.612   1.397  0.0840  0.0945  0.0542
10920TIP3    H254252   6.602   0.510   1.400 -2.0060  2.2794 -1.2537
10921TIP3   OH254253   0.669   4.692  12.738 -0.0356 -0.3225  0.5839
10921TIP3    H154254   0.707   4.712  12.653 -1.8103 -0.8044 -0.3332
10921TIP3    H254255   0.740   4.709  12.800  1.3722 -0.2839 -1.0036
10922TIP3   OH254256   0.579   0.122   5.286 -0.3106  0.5894  0.0381
10922TIP3    H154257   0.646   0.131   5.219  0.3532  2.0059  0.8459
10922TIP3    H254258   0.542   0.035   5.273  2.2856 -0.5735  0.1126
10923TIP3   OH254259   5.709   4.403   1.898 -0.3096 -0.4317  0.0756
10923TIP3    H154260   5.619   4.390   1.869 -0.2135  1.4291 -1.1015
10923TIP3    H254261   5.701   4.434   1.989 -0.9568  1.5524 -0.6336
10924TIP3   OH254262   0.815   0.952   1.334  0.0063 -0.5541  0.2238
10924TIP3    H154263   0.798   1.016   1.265 -1.0195  0.2071  1.1525
10924TIP3    H254264   0.731   0.940   1.377  0.7638 -0.4668  1.7920
10925TIP3   OH254265   4.054   0.254  13.796 -0.3454 -0.2746  0.1708
10925TIP3    H154266   4.128   0.206  13.758 -0.3546  0.3869 -0.7029
10925TIP3    H254267   4.019   0.195  13.862  1.3836 -0.3343  1.0618
10926TIP3   OH254268   0.267   1.579  12.188  0.2726 -0.7336  0.1219
10926TIP3    H154269   0.218   1.541  12.116  0.4127 -0.5535 -0.0672
10926TIP3    H254270   0.355   1.541  12.180  0.6267  0.2146 -0.5154
10927TIP3   OH254271   0.444   3.613   1.176  0.5232  0.3488  0.3815
10927TIP3    H154272   0.444   3.691   1.232  0.1944  1.5182 -1.2210
10927TIP3    H254273   0.359   3.572   1.192 -0.2760  1.6263 -0.5442
10928TIP3   OH254274   3.353   2.560   0.166 -0.0701 -0.4336 -0.0066
10928TIP3    H154275   3.276   2.554   0.222  0.3399 -0.2005  0.5943
10928TIP3    H254276   3.382   2.651   0.175  1.4187 -1.0132  1.3288
10929TIP3   OH254277   4.120   0.908   1.417 -0.7281  0.6713 -0.2384
10929TIP3    H154278   4.204   0.901   1.372 -1.8893 -0.1372 -2.3750
10929TIP3    H254279   4.069   0.834   1.383 -1.9126  0.4954  1.8652
10930TIP3   OH254280   1.798   0.502   4.312 -0.3249  0.0015 -0.1318
10930TIP3    H154281   1.888   0.523   4.336 -1.0086  2.8552  0.1196
10930TIP3    H254282   1.751   0.586   4.317 -3.0394 -1.4483 -0.0470
10931TIP3   OH254283   0.971   4.562   3.168  0.0729 -0.1198  0.1903
10931TIP3    H154284   0.921   4.596   3.242  1.2428 -0.4608  1.1610
10931TIP3    H254285   1.017   4.639   3.134 -0.2173 -0.0223  0.0153
10932TIP3   OH254286   0.995   5.991  13.675  0.0547  0.1903 -0.1096
10932TIP3    H154287   1.039   5.997  13.591 -0.1205  2.2969 -0.0767
10932TIP3    H254288   0.998   6.080  13.711  0.5379 -0.7527  2.3159
10933TIP3   OH254289   4.403   4.382   0.827 -0.6495 -0.5041  0.0162
10933TIP3    H154290   4.455   4.455   0.861 -0.6888  0.1382 -1.2634
10933TIP3    H254291   4.461   4.307   0.833 -0.2603 -0.1800  0.4149
10934TIP3   OH254292   6.814   6.702   4.271  0.0706 -0.3815  0.5711
10934TIP3    H154293   6.863   6.620   4.284 -0.6582 -0.5778  2.1425
10934TIP3    H254294   6.738   6.694   4.328  0.4970  1.8144  1.4888
10935TIP3   OH254295   3.793   6.700   4.966  0.2664 -0.6069  0.4962
10935TIP3    H154296   3.872   6.686   4.914 -1.2700 -2.4576 -1.4044
10935TIP3    H254297   3.810   6.653   5.048  0.9828 -1.3161 -0.0541
10936TIP3   OH254298   3.504   5.669   0.300  0.3756  0.2242 -0.0962
10936TIP3    H154299   3.594   5.647   0.327  0.1466 -0.7341 -0.0741
10936TIP3    H254300   3.511   5.684   0.205  0.7640  1.3122  0.0955
10937TIP3   OH254301   6.345   6.259  10.587  0.4284 -0.5391 -0.3808
10937TIP3    H154302   6.272   6.234  10.530  1.1886 -1.2844 -1.0455
10937TIP3    H254303   6.307   6.262  10.675 -1.1901  2.3072 -1.0740
10938TIP3   OH254304   1.386   1.358  12.611  0.3281  0.1430  0.5901
10938TIP3    H154305   1.422   1.298  12.676  0.7905 -0.3440 -0.1107
10938TIP3    H254306   1.336   1.302  12.551 -0.2046  0.6037  0.5985
10939TIP3   OH254307   6.509   6.798   0.955  0.1566 -0.7181 -0.3032
10939TIP3    H154308   6.464   6.779   0.872 -0.7879  2.5919 -0.6209
10939TIP3    H254309   6.570   6.868   0.933  3.0851 -2.8097  0.9130
10940TIP3   OH254310   4.788   4.358   3.569  0.4950  0.1216  0.2380
10940TIP3    H154311   4.801   4.309   3.488 -2.2282 -1.7448  0.8637
10940TIP3    H254312   4.843   4.313   3.633  1.1246  0.3644 -0.1386
10941TIP3   OH254313   6.600   1.229  11.169 -0.1054  0.6188 -0.3408
10941TIP3    H154314   6.684   1.233  11.123  0.6069 -3.6165  0.4369
10941TIP3    H254315   6.538   1.197  11.103 -0.8036  2.2175 -0.4801
10942TIP3   OH254316   2.211   2.507   5.729 -0.1666  0.9632 -0.0457
10942TIP3    H154317   2.224   2.439   5.664 -3.2922 -0.3152  0.5707
10942TIP3    H254318   2.174   2.580   5.679 -1.1390  0.5311  0.0342
10943TIP3   OH254319   4.403   2.601   5.602 -0.4121 -0.0211 -0.0629
10943TIP3    H154320   4.351   2.522   5.615 -0.7795  0.2255 -0.0359
10943TIP3    H254321   4.479   2.571   5.552 -0.7407 -0.3221 -0.3874
10944TIP3   OH254322   2.340   4.689  12.663  0.4345  0.1222  0.1192
10944TIP3    H154323   2.246   4.670  12.655  0.3836  1.2695 -2.2581
10944TIP3    H254324   2.383   4.616  12.618  0.5777  1.0063 -1.1786
10945TIP3   OH254325   5.970   1.354   2.143  0.6059 -0.5430 -0.2814
10945TIP3    H154326   6.051   1.305   2.149  1.3827  0.5888 -1.3789
10945TIP3    H254327   5.963   1.400   2.227  0.8877 -0.9535 -0.0338
10946TIP3   OH254328   6.201   1.737  13.124 -0.2923  0.2935  0.6666
10946TIP3    H154329   6.140   1.794  13.078  0.7815 -0.4022 -1.7207
10946TIP3    H254330   6.167   1.649  13.109 -0.0364  0.0786  1.3638
10947TIP3   OH254331   4.885   4.249  14.841 -0.1742 -0.0734  0.2984
10947TIP3    H154332   4.975   4.261  14.871 -0.3815 -0.5061  1.0952
10947TIP3    H254333   4.894   4.221  14.750  0.5030 -0.1263  0.3803
10948TIP3   OH254334   2.921   0.574   2.387  0.6135 -0.1398  0.4266
10948TIP3    H154335   2.895   0.640   2.450 -0.9735 -1.6124  1.3814
10948TIP3    H254336   2.975   0.512   2.436  2.0683  0.4027 -0.4499
10949TIP3   OH254337   4.712   6.614   6.498  0.0467  0.0778  0.5304
10949TIP3    H154338   4.670   6.687   6.543  1.7962 -0.3630  2.9816
10949TIP3    H254339   4.656   6.539   6.516 -0.8140  0.4526 -0.5210
10950TIP3   OH254340   2.645   3.885   0.977  0.4624 -0.0616 -0.1444
10950TIP3    H154341   2.671   3.953   0.915 -0.5578  0.1005 -0.4096
10950TIP3    H254342   2.719   3.876   1.036  2.3246 -1.6982 -2.6258
10951TIP3   OH254343   0.868   0.635  16.498 -0.3603 -0.1789 -0.1294
10951TIP3    H154344   0.774   0.628  16.516 -0.4141 -0.4848 -0.5240
10951TIP3    H254345   0.880   0.724  16.465 -0.4573 -0.0238  0.2584
10952TIP3   OH254346   3.869   5.735  11.696  0.2729  0.0497  0.6175
10952TIP3    H154347   3.839   5.714  11.608  0.3567 -1.0129  0.8292
10952TIP3    H254348   3.898   5.651  11.732  2.8761  0.8930  0.6494
10953TIP3   OH254349   1.580   4.979  10.493  0.1619  0.4371  0.3413
10953TIP3    H154350   1.597   5.020  10.578  0.4906 -2.2078  1.5965
10953TIP3    H254351   1.592   5.050  10.429  1.4474  2.0875  2.3628
10954TIP3   OH254352   0.090   6.203  15.531  0.6307 -0.1489  0.1907
10954TIP3    H154353   0.170   6.198  15.583  1.5809  1.4580 -1.0586
10954TIP3    H254354   0.069   6.296  15.528 -1.8354 -0.6330  1.2841
10955TIP3   OH254355   5.953   5.883   6.457 -0.0055  0.2355  0.0540
10955TIP3    H154356   5.944   5.940   6.533 -0.9720  0.4456 -0.2150
10955TIP3    H254357   5.885   5.913   6.396  0.7322  0.0430 -0.8746
10956TIP3   OH254358   1.795   0.249  16.319  0.6058  0.0012 -0.1075
10956TIP3    H154359   1.772   0.156  16.314  0.9773 -0.0727 -0.5470
10956TIP3    H254360   1.726   0.288  16.372  0.7707 -0.6274  0.5722
10957TIP3   OH254361   5.612   6.453   4.476 -0.0627 -0.3192  0.3335
10957TIP3    H154362   5.629   6.531   4.423 -2.2458  0.5293  0.8150
10957TIP3    H254363   5.548   6.403   4.425 -1.7876  0.2504  1.8865
10958TIP3   OH254364   4.996   4.896  14.851 -0.3101  0.2640  0.2595
10958TIP3    H154365   4.968   4.854  14.932  0.1537 -0.5320  0.0064
10958TIP3    H254366   5.024   4.983  14.878 -2.0584  0.7305  0.6643
10959TIP3   OH254367   0.321   0.172   0.540  0.0023  0.4086 -0.4898
10959TIP3    H154368   0.400   0.175   0.593  0.1973 -1.9488 -0.6030
10959TIP3    H254369   0.252   0.146   0.602 -0.3065  0.4901 -0.7990
10960TIP3   OH254370   2.230   0.119   0.994  0.7485  0.2365 -0.8893
10960TIP3    H154371   2.152   0.071   0.967  2.1225 -0.0130 -4.7425
10960TIP3    H254372   2.220   0.205   0.955  2.6930 -0.0321 -2.0645
10961TIP3   OH254373   3.472   5.215   0.782  0.5435 -0.4134 -0.0868
10961TIP3    H154374   3.464   5.147   0.850  0.6928 -1.9201 -1.5408
10961TIP3    H254375   3.406   5.191   0.717 -0.2017  1.5212 -0.0759
10962TIP3   OH254376   2.866   5.872   3.255 -0.0904  0.3513  0.3521
10962TIP3    H154377   2.835   5.817   3.183 -0.8032  1.3051 -0.0981
10962TIP3    H254378   2.961   5.864   3.253 -0.2190 -1.1870  0.5671
10963TIP3   OH254379   3.937   2.022   0.550 -0.3194  0.0334 -0.0878
10963TIP3    H154380   3.888   2.012   0.632 -1.5266  0.3491 -0.7542
10963TIP3    H254381   3.869   2.023   0.483  0.6996 -0.7914 -1.1386
10964TIP3   OH254382   2.449   1.991  13.526  0.0941 -0.1334 -0.6577
10964TIP3    H154383   2.505   2.004  13.449  0.8530  1.1482  0.0856
10964TIP3    H254384   2.406   2.076  13.539 -0.4991 -0.5232 -0.0436
10965TIP3   OH254385   2.913   1.161  11.538 -0.3177 -0.2439  0.5195
10965TIP3    H154386   2.909   1.251  11.506  2.4543  0.4629  1.9745
10965TIP3    H254387   2.877   1.109  11.467 -1.9837  2.0060 -0.3427
10966TIP3   OH254388   2.200   0.595   0.041  0.1105 -0.1341  0.8114
10966TIP3    H154389   2.271   0.643  -0.002 -0.1844  0.9814  1.5719
10966TIP3    H254390   2.245   0.538   0.104  0.3468  0.4090  1.1350
10967TIP3   OH254391   1.129   1.238  12.927 -1.0014  0.1616 -0.0022
10967TIP3    H154392   1.207   1.272  12.971 -0.8381 -0.8411  0.4936
10967TIP3    H254393   1.076   1.200  12.997 -1.6853  0.3459 -0.4088
10968TIP3   OH254394   3.390   6.306  11.633 -0.0908 -0.1059 -0.1382
10968TIP3    H154395   3.342   6.366  11.689 -1.2915 -1.7019  0.6024
10968TIP3    H254396   3.441   6.362  11.576  1.5957  1.5857  2.8988
10969TIP3   OH254397   5.293   2.233   5.613  0.5786  0.6770  0.5758
10969TIP3    H154398   5.277   2.210   5.705  0.2656 -2.6838 -0.2537
10969TIP3    H254399   5.359   2.303   5.618  0.0023  1.1074  3.3573
10970TIP3   OH254400   3.604   4.355   4.641  0.3586 -0.4162  0.1223
10970TIP3    H154401   3.523   4.406   4.650  0.0961 -0.6562 -0.8837
10970TIP3    H254402   3.654   4.375   4.721 -0.9612 -0.7520  1.0437
10971TIP3   OH254403   6.181   1.833  11.490 -0.1649  0.0922  0.5595
10971TIP3    H154404   6.195   1.838  11.584 -1.2661 -3.0909  0.9566
10971TIP3    H254405   6.251   1.885  11.452  0.5822  0.9982  3.1185
10972TIP3   OH254406   2.507   6.812   6.776  0.6556  0.3659 -0.0184
10972TIP3    H154407   2.470   6.776   6.695 -0.1643  1.8080 -0.2971
10972TIP3    H254408   2.465   6.761   6.846 -2.3557  2.3269 -0.2908
10973TIP3   OH254409   1.975   0.431  15.200  0.3904 -0.3843  0.2683
10973TIP3    H154410   2.036   0.449  15.128  0.4435 -1.1117  0.1169
10973TIP3    H254411   1.910   0.372  15.161  0.5088 -0.9046  0.8550
10974TIP3   OH254412   4.251   5.504  10.518  0.0958 -0.2988  0.0653
10974TIP3    H154413   4.262   5.417  10.557 -0.2743 -0.7251 -0.7707
10974TIP3    H254414   4.157   5.511  10.502 -0.0125  0.6723  1.0735
10975TIP3   OH254415   2.671   1.851   0.145 -0.1266  0.3743 -0.3342
10975TIP3    H154416   2.685   1.803   0.063 -0.7957 -1.7002  0.7333
10975TIP3    H254417   2.644   1.784   0.207 -0.1213  2.0156  1.4660
10976TIP3   OH254418   2.045   6.251  16.338  0.6041  0.0619 -0.0245
10976TIP3    H154419   2.056   6.157  16.320 -0.2526  0.3438 -2.2648
10976TIP3    H254420   1.964   6.256  16.389  0.3065 -0.3797 -0.4447
10977TIP3   OH254421   0.225   2.501  11.424 -0.0174 -0.2104  0.2600
10977TIP3    H154422   0.145   2.459  11.392  0.0327 -0.2172  0.1404
10977TIP3    H254423   0.294   2.437  11.407  0.0621 -0.0717  0.0556
10978TIP3   OH254424   3.994   1.651   0.198  0.5211  0.0602  0.2221
10978TIP3    H154425   4.059   1.616   0.137  0.1359  1.7228 -1.1815
10978TIP3    H254426   3.972   1.738   0.163 -1.2915  0.1673  1.5388
10979TIP3   OH254427   5.874   4.642   4.192  0.3837 -0.2872  0.3011
10979TIP3    H154428   5.927   4.617   4.268  0.7149 -0.2810  0.0731
10979TIP3    H254429   5.820   4.714   4.224  1.1960  0.3450  0.2683
10980TIP3   OH254430   3.413   4.112   2.593  0.2853 -0.6404  0.0338
10980TIP3    H154431   3.426   4.190   2.647  0.6392 -0.6165 -0.0818
10980TIP3    H254432   3.500   4.074   2.585  0.7512  0.8133 -2.7336
10981TIP3   OH254433   3.090   4.921   5.983 -0.0469 -0.0650 -0.7308
10981TIP3    H154434   3.171   4.926   5.933  0.6016 -0.8712  0.2123
10981TIP3    H254435   3.094   4.836   6.027 -0.9410  0.3128  0.1140
10982TIP3   OH254436   2.568   5.717  12.510 -0.2586  0.7659 -0.2214
10982TIP3    H154437   2.603   5.647  12.455  0.5073 -0.5074  1.8312
10982TIP3    H254438   2.546   5.787  12.449  2.2649  0.1028 -1.9766
10983TIP3   OH254439   5.832   4.426  10.837 -0.2036  0.1044  0.0388
10983TIP3    H154440   5.878   4.475  10.768 -0.5074 -0.8181 -0.8341
10983TIP3    H254441   5.792   4.353  10.791 -1.9433  0.4854  0.9228
10984TIP3   OH254442   3.461   6.009   6.605  0.3505 -0.5618 -0.4005
10984TIP3    H154443   3.437   5.917   6.618  0.4541 -0.7543 -1.4905
10984TIP3    H254444   3.423   6.032   6.520 -0.2501  0.6068  0.1816
10985TIP3   OH254445   2.052   2.400   5.916  0.0215 -0.5742 -0.4504
10985TIP3    H154446   2.090   2.448   5.990 -1.8343  0.2787 -0.0331
10985TIP3    H254447   2.101   2.432   5.840 -1.0414  1.8720 -0.1517
10986TIP3   OH254448   4.024   6.686   4.803  0.4641 -0.2070  0.1052
10986TIP3    H154449   3.989   6.742   4.734  0.2899 -2.1009 -1.3882
10986TIP3    H254450   4.119   6.693   4.794  0.4455 -0.0829 -0.0009
10987TIP3   OH254451   3.086   0.994  15.541 -0.5616  0.2487 -0.2705
10987TIP3    H154452   3.039   0.920  15.580 -2.2819  1.8650  0.7782
10987TIP3    H254453   3.145   1.023  15.610 -1.2981  1.0773  0.0191
10988TIP3   OH254454   4.456   0.468  16.093  0.1092 -0.0159 -0.3149
10988TIP3    H154455   4.484   0.537  16.033  0.5592  0.5851  0.5942
10988TIP3    H254456   4.535   0.415  16.107  0.4206  0.7877  1.0297
10989TIP3   OH254457   1.721   0.397   3.447 -0.2588 -0.3477 -0.2963
10989TIP3    H154458   1.773   0.354   3.380 -0.7936  0.1318 -1.0269
10989TIP3    H254459   1.632   0.397   3.412 -0.5526 -0.1565  0.4399
10990TIP3   OH254460   1.094   0.982   5.474 -0.2905 -0.5828 -0.2595
10990TIP3    H154461   1.174   0.962   5.425 -1.1201 -1.6440 -1.1911
10990TIP3    H254462   1.094   1.078   5.480 -0.4665 -0.3754 -2.8629
10991TIP3   OH254463   6.788   0.095   4.965  0.0471  0.5585  0.4195
10991TIP3    H154464   6.823   0.183   4.979  0.9104 -0.0998  2.6969
10991TIP3    H254465   6.700   0.098   5.003 -0.9938  1.1915 -1.9987
10992TIP3   OH254466   2.437   4.538  12.302 -0.8699  0.2829  0.6614
10992TIP3    H154467   2.421   4.629  12.330 -1.3349 -0.0708  1.5630
10992TIP3    H254468   2.359   4.514  12.252 -0.2535  0.7497 -0.5575
10993TIP3   OH254469   1.576   3.358   1.776  0.1188  0.4502  0.0847
10993TIP3    H154470   1.625   3.383   1.697 -0.7347 -2.1289 -1.3310
10993TIP3    H254471   1.496   3.411   1.771 -0.1064  0.0204 -0.9916
10994TIP3   OH254472   4.437   2.079  13.469 -0.1087  0.2163  0.4747
10994TIP3    H154473   4.499   2.059  13.399 -0.7933 -0.6844  0.1325
10994TIP3    H254474   4.481   2.148  13.520  0.3932  0.8782 -0.8206
10995TIP3   OH254475   5.492   2.556   4.056 -0.2575  0.1111 -0.2390
10995TIP3    H154476   5.516   2.471   4.093 -0.4479  0.3610  0.4683
10995TIP3    H254477   5.403   2.571   4.088 -1.0896 -0.4479 -2.1986
10996TIP3   OH254478   6.121   6.430  13.181 -0.3175  0.2001 -0.2463
10996TIP3    H154479   6.205   6.388  13.165  0.1660  1.3905 -0.8847
10996TIP3    H254480   6.128   6.465  13.270 -1.0116 -1.7170  0.5876
10997TIP3   OH254481   2.398   5.395   5.744 -0.3533 -0.0362 -0.3953
10997TIP3    H154482   2.353   5.341   5.679  0.0634  1.6308 -2.1012
10997TIP3    H254483   2.448   5.459   5.692  0.1739  1.1769  1.5550
10998TIP3   OH254484   6.466   3.924   3.488 -0.2891 -0.2284 -0.1051
10998TIP3    H154485   6.392   3.943   3.430 -0.0805 -2.2719 -1.0993
10998TIP3    H254486   6.442   3.963   3.572 -1.2754  1.4691 -1.1512
10999TIP3   OH254487   6.653   1.266  14.398 -0.3358  0.5351  0.2274
10999TIP3    H154488   6.588   1.331  14.372  0.7565  1.0584 -1.2132
10999TIP3    H254489   6.737   1.312  14.394  0.5516 -1.1422 -1.5544
11000TIP3   OH254490   6.692   1.542   3.631 -0.1597  0.3201 -0.3025
11000TIP3    H154491   6.601   1.535   3.659  0.4709 -0.4661  1.6876
11000TIP3    H254492   6.731   1.604   3.692  0.4314  1.3643 -1.7229
11001TIP3   OH254493   1.645   2.600   0.254 -0.0902 -0.7901 -0.2737
11001TIP3    H154494   1.588   2.525   0.268  0.6425 -1.1092  0.9755
11001TIP3    H254495   1.682   2.619   0.340  0.3835  0.4719 -0.7469
11002TIP3   OH254496   5.968   2.198   5.739  0.1788 -0.4193 -0.4964
11002TIP3    H154497   5.934   2.286   5.755 -1.8805 -1.2279 -0.1549
11002TIP3    H254498   5.889   2.145   5.727  1.3750 -2.3431 -0.0316
11003TIP3   OH254499   6.034   6.742  14.153  0.4042  0.0474  0.3522
11003TIP3    H154500   6.126   6.766  14.164  0.3653 -0.0676  0.9380
11003TIP3    H254501   5.993   6.762  14.237 -0.0322 -0.2421  0.2138
11004TIP3   OH254502   0.433   2.326   5.658 -0.4030  0.0156 -0.6129
11004TIP3    H154503   0.350   2.363   5.628 -0.8202 -1.5788 -1.4791
11004TIP3    H254504   0.428   2.329   5.753 -1.3418  0.1965 -0.6648
11005TIP3   OH254505   2.233   2.151   2.596  0.4137  0.0825  0.4732
11005TIP3    H154506   2.301   2.198   2.549  0.1049  1.0052  0.9444
11005TIP3    H254507   2.153   2.166   2.545  0.5191 -0.8541  0.0159
11006TIP3   OH254508   1.737   4.905   1.152  0.0707 -0.8060 -0.2236
11006TIP3    H154509   1.660   4.848   1.157 -0.0255 -0.6877 -0.3517
11006TIP3    H254510   1.758   4.910   1.059  0.5089 -1.2010 -0.1491
11007TIP3   OH254511   2.858   5.732   0.297 -0.3453  0.4452 -0.2636
11007TIP3    H154512   2.912   5.800   0.256  0.3736  0.2334  0.3153
11007TIP3    H254513   2.782   5.778   0.330  0.9460  1.2792  1.6429
11008TIP3   OH254514   3.777   2.731   0.200  0.4221  0.5652  0.3733
11008TIP3    H154515   3.799   2.736   0.107 -0.0667  0.1812  0.2343
11008TIP3    H254516   3.859   2.751   0.245  1.1438 -1.1314 -0.1244
11009TIP3   OH254517   5.509   2.959  12.596  0.4993  0.1710 -0.2521
11009TIP3    H154518   5.433   2.979  12.542  0.6869 -1.7869 -1.3068
11009TIP3    H254519   5.584   2.982  12.541  0.6895 -1.7082 -0.8176
11010TIP3   OH254520   6.727   4.149  14.690 -0.5536 -0.2529 -0.6009
11010TIP3    H154521   6.644   4.159  14.737  0.3042 -1.5065  1.2457
11010TIP3    H254522   6.743   4.055  14.691  2.0445  0.1669  1.1158
11011TIP3   OH254523   1.391   0.186  14.239  0.3674  0.0997 -0.2436
11011TIP3    H154524   1.359   0.097  14.225 -0.3504  0.4774 -1.0488
11011TIP3    H254525   1.316   0.234  14.274  1.5949 -0.3329  3.1437
11012TIP3   OH254526   6.043   4.397  12.988 -0.4604  0.5545  0.1279
11012TIP3    H154527   6.098   4.334  13.035  1.7338  2.9627  0.8695
11012TIP3    H254528   5.985   4.432  13.056  0.0589  1.1933  0.2418
11013TIP3   OH254529   1.156   2.343  17.256 -0.2181  0.9988  0.4495
11013TIP3    H154530   1.113   2.381  17.333 -0.1069  2.4422 -0.1873
11013TIP3    H254531   1.195   2.418  17.211  1.7025 -0.0939  0.2162
11014TIP3   OH254532   0.829   0.968   5.359  0.1279  0.2206  0.2977
11014TIP3    H154533   0.855   1.049   5.316  1.7285 -1.5586 -2.2102
11014TIP3    H254534   0.908   0.938   5.404 -0.8412  0.7392  2.4138
11015TIP3   OH254535   0.384   3.187   4.463 -0.3487  0.2560 -0.0933
11015TIP3    H154536   0.339   3.107   4.490  0.4842 -0.3103 -0.3604
11015TIP3    H254537   0.350   3.254   4.521 -1.0002 -0.3059  0.1875
11016TIP3   OH254538   0.804   4.295   2.107 -0.2163 -0.2535 -0.2588
11016TIP3    H154539   0.782   4.309   2.199 -0.2446  0.0414 -0.3106
11016TIP3    H254540   0.898   4.279   2.107 -0.6170 -2.9420  0.1314
11017TIP3   OH254541   5.098   1.727  16.695 -0.0342  0.0412 -0.0700
11017TIP3    H154542   5.134   1.650  16.652  0.6214  0.3250 -0.0334
11017TIP3    H254543   5.174   1.772  16.732 -0.6279 -0.3462  1.6348
11018TIP3   OH254544   0.648   2.842   6.073 -0.5013 -0.0165 -0.7370
11018TIP3    H154545   0.588   2.769   6.056 -0.2946 -0.9245  2.2190
11018TIP3    H254546   0.594   2.920   6.067 -1.7007 -0.7344  0.6028
11019TIP3   OH254547   5.442   3.271  14.228 -0.3154 -0.2123 -0.2646
11019TIP3    H154548   5.396   3.198  14.186 -2.1595  1.0672 -0.5342
11019TIP3    H254549   5.402   3.278  14.314  0.9756 -0.5377  0.3694
11020TIP3   OH254550   5.568   6.340  13.436  0.2131  0.3495  0.5095
11020TIP3    H154551   5.619   6.396  13.378  3.3390 -0.7274  2.0495
11020TIP3    H254552   5.521   6.401  13.493  1.9652  1.4419  0.8363
11021TIP3   OH254553   3.742   0.327  12.470 -0.2228 -0.2338  0.1805
11021TIP3    H154554   3.815   0.376  12.433  0.4878 -0.9662  0.5824
11021TIP3    H254555   3.712   0.271  12.398 -0.2215 -0.1170  0.0904
11022TIP3   OH254556   0.162   0.268  14.019  0.8149 -0.1305 -0.4327
11022TIP3    H154557   0.243   0.256  14.068 -0.6942 -0.5343  1.9956
11022TIP3    H254558   0.116   0.339  14.064 -0.2149  0.1114 -1.8045
11023TIP3   OH254559   1.411   3.945  14.197 -0.4972  0.1727 -0.0865
11023TIP3    H154560   1.499   3.976  14.175 -0.5630  0.1145 -0.4326
11023TIP3    H254561   1.362   3.952  14.115 -0.6804 -0.2573 -0.0124
11024TIP3   OH254562   0.571   5.360  16.811  0.0301 -0.3242  0.4436
11024TIP3    H154563   0.481   5.341  16.787 -0.4666  1.7682  0.5725
11024TIP3    H254564   0.623   5.295  16.764 -1.4691 -0.9423 -0.3657
11025TIP3   OH254565   4.191   4.623  15.307  0.0352  0.2033  0.1849
11025TIP3    H154566   4.121   4.688  15.310 -0.2957 -0.1925  1.2641
11025TIP3    H254567   4.252   4.651  15.375 -0.8497 -1.4230  1.6958
11026TIP3   OH254568   5.406   5.755   3.294  0.0996 -0.2684  0.7065
11026TIP3    H154569   5.421   5.792   3.208  1.6747 -2.6086 -0.0795
11026TIP3    H254570   5.311   5.741   3.298  0.0380 -0.2788 -0.7019
11027TIP3   OH254571   4.806   2.310   1.295  0.3849  0.4200 -0.2096
11027TIP3    H154572   4.824   2.241   1.231  1.1188  1.2589 -0.9146
11027TIP3    H254573   4.712   2.328   1.284  0.2689 -0.2103 -0.2789
11028TIP3   OH254574   2.730   5.522   3.360  0.2594  0.3312  0.2707
11028TIP3    H154575   2.825   5.515   3.360  0.2628  0.2923 -0.8366
11028TIP3    H254576   2.712   5.616   3.363  0.3340  0.3457  0.2494
11029TIP3   OH254577   1.674   3.198   2.894 -0.3637 -0.3800  0.3729
11029TIP3    H154578   1.723   3.142   2.955 -1.5520 -2.5527 -0.6020
11029TIP3    H254579   1.592   3.151   2.880 -0.8568  1.0001 -1.5147
11030TIP3   OH254580   3.764   1.639  12.449 -0.9052 -0.2600  0.0823
11030TIP3    H154581   3.806   1.704  12.393 -0.9797  0.2988  0.6672
11030TIP3    H254582   3.686   1.682  12.483 -0.5488 -0.3764  1.0865
11031TIP3   OH254583   6.324   2.656   5.370  0.9608 -0.2770  0.1891
11031TIP3    H154584   6.276   2.736   5.391  0.4991 -0.7357  0.9142
11031TIP3    H254585   6.323   2.650   5.275  1.1511  0.6727  0.1305
11032TIP3   OH254586   6.711   0.356  14.756 -0.2960  0.0451 -0.1802
11032TIP3    H154587   6.745   0.267  14.760 -1.1686 -0.4727 -3.3817
11032TIP3    H254588   6.651   0.356  14.682 -1.1351  3.0329  0.4336
11033TIP3   OH254589   3.322   1.039   5.326 -0.1323 -0.3611  0.0424
11033TIP3    H154590   3.414   1.021   5.305 -0.5250 -1.3284 -0.8832
11033TIP3    H254591   3.319   1.037   5.422  0.7651 -0.5680  0.0736
11034TIP3   OH254592   6.244   3.591  14.307  0.1290  0.1724  0.8680
11034TIP3    H154593   6.215   3.588  14.215  0.2941  0.6174  0.8023
11034TIP3    H254594   6.192   3.662  14.346 -0.4914 -0.5197  1.3103
11035TIP3   OH254595   5.791   4.252   0.229  0.3429 -0.1988 -0.7035
11035TIP3    H154596   5.727   4.265   0.299 -0.5361 -0.0641 -1.5266
11035TIP3    H254597   5.834   4.338   0.220 -0.0536 -0.0168 -0.8418
11036TIP3   OH254598   3.836   3.065   3.948  0.1263 -0.1352  0.4425
11036TIP3    H154599   3.811   2.976   3.923 -0.8445  0.1080  0.5127
11036TIP3    H254600   3.823   3.067   4.043  2.5183 -0.6576  0.8047
11037TIP3   OH254601   0.091   5.860  11.960  0.5713  0.3670  0.8177
11037TIP3    H154602   0.008   5.862  12.008  0.0831 -0.8984  0.0473
11037TIP3    H254603   0.126   5.773  11.977  0.8909  0.2753 -0.3013
11038TIP3   OH254604   0.410   1.131   1.481  0.5556  0.2889 -0.3021
11038TIP3    H154605   0.428   1.211   1.530  1.4849 -0.0460 -0.0719
11038TIP3    H254606   0.318   1.112   1.499  0.1472  1.6407 -0.8766
11039TIP3   OH254607   3.743   5.373   1.474 -0.4225 -0.8706  0.0157
11039TIP3    H154608   3.682   5.301   1.462 -0.1482 -1.0114 -0.5189
11039TIP3    H254609   3.687   5.451   1.483 -0.7261 -1.1725  0.8230
11040TIP3   OH254610   6.026   1.913  16.640 -0.4816 -0.7029  0.1155
11040TIP3    H154611   6.036   1.856  16.716  3.1339  0.2597  0.4854
11040TIP3    H254612   6.095   1.885  16.580 -0.1224  1.7386 -0.6607
11041TIP3   OH254613   1.032   5.756  12.676 -0.4465 -0.7177 -0.3624
11041TIP3    H154614   1.124   5.771  12.699 -0.5506  0.2066 -0.5175
11041TIP3    H254615   1.035   5.723  12.587 -0.3237  0.5561 -0.8494
11042TIP3   OH254616   6.540   4.872  15.654 -0.2344  0.2481  0.5450
11042TIP3    H154617   6.504   4.824  15.579 -0.1937  0.8283  0.1510
11042TIP3    H254618   6.623   4.828  15.673 -0.4552 -0.1755  0.5267
11043TIP3   OH254619   6.192   1.062  12.582 -0.1485 -0.2308 -0.2360
11043TIP3    H154620   6.224   1.057  12.492  1.9187  0.0205  0.4525
11043TIP3    H254621   6.271   1.069  12.635 -1.3776  0.8064  1.5289
11044TIP3   OH254622   0.952   6.531   5.615 -0.4837  0.4824  0.3218
11044TIP3    H154623   0.951   6.516   5.520 -0.1901 -2.0202  0.6865
11044TIP3    H254624   0.900   6.610   5.627 -2.8047 -0.6781 -1.6784
11045TIP3   OH254625   2.291   0.502   2.890 -0.5057  0.5010  0.0332
11045TIP3    H154626   2.331   0.455   2.964 -0.1421  0.5890 -0.1065
11045TIP3    H254627   2.358   0.501   2.822 -0.4929  1.2175  0.0290
11046TIP3   OH254628   1.762   3.518  12.925  0.9391  0.1199  0.2376
11046TIP3    H154629   1.734   3.486  13.011 -0.6674 -2.3657 -1.1470
11046TIP3    H254630   1.823   3.451  12.893 -1.0850 -0.7117 -1.9672
11047TIP3   OH254631   2.627   5.890   2.523 -1.0480 -0.1035 -0.5316
11047TIP3    H154632   2.624   5.883   2.619 -0.1979 -1.1301 -0.5732
11047TIP3    H254633   2.588   5.809   2.491 -0.3658 -0.2317 -1.0506
11048TIP3   OH254634   1.533   4.303  15.124  0.4328  0.2871 -0.5101
11048TIP3    H154635   1.472   4.230  15.116  0.1722  0.6011 -1.4083
11048TIP3    H254636   1.501   4.369  15.063  0.6856  1.1455  0.2667
11049TIP3   OH254637   1.048   4.337   1.506  0.4023  0.2686 -0.2315
11049TIP3    H154638   0.986   4.409   1.514  1.5235  1.2423 -0.1465
11049TIP3    H254639   0.993   4.259   1.496 -0.8373  1.5334 -4.3132
11050TIP3   OH254640   2.849   4.878  12.169  0.0848 -0.1453 -0.3074
11050TIP3    H154641   2.867   4.799  12.220  1.6304  0.3231 -0.1056
11050TIP3    H254642   2.756   4.872  12.148  0.0453 -1.7025  0.2451
11051TIP3   OH254643   2.173   2.309   5.533  0.0753 -0.2189  0.3293
11051TIP3    H154644   2.131   2.362   5.465  1.3025  0.9622  0.4738
11051TIP3    H254645   2.206   2.233   5.486  1.4106  0.8583 -0.5259
11052TIP3   OH254646   1.298   0.302  15.813  0.6605  0.2712  0.1643
11052TIP3    H154647   1.245   0.231  15.776 -0.1651  0.2608  1.3268
11052TIP3    H254648   1.388   0.276  15.795  0.3120 -0.1278 -1.0954
11053TIP3   OH254649   3.194   3.716  16.651  0.1834  0.4043  0.3345
11053TIP3    H154650   3.247   3.796  16.649 -0.6674  0.9719  0.4676
11053TIP3    H254651   3.254   3.647  16.621  0.9242  1.0852  0.2387
11054TIP3   OH254652   4.449   0.001  15.695 -0.4122 -0.3688 -0.3525
11054TIP3    H154653   4.538  -0.033  15.680  0.2986  0.8612  0.8540
11054TIP3    H254654   4.410  -0.062  15.756  1.2737  1.4025  2.7271
11055TIP3   OH254655   4.232   3.054   0.272 -0.5157 -0.3388  0.2484
11055TIP3    H154656   4.179   3.123   0.234 -3.4616 -1.0713  2.8752
11055TIP3    H254657   4.202   2.974   0.229  0.7896 -0.3845 -0.6144
11056TIP3   OH254658   3.467   2.365   0.848  0.3255 -0.5161 -0.7868
11056TIP3    H154659   3.518   2.292   0.883 -0.0315 -0.3506  0.0876
11056TIP3    H254660   3.517   2.395   0.772  2.1352  0.3376  0.6874
11057TIP3   OH254661   5.422   2.823   0.324  0.8953  0.3729 -1.0008
11057TIP3    H154662   5.365   2.823   0.247 -0.4261  1.5670 -0.0477
11057TIP3    H254663   5.402   2.905   0.369  1.0906 -0.6582  1.0300
11058TIP3   OH254664   5.824   4.279  13.989 -0.2398 -0.4155 -0.1108
11058TIP3    H154665   5.854   4.370  13.990  0.6904 -0.7046 -1.2286
11058TIP3    H254666   5.755   4.276  14.055  1.2176  0.5942  1.4991
11059TIP3   OH254667   6.227   1.694   1.728  0.0582  0.5950  0.2028
11059TIP3    H154668   6.282   1.640   1.784 -2.0343 -2.1783 -0.3301
11059TIP3    H254669   6.278   1.707   1.648 -0.0200 -2.0283 -0.3228
11060TIP3   OH254670   6.309   0.745  12.044 -0.6875  0.3058 -0.0038
11060TIP3    H154671   6.295   0.688  11.968  0.7335 -1.0919  0.7549
11060TIP3    H254672   6.271   0.697  12.117  3.4416 -1.3214  1.2420
11061TIP3   OH254673   0.715   1.764   3.373 -0.4134  0.3335  0.3601
11061TIP3    H154674   0.777   1.802   3.435 -0.8134 -0.9928  1.6047
11061TIP3    H254675   0.769   1.713   3.313 -0.3186 -1.5236  1.9551
11062TIP3   OH254676   2.959   0.452  16.679 -0.2582 -0.3947 -0.5431
11062TIP3    H154677   2.874   0.420  16.708 -0.6667 -0.0746 -1.3523
11062TIP3    H254678   2.939   0.509  16.605  0.4900  1.4827  0.6812
11063TIP3   OH254679   3.140   2.345   5.288  0.4530  0.9057  0.5668
11063TIP3    H154680   3.081   2.419   5.300 -1.7399 -0.8695  0.9704
11063TIP3    H254681   3.114   2.307   5.205  2.0111  0.9512  0.0415
11064TIP3   OH254682   1.163   4.027  12.075  0.0899 -0.0319 -0.1707
11064TIP3    H154683   1.196   4.008  11.987 -0.6533  0.2509 -0.5144
11064TIP3    H254684   1.169   4.122  12.083  0.7991 -0.1226  0.3396
11065TIP3   OH254685   4.514   0.250   5.447  0.1478 -0.1359 -0.4372
11065TIP3    H154686   4.479   0.325   5.399  2.6009  0.1165 -1.9297
11065TIP3    H254687   4.511   0.277   5.538 -0.6405  1.0787 -0.8044
11066TIP3   OH254688   6.414   3.746   3.258  0.0882 -0.9234  0.1559
11066TIP3    H154689   6.339   3.804   3.271  1.5356  0.8843  0.5973
11066TIP3    H254690   6.379   3.672   3.208 -2.4498 -1.1648  2.1853
11067TIP3   OH254691   5.799   4.661   1.774 -0.5436 -0.2972 -0.8221
11067TIP3    H154692   5.783   4.598   1.844 -1.6021  1.0555  0.1779
11067TIP3    H254693   5.724   4.651   1.715 -1.7782  1.4498  0.4215
11068TIP3   OH254694   2.030   2.329   3.964  0.3523  0.2211 -0.0927
11068TIP3    H154695   1.964   2.311   3.897  0.5431 -0.0370 -0.2102
11068TIP3    H254696   2.103   2.271   3.943  0.3794  0.0754  0.3900
11069TIP3   OH254697   6.338   2.673  11.104 -0.2179 -0.2634  0.2074
11069TIP3    H154698   6.412   2.628  11.062  0.1286  0.5378 -0.0442
11069TIP3    H254699   6.330   2.756  11.057 -1.4159 -0.4330  0.0909
11070TIP3   OH254700   1.495   5.269   3.872 -0.4096  0.4322 -0.6639
11070TIP3    H154701   1.556   5.271   3.945 -0.2077  1.1032 -0.8464
11070TIP3    H254702   1.541   5.315   3.801 -0.2155 -1.0152 -1.5100
11071TIP3   OH254703   5.481   0.882   3.806 -0.2502 -0.0838  0.1246
11071TIP3    H154704   5.448   0.932   3.732 -1.7401 -0.6842  0.3658
11071TIP3    H254705   5.481   0.791   3.775  1.2044 -0.1073  0.1298
11072TIP3   OH254706   1.237   1.331  12.173 -0.0850 -0.1490 -0.4766
11072TIP3    H154707   1.161   1.386  12.188 -1.1670 -1.3556 -1.4180
11072TIP3    H254708   1.280   1.371  12.097 -0.0505  0.2453 -0.2519
11073TIP3   OH254709   5.372   4.538   0.867 -0.3470 -1.0496 -0.4312
11073TIP3    H154710   5.362   4.582   0.951  1.9629  3.1667 -2.1906
11073TIP3    H254711   5.286   4.545   0.826 -0.3621  0.6481 -0.1207
11074TIP3   OH254712   3.120   1.165   5.990  0.0340 -0.1768 -0.1753
11074TIP3    H154713   3.096   1.078   6.022  1.5584 -1.8266 -3.3198
11074TIP3    H254714   3.041   1.198   5.948 -0.3273 -0.3499  0.3643
11075TIP3   OH254715   0.700   1.662  12.862 -0.0142  0.1928 -0.4952
11075TIP3    H154716   0.672   1.750  12.836 -1.0947 -0.5900 -2.0806
11075TIP3    H254717   0.785   1.651  12.820 -0.1679  0.2381 -0.8190
11076TIP3   OH254718   3.801   1.770   2.509  0.8741  0.2520 -0.1376
11076TIP3    H154719   3.782   1.765   2.416 -0.5118  1.6628  0.0379
11076TIP3    H254720   3.867   1.840   2.516 -0.9800  1.9982  0.1800
11077TIP3   OH254721   5.657   5.532   5.560  0.0087  0.2872  0.2566
11077TIP3    H154722   5.613   5.529   5.645 -0.1006  0.5959  0.2119
11077TIP3    H254723   5.696   5.619   5.557  1.6732 -0.4235  0.8323
11078TIP3   OH254724   5.971   4.499  13.924 -0.2865 -0.5761 -0.2113
11078TIP3    H154725   6.003   4.581  13.886 -1.5302  0.6724  1.3875
11078TIP3    H254726   6.008   4.498  14.013 -0.6043 -1.5482 -0.0864
11079TIP3   OH254727   3.250   2.193   6.650  0.3141  0.3304 -0.2861
11079TIP3    H154728   3.309   2.150   6.588  2.5104  2.5084  0.2266
11079TIP3    H254729   3.233   2.127   6.718  0.5006 -0.9779 -1.4916
11080TIP3   OH254730   5.034   6.705   0.205  0.7459 -0.6558  0.7301
11080TIP3    H154731   5.112   6.680   0.155  0.0369  1.0514 -1.3177
11080TIP3    H254732   4.965   6.709   0.139 -0.5782  0.0680  2.1566
11081TIP3   OH254733   3.982   3.479  17.075 -0.7350  0.1806  0.0310
11081TIP3    H154734   4.058   3.537  17.063 -0.5959  0.0128  0.1015
11081TIP3    H254735   3.918   3.533  17.121 -0.8835  0.5089 -0.5595
11082TIP3   OH254736   2.071   6.347  13.869 -0.1676 -0.6758 -0.0200
11082TIP3    H154737   2.015   6.279  13.907 -2.6592  1.7329  0.8005
11082TIP3    H254738   2.033   6.364  13.783  1.2593 -1.2313 -0.7738
11083TIP3   OH254739   6.470   6.086   3.371 -0.0113 -0.3199  0.0293
11083TIP3    H154740   6.495   6.178   3.365  0.4372 -0.5230 -1.4404
11083TIP3    H254741   6.540   6.045   3.422  0.8367 -0.2257 -1.0590
11084TIP3   OH254742   6.375   2.770  14.936 -0.1715 -0.0290 -0.0253
11084TIP3    H154743   6.376   2.676  14.916  0.1039  0.2391 -1.2594
11084TIP3    H254744   6.452   2.783  14.991  1.4917  0.0234 -2.3399
11085TIP3   OH254745   5.906   1.577   4.369  0.2512 -0.4604  0.6268
11085TIP3    H154746   5.886   1.488   4.340 -0.1742 -0.2580  0.3031
11085TIP3    H254747   5.858   1.587   4.452  1.8923 -1.2248  1.7060
11086TIP3   OH254748   1.044   2.879  14.696  0.1523 -0.1768 -0.1814
11086TIP3    H154749   1.089   2.812  14.748  0.9669  2.4818  2.7219
11086TIP3    H254750   0.954   2.877  14.729  0.0010 -0.3368 -0.6081
11087TIP3   OH254751   1.692   5.144   6.639  0.2074 -0.2663  0.3871
11087TIP3    H154752   1.693   5.149   6.544  0.5918 -0.8477  0.3541
11087TIP3    H254753   1.600   5.129   6.662  0.1296 -0.2164  0.0993
11088TIP3   OH254754   6.006   6.295  14.472 -0.1619 -0.0127  0.2443
11088TIP3    H154755   6.040   6.372  14.425 -1.4636  0.4634  0.0618
11088TIP3    H254756   5.965   6.242  14.404 -3.0627  1.2272  0.9441
11089TIP3   OH254757   5.070   1.126  10.854 -0.0982 -0.0091  0.6122
11089TIP3    H154758   5.111   1.190  10.796  0.0853 -2.3329 -1.9150
11089TIP3    H254759   4.976   1.137  10.838 -0.2331  1.5018  2.2739
11090TIP3   OH254760   4.455   2.036  17.106  0.0484  0.6573 -0.1901
11090TIP3    H154761   4.475   2.125  17.075  0.4558  0.6618  0.0696
11090TIP3    H254762   4.400   1.998  17.038  0.8968  0.6851 -0.8960
11091TIP3   OH254763   5.473   4.049   5.964  0.5465 -0.5510  0.3477
11091TIP3    H154764   5.501   4.085   5.880  0.3814 -1.8660 -0.2935
11091TIP3    H254765   5.382   4.025   5.951 -0.2532  1.5581  1.7066
11092TIP3   OH254766   4.196   1.708   2.878  0.2678  0.1763 -0.0023
11092TIP3    H154767   4.254   1.747   2.812 -0.8940 -0.8370 -1.6551
11092TIP3    H254768   4.221   1.751   2.959  3.0260  0.1177 -0.7529
11093TIP3   OH254769   5.334   6.497  10.247 -0.4355 -0.1765  0.1707
11093TIP3    H154770   5.377   6.581  10.231 -0.2152  0.3666  3.2334
11093TIP3    H254771   5.326   6.492  10.343  0.8858 -4.2757  0.1715
11094TIP3   OH254772   1.594   0.821  15.408 -0.0823 -0.6928  0.6819
11094TIP3    H154773   1.659   0.751  15.399 -1.3352 -1.7820  0.0251
11094TIP3    H254774   1.533   0.807  15.335 -0.7610  0.6447  0.9732
11095TIP3   OH254775   3.548   3.608  14.450  0.2049 -0.2262 -0.2020
11095TIP3    H154776   3.477   3.603  14.514 -0.5669 -0.4053 -1.0520
11095TIP3    H254777   3.504   3.629  14.368  1.1706 -0.1078 -0.6926
11096TIP3   OH254778   5.235   0.521  10.739  0.5310 -0.5576  0.8537
11096TIP3    H154779   5.148   0.481  10.735  0.9719 -1.3703 -1.0295
11096TIP3    H254780   5.244   0.550  10.830 -2.2591  0.7861  0.7495
11097TIP3   OH254781   4.352   1.306   2.219 -0.1394 -0.3310  0.3166
11097TIP3    H154782   4.431   1.321   2.167 -0.9745  1.6515 -0.4331
11097TIP3    H254783   4.379   1.244   2.287  2.6451  2.0161  1.4366
11098TIP3   OH254784   5.611   3.253   3.153 -0.2327 -0.0179  0.3728
11098TIP3    H154785   5.704   3.246   3.174 -0.4789 -0.3969  1.3858
11098TIP3    H254786   5.572   3.299   3.228 -0.2000  4.0135 -1.9554
11099TIP3   OH254787   1.842   5.285  11.672 -0.0390  0.0615  0.0285
11099TIP3    H154788   1.835   5.296  11.577  3.0342 -0.1803 -0.2864
11099TIP3    H254789   1.916   5.341  11.697  2.2102 -3.4537  1.5594
11100TIP3   OH254790   2.921   1.519  12.754 -0.0889 -0.4554  0.5237
11100TIP3    H154791   2.996   1.567  12.719  0.0781 -0.7162  0.5184
11100TIP3    H254792   2.898   1.457  12.685  0.1421 -0.8650  0.8177
11101TIP3   OH254793   2.906   1.761   4.782  0.0081  0.1681  0.0360
11101TIP3    H154794   2.936   1.674   4.809 -0.6881 -0.2968 -0.6518
11101TIP3    H254795   2.975   1.820   4.810  0.3025 -0.5643  0.8703
11102TIP3   OH254796   3.158   3.569   3.461 -0.2260  0.1315  0.0268
11102TIP3    H154797   3.170   3.481   3.426 -0.5662  0.0158  0.2000
11102TIP3    H254798   3.066   3.572   3.488  0.2195 -0.0448  1.6113
11103TIP3   OH254799   1.644   5.112  16.631  0.4832  0.0977 -0.3234
11103TIP3    H154800   1.665   5.183  16.690 -1.8778  0.7058 -0.1542
11103TIP3    H254801   1.553   5.089  16.652  0.8182 -2.1638 -1.1787
11104TIP3   OH254802   0.838   0.539   0.869  0.0290  0.3297 -0.3884
11104TIP3    H154803   0.782   0.550   0.946  1.4267  2.6774  0.3601
11104TIP3    H254804   0.779   0.548   0.794 -1.7030 -3.9631  0.3313
11105TIP3   OH254805   6.117   4.962   3.654 -1.0582  0.1348  0.3111
11105TIP3    H154806   6.156   5.019   3.720 -0.5697  0.2973 -0.1154
11105TIP3    H254807   6.049   5.016   3.612  0.1715  0.7929 -0.8714
11106TIP3   OH254808   2.334   0.475   1.952  0.1784 -0.5570 -0.4579
11106TIP3    H154809   2.341   0.494   1.859 -1.5689 -2.3865 -1.0170
11106TIP3    H254810   2.421   0.445   1.978  1.3734  2.3906 -0.8665
11107TIP3   OH254811   1.008   4.255   6.231 -0.0954  0.2640 -0.1573
11107TIP3    H154812   1.022   4.160   6.236  0.2740  0.2365 -1.4406
11107TIP3    H254813   0.917   4.265   6.204 -0.3506  0.2937  0.7034
11108TIP3   OH254814   3.333   1.094   3.414  0.0392  0.1132 -0.1951
11108TIP3    H154815   3.312   1.025   3.350 -1.3039  0.5660 -0.2641
11108TIP3    H254816   3.411   1.136   3.379 -0.7721  0.4615 -1.6454
11109TIP3   OH254817   1.459   6.517  12.768 -0.2299  0.0977  0.6242
11109TIP3    H154818   1.415   6.519  12.683 -1.8107 -0.1759  1.4117
11109TIP3    H254819   1.392   6.486  12.828  1.5144 -1.8520  1.6109
11110TIP3   OH254820   5.337   0.687   0.007  0.5448 -0.0051 -0.0982
11110TIP3    H154821   5.253   0.675   0.052  0.2946 -0.5497 -0.7032
11110TIP3    H254822   5.315   0.739  -0.071  0.5387 -1.2550 -0.9557
11111TIP3   OH254823   2.697   6.082   3.449 -0.4538 -0.3816 -0.0621
11111TIP3    H154824   2.691   6.176   3.467  1.0211 -0.4134  0.7030
11111TIP3    H254825   2.685   6.075   3.354  1.6240  0.8227 -0.4415
11112TIP3   OH254826   3.904   0.618  13.197 -0.4864 -0.1841 -0.1696
11112TIP3    H154827   3.889   0.673  13.275  1.0704 -0.0401  0.0445
11112TIP3    H254828   3.932   0.680  13.129 -1.4313 -0.3655 -0.7317
11113TIP3   OH254829   0.569   2.137  16.865  0.0160 -0.1927  0.8762
11113TIP3    H154830   0.549   2.057  16.914 -0.2675 -0.5755  0.1454
11113TIP3    H254831   0.639   2.111  16.804  0.1098  0.1861  0.8198
11114TIP3   OH254832   4.222   0.950  16.117 -0.1043  0.0129  0.4272
11114TIP3    H154833   4.258   0.863  16.134 -2.0145 -0.9764 -0.4503
11114TIP3    H254834   4.249   0.971  16.028  0.2302  0.2591  0.5831
11115TIP3   OH254835   2.303   1.036  14.788 -0.0340  0.5805  0.0247
11115TIP3    H154836   2.333   1.027  14.878 -0.9192  0.4911  0.3226
11115TIP3    H254837   2.230   1.097  14.793 -0.0685  0.6000 -0.6373
11116TIP3   OH254838   1.084   0.300  13.353  0.2133 -0.2117 -0.5217
11116TIP3    H154839   1.098   0.209  13.379 -2.5745 -0.8610 -1.0387
11116TIP3    H254840   1.170   0.333  13.329  1.2176 -2.8144 -0.5923
11117TIP3   OH254841   6.332   6.134   6.088  0.3684 -0.2254  0.4350
11117TIP3    H154842   6.315   6.226   6.107 -2.1243 -0.9109  1.7500
11117TIP3    H254843   6.386   6.104   6.161  0.2135 -0.0804  0.6107
11118TIP3   OH254844   2.196   1.889  10.905  0.3946  0.0179  0.0566
11118TIP3    H154845   2.171   1.962  10.849 -0.8806 -0.2296  0.2638
11118TIP3    H254846   2.262   1.841  10.855  2.1346  1.9604  0.4227
11119TIP3   OH254847   6.347   2.593   3.515 -0.1785 -0.9902 -0.4209
11119TIP3    H154848   6.411   2.664   3.519  0.3937 -1.5401  0.2652
11119TIP3    H254849   6.371   2.545   3.435  1.0014 -1.8684  0.4335
11120TIP3   OH254850   6.151   4.728   1.471  0.0873  0.0072  0.2586
11120TIP3    H154851   6.057   4.739   1.479 -0.2930 -2.5872 -0.1982
11120TIP3    H254852   6.182   4.721   1.561 -0.5039 -1.5175  0.3642
11121TIP3   OH254853   5.429   3.998  14.789  0.2203  0.2429  0.2347
11121TIP3    H154854   5.430   3.959  14.876 -0.9226  1.0874  0.6400
11121TIP3    H254855   5.368   4.071  14.796 -0.7857 -0.3951 -1.5704
11122TIP3   OH254856   2.591   2.822   0.091  0.0840  0.6407 -0.7057
11122TIP3    H154857   2.570   2.850   0.180 -1.8081 -0.8156 -0.6519
11122TIP3    H254858   2.520   2.857   0.038 -0.7151 -1.4785 -1.0775
11123TIP3   OH254859   1.424   4.221   0.677 -0.0821  0.0270 -0.0402
11123TIP3    H154860   1.477   4.280   0.623  0.8803  0.2806  1.1752
11123TIP3    H254861   1.396   4.152   0.616  2.8936 -0.9280 -0.4020
11124TIP3   OH254862   1.846   4.481   3.571 -0.3732 -0.2033  0.4843
11124TIP3    H154863   1.918   4.530   3.610  0.1435 -0.9210  0.4511
11124TIP3    H254864   1.889   4.412   3.521 -1.0318  0.7403 -1.4133
11125TIP3   OH254865   5.205   0.216  11.572  0.0372 -0.2257 -0.2481
11125TIP3    H154866   5.140   0.255  11.630 -0.2045 -1.0938  0.0706
11125TIP3    H254867   5.270   0.178  11.631  0.0788 -0.6191 -0.5466
11126TIP3   OH254868   5.855   3.610   4.280 -1.2038  0.2320 -0.3664
11126TIP3    H154869   5.834   3.700   4.255 -0.4746 -0.1193 -2.3438
11126TIP3    H254870   5.794   3.556   4.229 -2.5180 -0.3691  1.7851
11127TIP3   OH254871   0.483   0.461  12.554  0.1749 -0.1299 -0.5777
11127TIP3    H154872   0.498   0.483  12.463 -2.8445 -0.3445 -1.1730
11127TIP3    H254873   0.491   0.543  12.601  1.8385 -0.0369 -1.0047
11128TIP3   OH254874   4.265   0.418   4.170 -0.1808  0.3013 -0.2299
11128TIP3    H154875   4.359   0.407   4.185 -0.1106  1.4499  0.2686
11128TIP3    H254876   4.259   0.452   4.080 -0.1441 -0.1318 -0.3957
11129TIP3   OH254877   6.593   2.580   5.411 -0.1281 -0.2634  0.4606
11129TIP3    H154878   6.648   2.648   5.450  1.0034 -1.0597  0.2972
11129TIP3    H254879   6.504   2.606   5.432  0.3250  0.9337  0.9447
11130TIP3   OH254880   0.733   6.396   4.913  0.0188  0.3693 -0.4415
11130TIP3    H154881   0.652   6.408   4.964  0.7862  0.1425  0.8628
11130TIP3    H254882   0.725   6.308   4.877 -0.9987  0.9114 -1.5849
11131TIP3   OH254883   3.985   5.496  17.148  0.0237  0.1946 -0.2068
11131TIP3    H154884   4.079   5.496  17.127 -0.2855  1.3241 -1.6494
11131TIP3    H254885   3.954   5.411  17.115  0.7583 -0.7478  1.4395
11132TIP3   OH254886   1.709   1.221  10.546  0.1008 -0.2243 -0.0692
11132TIP3    H154887   1.616   1.242  10.539  0.0593 -0.2875  0.2758
11132TIP3    H254888   1.754   1.302  10.524 -0.0188 -0.5008 -1.3556
11133TIP3   OH254889   0.385   6.713   5.528  0.4027 -0.2601  0.5417
11133TIP3    H154890   0.403   6.681   5.439  0.7820 -1.9399  1.2089
11133TIP3    H254891   0.426   6.799   5.531  2.1096 -1.0127 -0.2805
11134TIP3   OH254892   5.651   5.769  13.870  0.4152  0.7079 -0.3262
11134TIP3    H154893   5.663   5.763  13.775 -1.5883  0.3188 -0.5727
11134TIP3    H254894   5.679   5.858  13.892  3.3598 -0.0330 -0.8758
11135TIP3   OH254895   1.189   5.774   0.066  0.3473  0.6263 -0.5485
11135TIP3    H154896   1.159   5.778  -0.024  0.0293 -2.1161 -0.6053
11135TIP3    H254897   1.274   5.819   0.065 -0.7438  2.6913 -1.7003
11136TIP3   OH254898   3.239   1.358   0.512  0.2190 -0.4652  0.0452
11136TIP3    H154899   3.225   1.301   0.436 -2.6113  0.7426 -0.3954
11136TIP3    H254900   3.165   1.340   0.570 -0.1167  1.8789  0.4204
11137TIP3   OH254901   5.304   1.053   1.430 -0.0794 -0.4951  0.0233
11137TIP3    H154902   5.276   0.962   1.437  0.2626 -0.7203 -1.2867
11137TIP3    H254903   5.299   1.072   1.336  2.0844  0.0898 -0.0136
11138TIP3   OH254904   2.862   2.869  15.336  0.2272  0.0249 -0.5230
11138TIP3    H154905   2.848   2.964  15.339  1.4512  0.1508  2.2457
11138TIP3    H254906   2.797   2.833  15.396  1.2718 -0.6996  0.1731
11139TIP3   OH254907   3.173   6.155   5.389 -0.1401 -0.5094 -0.2353
11139TIP3    H154908   3.212   6.160   5.301 -0.9832 -0.2498 -0.5994
11139TIP3    H254909   3.082   6.180   5.376 -0.3120 -0.6450  0.6934
11140TIP3   OH254910   2.417   3.979   1.206  0.3588 -0.5150  0.1045
11140TIP3    H154911   2.488   4.033   1.240 -0.7502  0.6217  0.6830
11140TIP3    H254912   2.449   3.946   1.122  1.5107  0.0885  0.2993
11141TIP3   OH254913   4.333   2.944  12.334 -0.4933 -0.0994 -0.3333
11141TIP3    H154914   4.293   2.907  12.256 -2.5820  0.4648  0.4543
11141TIP3    H254915   4.346   3.037  12.313  0.5130 -0.2982 -0.6204
11142TIP3   OH254916   5.297   3.022  13.959 -0.2106  0.5570 -0.4505
11142TIP3    H154917   5.333   2.972  13.885  0.5089 -0.1688  0.3878
11142TIP3    H254918   5.347   2.993  14.035 -2.3882 -0.2865  0.6902
11143TIP3   OH254919   1.914   2.106   4.279  1.1483 -0.4770 -0.3787
11143TIP3    H154920   1.957   2.181   4.319  0.2851 -0.3003  0.2239
11143TIP3    H254921   1.861   2.068   4.349 -0.5274 -0.0426 -1.3756
11144TIP3   OH254922   6.778   2.527   3.593  0.1101 -0.0405 -0.1275
11144TIP3    H154923   6.824   2.451   3.628 -0.6160 -0.3125  0.2419
11144TIP3    H254924   6.726   2.493   3.521  1.3124  0.4557 -1.2466
11145TIP3   OH254925   6.135   4.237  10.775 -0.1574 -0.0467  0.7790
11145TIP3    H154926   6.085   4.160  10.747 -0.1835  0.6929 -1.2945
11145TIP3    H254927   6.223   4.204  10.792 -0.4023 -0.7049  0.7884
11146TIP3   OH254928   2.798   2.719  13.891  0.3265 -0.0540  0.4505
11146TIP3    H154929   2.841   2.633  13.892 -0.5073 -0.5179 -1.8057
11146TIP3    H254930   2.837   2.764  13.816  0.3250  1.3286  1.2733
11147TIP3   OH254931   4.184   1.007  10.815  0.5104 -0.4635  0.6176
11147TIP3    H154932   4.091   1.028  10.801  0.2028 -1.2066  1.4392
11147TIP3    H254933   4.229   1.091  10.811 -0.2754 -0.0341  0.6949
11148TIP3   OH254934   2.469   6.624  14.761  0.0779 -0.7344  0.2018
11148TIP3    H154935   2.433   6.664  14.840 -0.2351 -2.6314  1.0373
11148TIP3    H254936   2.548   6.579  14.791  0.3178 -0.9253 -0.6972
11149TIP3   OH254937   0.135   1.211   2.306  0.7249 -0.7722 -0.2940
11149TIP3    H154938   0.077   1.235   2.233 -0.2214 -0.1892  0.6364
11149TIP3    H254939   0.208   1.272   2.300  1.7491 -2.1309 -2.0551
11150TIP3   OH254940   0.968   0.514  15.512 -0.2107  0.1060  0.2695
11150TIP3    H154941   0.915   0.532  15.589 -0.0180  2.7786 -0.1934
11150TIP3    H254942   1.058   0.509  15.544 -0.4132 -1.7874  0.6366
11151TIP3   OH254943   3.995   1.962   4.080 -0.2334 -0.1632  0.0217
11151TIP3    H154944   3.914   1.959   4.029  0.0161 -1.6270 -0.3028
11151TIP3    H254945   4.035   1.876   4.067  1.0457  0.3133  0.7195
11152TIP3   OH254946   1.499   0.626   3.353  0.7859 -0.3927  0.1457
11152TIP3    H154947   1.588   0.660   3.341  1.4579 -2.0189  0.4230
11152TIP3    H254948   1.505   0.533   3.330 -1.0746 -0.2825 -0.8466
11153TIP3   OH254949   4.482   1.911  12.892  0.3249  0.6390  0.6933
11153TIP3    H154950   4.440   1.837  12.849  0.1523 -0.6272  2.9392
11153TIP3    H254951   4.427   1.986  12.869 -0.9920 -0.3603  0.4662
11154TIP3   OH254952   4.887   3.818   2.451 -0.0814 -0.1971  0.3995
11154TIP3    H154953   4.821   3.784   2.512  2.0268 -2.0255  1.7390
11154TIP3    H254954   4.877   3.913   2.455 -2.3631 -0.4335  0.8729
11155TIP3   OH254955   0.795   3.108  14.118 -0.4641 -0.1302  0.1679
11155TIP3    H154956   0.885   3.081  14.138 -0.4904  0.6786  1.4187
11155TIP3    H254957   0.758   3.133  14.203 -1.2016  1.5237 -0.6245
11156TIP3   OH254958   3.248   2.937  10.959 -0.6226 -0.1954  0.0359
11156TIP3    H154959   3.310   2.901  10.896  0.3963 -1.3765  1.6635
11156TIP3    H254960   3.162   2.921  10.920 -0.0067 -0.9412 -1.0339
11157TIP3   OH254961   0.717   5.266   4.417 -0.4937  0.0410 -0.1810
11157TIP3    H154962   0.624   5.243   4.416 -0.3350 -0.5792 -0.9197
11157TIP3    H254963   0.758   5.203   4.358  0.0384  1.8187 -1.7318
11158TIP3   OH254964   5.822   0.168  13.696  0.5830  0.2939  0.6731
11158TIP3    H154965   5.825   0.262  13.679  0.9460  0.1736  0.0622
11158TIP3    H254966   5.789   0.130  13.615  0.5871 -0.1214  0.8655
11159TIP3   OH254967   5.083   2.547   5.780  0.4435 -0.1504 -0.1717
11159TIP3    H154968   5.084   2.564   5.874 -2.2933  1.1162 -0.3098
11159TIP3    H254969   5.105   2.632   5.740 -1.0459  0.0248 -0.6725
11160TIP3   OH254970   2.466   6.698  15.960  0.5122  0.7883 -0.3402
11160TIP3    H154971   2.507   6.677  16.044 -0.0086 -1.2259 -0.5433
11160TIP3    H254972   2.537   6.732  15.905  1.8795 -2.2172 -0.5546
11161TIP3   OH254973   0.824   0.050  14.358 -0.6431 -0.1706  0.0221
11161TIP3    H154974   0.876   0.115  14.406 -0.0922 -0.8395  0.3380
11161TIP3    H254975   0.733   0.077  14.373 -0.4197  0.5202  0.1615
11162TIP3   OH254976   4.333   2.536  15.056 -0.1865 -0.1664  0.6589
11162TIP3    H154977   4.293   2.461  15.101  1.2560 -1.6908 -0.5222
11162TIP3    H254978   4.388   2.578  15.122  0.9147 -1.6245  0.6915
11163TIP3   OH254979   4.015   3.130  14.972  0.0445  0.4137 -0.5272
11163TIP3    H154980   3.947   3.183  14.930 -0.0044  0.1563 -0.7691
11163TIP3    H254981   4.096   3.180  14.959 -0.4780  2.0390  2.0105
11164TIP3   OH254982   6.631   1.621  15.732  0.5678  0.4702 -0.0560
11164TIP3    H154983   6.633   1.527  15.748 -1.1339 -0.5472 -5.1494
11164TIP3    H254984   6.709   1.639  15.680 -0.3862  1.4274 -1.1841
11165TIP3   OH254985   6.196   0.306  12.097 -0.5364 -0.0855 -0.3460
11165TIP3    H154986   6.281   0.291  12.056 -0.5234  0.7684 -0.6407
11165TIP3    H254987   6.216   0.318  12.190 -0.4362 -0.7548 -0.2741
11166TIP3   OH254988   5.979   5.813   2.592 -0.1660 -0.7798  0.1357
11166TIP3    H154989   5.949   5.779   2.507 -1.6310  0.4024  0.1650
11166TIP3    H254990   5.924   5.768   2.656 -1.3720  0.8229  0.2383
11167TIP3   OH254991   2.858   3.489   6.057 -0.2027 -0.0009 -0.5463
11167TIP3    H154992   2.844   3.558   6.123 -0.1309  0.5345 -1.0892
11167TIP3    H254993   2.951   3.466   6.067 -0.5422 -0.9558  0.5356
11168TIP3   OH254994   2.500   5.446  13.005  0.2366 -0.5274 -0.5381
11168TIP3    H154995   2.528   5.511  13.069 -1.4377 -0.9510  0.6444
11168TIP3    H254996   2.511   5.362  13.050  0.4700 -0.9336 -1.3428
11169TIP3   OH254997   5.342   3.104  15.348  0.1315 -0.1413  0.1214
11169TIP3    H154998   5.298   3.156  15.416 -0.2350  0.9566 -0.9293
11169TIP3    H254999   5.432   3.097  15.378  0.0906  0.7567  0.4772
11170TIP3   OH255000   6.498   3.246  12.326  0.5254 -0.0353 -0.3594
11170TIP3    H155001   6.496   3.238  12.421  0.4166  0.0181 -0.3572
11170TIP3    H255002   6.576   3.196  12.299 -0.1613 -1.1150 -0.3541
11171TIP3   OH255003   1.375   0.419  12.703 -0.6410 -0.6972 -0.4137
11171TIP3    H155004   1.411   0.390  12.619 -0.0368 -1.0447 -0.0360
11171TIP3    H255005   1.444   0.401  12.767 -1.9284 -2.5263  0.5195
11172TIP3   OH255006   3.695   6.414   2.515  0.1479  0.9582  0.1450
11172TIP3    H155007   3.649   6.496   2.536  0.8455  1.0239  1.4764
11172TIP3    H255008   3.786   6.431   2.539  0.6139  0.3401 -1.1246
11173TIP3   OH255009   5.922   2.321   1.119 -0.4353 -0.1777  0.7665
11173TIP3    H155010   5.972   2.319   1.037  3.4108 -0.4542  3.0386
11173TIP3    H255011   5.837   2.283   1.095  0.2852  0.4981 -3.2619
11174TIP3   OH255012   2.983   1.721   1.117 -0.1112 -0.0747  0.4256
11174TIP3    H155013   3.045   1.687   1.181 -0.4144  0.9617  1.2830
11174TIP3    H255014   3.012   1.683   1.034  0.9836 -0.5114  0.9896
11175TIP3   OH255015   2.802   5.739  11.828  0.1334  0.5711 -0.2825
11175TIP3    H155016   2.884   5.696  11.803  0.4270  0.3133  1.0783
11175TIP3    H255017   2.750   5.739  11.748  0.4925 -1.4921 -0.5614
11176TIP3   OH255018   3.016   1.296  16.670  0.6520  0.2510 -0.4543
11176TIP3    H155019   3.041   1.269  16.758  4.6276  0.0832 -1.5185
11176TIP3    H255020   2.985   1.215  16.628  1.1991 -0.2093  0.0209
11177TIP3   OH255021   2.092   2.358   0.370  0.0563  0.4196 -0.0609
11177TIP3    H155022   2.114   2.304   0.294  0.8178  1.7608 -0.7971
11177TIP3    H255023   2.082   2.446   0.336 -0.9315  0.8174  1.1851
11178TIP3   OH255024   4.953   2.155  12.408  0.1574  0.1474  0.2882
11178TIP3    H155025   4.912   2.130  12.491 -2.8047  0.8942 -0.8811
11178TIP3    H255026   4.885   2.206  12.362  2.7205  2.1622 -1.3882
11179TIP3   OH255027   6.084   3.633   4.043  0.2750 -0.2655  0.3489
11179TIP3    H155028   6.002   3.596   4.009  0.0139  0.1801  0.4928
11179TIP3    H255029   6.153   3.589   3.993 -0.1024  0.2530 -0.6320
11180TIP3   OH255030   3.862   6.714   2.650  0.2130 -0.1181 -0.2551
11180TIP3    H155031   3.867   6.648   2.581 -1.2614 -0.0254 -0.4667
11180TIP3    H255032   3.783   6.764   2.630 -0.6064 -0.4968  1.8630
11181TIP3   OH255033   4.090   3.147   4.898  0.3072  0.4222  0.1418
11181TIP3    H155034   4.153   3.189   4.839 -0.7829  0.8298 -0.7391
11181TIP3    H255035   4.144   3.112   4.969  1.5013  1.0233 -0.4530
11182TIP3   OH255036   0.806   5.746   0.208  0.1383  0.5281  0.0362
11182TIP3    H155037   0.820   5.687   0.282 -1.0360  0.4885  0.2369
11182TIP3    H255038   0.862   5.711   0.139 -0.8505 -1.0888  0.0207
11183TIP3   OH255039   4.787   6.523   6.257 -0.4457  0.1306  0.1028
11183TIP3    H155040   4.771   6.441   6.303  0.2334 -0.3552 -0.5093
11183TIP3    H255041   4.772   6.591   6.323 -0.2597 -0.5189  0.8192
11184TIP3   OH255042   5.392   4.863  12.456  0.1921 -0.2003 -0.2016
11184TIP3    H155043   5.416   4.794  12.518 -0.3789 -1.5203 -1.3839
11184TIP3    H255044   5.453   4.934  12.473  0.6157 -0.8947  1.2512
11185TIP3   OH255045   5.307   2.544   4.723 -0.2281  0.3518  0.3558
11185TIP3    H155046   5.337   2.482   4.790  0.7694 -0.5561 -0.9019
11185TIP3    H255047   5.213   2.550   4.737  0.1010  1.0383  2.5511
11186TIP3   OH255048   4.381   1.406  16.794 -0.1605 -0.2340 -0.9847
11186TIP3    H155049   4.293   1.441  16.810 -0.6217 -1.7903  0.0574
11186TIP3    H255050   4.392   1.338  16.861  2.2041  0.5631 -0.5064
11187TIP3   OH255051   0.576   4.971   0.839 -0.0515  0.1853 -0.0039
11187TIP3    H155052   0.598   4.948   0.749 -0.3541  1.6934 -0.4724
11187TIP3    H255053   0.624   5.052   0.856 -1.2416  0.7674  0.6571
11188TIP3   OH255054   0.427   3.504   2.597  0.2511  0.3167  0.9820
11188TIP3    H155055   0.489   3.575   2.616  1.1215 -0.2869  0.4278
11188TIP3    H255056   0.422   3.454   2.679 -0.1240  0.8236  1.2758
11189TIP3   OH255057   1.619   5.391   3.673 -0.0216  0.7367 -0.1634
11189TIP3    H155058   1.715   5.398   3.673  0.1233 -0.8094  1.8496
11189TIP3    H255059   1.589   5.475   3.708  0.7358  0.1917  1.8444
11190TIP3   OH255060   3.567   0.074  13.469  0.4985 -0.3349  0.6108
11190TIP3    H155061   3.656   0.108  13.461  0.6376 -0.5647  1.1881
11190TIP3    H255062   3.549   0.033  13.384  1.1332 -0.7393  0.6744
11191TIP3   OH255063   4.038   0.909  13.078  0.5401 -0.3362 -0.5672
11191TIP3    H155064   4.030   0.976  13.010  1.7825  0.1688 -0.2341
11191TIP3    H255065   4.110   0.853  13.048  1.8591  0.5644  0.8832
11192TIP3   OH255066   5.692   6.603  14.580 -0.5853  0.4351 -0.1122
11192TIP3    H155067   5.707   6.690  14.617 -1.3898  0.4921  0.1097
11192TIP3    H255068   5.614   6.614  14.525 -2.2903 -0.7017  1.9869
11193TIP3   OH255069   4.711   5.753   6.100 -0.6484  0.3154 -0.0830
11193TIP3    H155070   4.776   5.701   6.053  0.8008  0.6043  1.5502
11193TIP3    H255071   4.634   5.695   6.106  0.1718 -0.8154 -0.2109
11194TIP3   OH255072   1.334   2.342  11.847 -0.0051  0.0579  0.2808
11194TIP3    H155073   1.319   2.414  11.908 -1.3382 -1.0580  1.2883
11194TIP3    H255074   1.412   2.298  11.881 -0.0739  0.1263  0.5282
11195TIP3   OH255075   3.914   1.195  12.300 -0.5461 -0.0217  0.0081
11195TIP3    H155076   3.852   1.266  12.318 -1.2275 -0.5829 -0.0774
11195TIP3    H255077   3.862   1.115  12.311 -0.0875 -0.4713 -1.0576
11196TIP3   OH255078   3.627   1.691  17.144 -0.0702 -0.1480  0.2547
11196TIP3    H155079   3.676   1.724  17.069  0.9166 -0.8829  0.5770
11196TIP3    H255080   3.601   1.770  17.191 -1.4246  0.3589 -1.3027
11197TIP3   OH255081   4.564   1.748  16.910  0.2317 -0.5669  0.5545
11197TIP3    H155082   4.624   1.768  16.838 -1.2350  0.8817 -0.2926
11197TIP3    H255083   4.535   1.833  16.942 -1.0496 -1.2398  1.2456
11198TIP3   OH255084   4.315   1.728   6.184  0.5613  0.0831 -0.2436
11198TIP3    H155085   4.260   1.656   6.215  0.1013  0.6166  0.1801
11198TIP3    H255086   4.304   1.797   6.249  0.2799  0.8807 -1.1223
11199TIP3   OH255087   0.797   4.718   2.132  0.6759  0.4045 -0.3630
11199TIP3    H155088   0.739   4.644   2.114 -0.4643  1.3058 -0.4672
11199TIP3    H255089   0.882   4.692   2.095  0.7829 -1.6007  1.2013
11200TIP3   OH255090   1.315   3.828  13.289 -0.0025  0.1083 -0.4419
11200TIP3    H155091   1.253   3.887  13.331  1.1394  1.2227 -0.2878
11200TIP3    H255092   1.363   3.788  13.362 -1.3220 -1.6447 -0.5092
11201TIP3   OH255093   3.826   1.789   4.599  0.2042 -0.1498 -0.0658
11201TIP3    H155094   3.834   1.848   4.524  1.7490 -1.5235 -1.0437
11201TIP3    H255095   3.745   1.740   4.582  0.7170 -0.6766 -1.0099
11202TIP3   OH255096   0.434   4.220  12.246 -0.1217  0.3580  0.5946
11202TIP3    H155097   0.404   4.194  12.333 -0.8528 -1.0969 -0.0812
11202TIP3    H255098   0.500   4.155  12.222 -0.3045  0.4363 -0.1601
11203TIP3   OH255099   5.669   2.185  12.615  0.3923  0.5493 -0.4607
11203TIP3    H155100   5.581   2.206  12.586  0.5791  0.7478 -0.8888
11203TIP3    H255101   5.727   2.229  12.553  0.8153  1.7369  0.7524
11204TIP3   OH255102   2.240   1.954   0.336 -0.3937  0.0634  0.1603
11204TIP3    H155103   2.225   2.003   0.417  1.3883  0.4123  0.3083
11204TIP3    H255104   2.332   1.970   0.315 -0.3159 -1.5774 -0.8895
11205TIP3   OH255105   5.021   4.843   2.423 -0.0757  0.0477  0.3757
11205TIP3    H155106   4.932   4.829   2.457  0.7204 -0.6236  2.2480
11205TIP3    H255107   5.061   4.756   2.424  1.1758  0.6236  1.1807
11206TIP3   OH255108   4.334   3.890   1.227  0.6770 -0.1614 -0.3239
11206TIP3    H155109   4.334   3.947   1.304 -0.6667  0.1953 -0.5714
11206TIP3    H255110   4.343   3.950   1.153  2.5444 -0.5509 -0.4330
11207TIP3   OH255111   6.040   4.793   0.125  0.0941  0.6674 -0.1742
11207TIP3    H155112   6.071   4.782   0.036 -1.4110  0.1131 -0.6424
11207TIP3    H255113   6.093   4.732   0.177  0.3428  0.3345 -0.8177
11208TIP3   OH255114   1.329   5.319   4.191  0.0682  0.8641  0.0107
11208TIP3    H155115   1.383   5.398   4.185  0.3050  0.7530  0.5795
11208TIP3    H255116   1.298   5.304   4.102  1.0748  0.8696 -0.3456
11209TIP3   OH255117   2.880   1.377  13.655  0.6397  0.4985 -0.2880
11209TIP3    H155118   2.822   1.320  13.604  0.9863  0.5042 -0.6936
11209TIP3    H255119   2.821   1.440  13.696  0.4118  0.9100 -1.2288
11210TIP3   OH255120   6.082   3.714  13.787  0.1530  0.4729  0.0168
11210TIP3    H155121   6.175   3.704  13.766  0.5994  3.7123  0.1591
11210TIP3    H255122   6.045   3.758  13.711 -0.9960  0.3706  0.5077
11211TIP3   OH255123   0.255   1.387  13.781 -0.2815 -0.2871  0.2520
11211TIP3    H155124   0.208   1.311  13.744  0.1040 -0.6798  0.5638
11211TIP3    H255125   0.336   1.391  13.730 -1.3483  1.3668 -1.3786
11212TIP3   OH255126   4.252   2.627  16.786  0.7606  0.7395 -0.9467
11212TIP3    H155127   4.250   2.545  16.738 -0.5729  0.0416  0.2502
11212TIP3    H255128   4.337   2.628  16.831 -0.1268 -1.0984  0.8708
11213TIP3   OH255129   5.497   4.902   0.120  0.1326 -0.1305  0.2339
11213TIP3    H155130   5.463   4.816   0.143 -0.9457  0.6795  1.7804
11213TIP3    H255131   5.442   4.931   0.048  0.2381 -0.5573 -0.0213
11214TIP3   OH255132   2.911   6.014  12.468 -0.4096  0.0574 -0.1785
11214TIP3    H155133   2.964   6.073  12.413 -0.4529  0.9429  0.7171
11214TIP3    H255134   2.826   6.057  12.472 -0.8414 -0.7498 -0.6089
11215TIP3   OH255135   1.326   4.967  14.515  0.2610  0.4669  0.4138
11215TIP3    H155136   1.239   4.975  14.556  0.2227  1.3004  0.1743
11215TIP3    H255137   1.377   4.916  14.577 -0.8069 -1.2634 -0.0718
11216TIP3   OH255138   1.553   4.924   4.585 -0.2506 -0.1609 -0.1234
11216TIP3    H155139   1.568   4.910   4.492 -0.3062  1.1915 -0.3467
11216TIP3    H255140   1.618   4.989   4.610 -0.3884 -0.3470  0.7378
11217TIP3   OH255141   0.247   0.787  14.156  0.4008 -0.0981 -0.0536
11217TIP3    H155142   0.202   0.818  14.235  2.5416  1.1519  0.7020
11217TIP3    H255143   0.258   0.693  14.171  0.6920  0.1084  1.0736
11218TIP3   OH255144   2.723   6.697  14.879 -0.2486 -0.6152 -0.1312
11218TIP3    H155145   2.810   6.667  14.856  0.1935 -0.5323  1.3744
11218TIP3    H255146   2.717   6.785  14.842  1.0092  0.1151  1.3422
11219TIP3   OH255147   0.181   2.848   6.001  0.5613  0.4454 -0.6633
11219TIP3    H155148   0.105   2.790   6.009 -0.3682  1.7030 -0.2562
11219TIP3    H255149   0.205   2.870   6.091  1.5852 -0.1431 -0.7754
11220TIP3   OH255150   0.146   4.087   0.797  0.3783 -0.1385 -0.0816
11220TIP3    H155151   0.118   4.174   0.826 -2.6893 -1.3561  0.8383
11220TIP3    H255152   0.233   4.076   0.835  1.0115  2.6801 -0.5847
11221TIP3   OH255153   3.992   2.235   0.186  0.0366  0.0048  0.0447
11221TIP3    H155154   3.919   2.271   0.136 -0.2609 -0.9680 -0.2194
11221TIP3    H255155   4.066   2.237   0.126 -0.1117 -0.3365 -0.1503
11222TIP3   OH255156   3.848   1.650  11.863 -0.0286  0.4633 -0.0899
11222TIP3    H155157   3.816   1.737  11.839  1.0441  1.0003  0.3833
11222TIP3    H255158   3.943   1.658  11.862  0.0785 -0.7403 -0.1568
11223TIP3   OH255159   1.479   2.104  15.307 -0.0392 -0.0954  0.6108
11223TIP3    H155160   1.498   2.099  15.213  0.6692  0.0693  0.7435
11223TIP3    H255161   1.401   2.050  15.318 -0.3451  0.1812 -0.1332
11224TIP3   OH255162   6.600   4.590  10.771 -0.3094  0.1935 -0.1848
11224TIP3    H155163   6.675   4.530  10.774 -0.5358 -0.1074 -0.4376
11224TIP3    H255164   6.528   4.535  10.739 -0.1665  0.9854 -1.8905
11225TIP3   OH255165   6.784   4.241  12.964 -0.4444 -0.6184 -0.1888
11225TIP3    H155166   6.730   4.224  12.887 -2.0368 -0.0122  0.7904
11225TIP3    H255167   6.862   4.284  12.928 -1.8518  1.0613 -1.3118
11226TIP3   OH255168   1.709   4.518  16.616  0.1201 -0.1475  0.2407
11226TIP3    H155169   1.685   4.468  16.538  0.1414 -0.1967  0.2668
11226TIP3    H255170   1.790   4.563  16.592 -0.4487  0.6894 -0.1462
11227TIP3   OH255171   0.403   4.490  14.879  0.4934  0.4066 -0.3634
11227TIP3    H155172   0.383   4.402  14.910  1.0508  0.6170  0.6104
11227TIP3    H255173   0.388   4.546  14.955  1.4663  0.9741 -0.5838
11228TIP3   OH255174   0.502   3.067  12.449 -0.0127  0.4639 -0.3611
11228TIP3    H155175   0.419   3.101  12.483 -1.7913 -1.8169 -2.2136
11228TIP3    H255176   0.554   3.047  12.527 -1.8754  0.3733  0.8914
11229TIP3   OH255177   3.840   2.296  15.033 -0.5301 -0.6278 -1.1184
11229TIP3    H155178   3.846   2.387  15.063 -0.6132 -0.3422 -1.9579
11229TIP3    H255179   3.747   2.283  15.016 -0.3674 -0.4666 -2.2081
11230TIP3   OH255180   5.085   3.208   5.199  0.3918 -0.1374  0.1126
11230TIP3    H155181   5.113   3.222   5.289  0.1780 -0.1822  0.1845
11230TIP3    H255182   5.127   3.125   5.174  0.0683 -0.3649  0.3248
11231TIP3   OH255183   6.262   2.388  16.033  0.0298  0.2064 -0.0084
11231TIP3    H155184   6.313   2.312  16.060  0.0266  0.4424  0.6682
11231TIP3    H255185   6.191   2.352  15.979 -0.0618 -0.2866  0.4402
11232TIP3   OH255186   1.970   2.893  13.456 -0.3368 -0.7119 -0.1731
11232TIP3    H155187   2.008   2.958  13.516 -2.8007  0.0521  0.6216
11232TIP3    H255188   1.997   2.809  13.492 -1.0535 -0.2388  1.5140
11233TIP3   OH255189   0.423   0.158  13.503  0.3017 -0.7358  0.3801
11233TIP3    H155190   0.331   0.145  13.480 -0.6936  0.3144  3.4968
11233TIP3    H255191   0.443   0.085  13.562  1.0434 -0.1618  0.8384
11234TIP3   OH255192   3.894   3.830  13.435  0.1299  0.0928 -0.1153
11234TIP3    H155193   3.984   3.864  13.432 -0.1665  0.9436  0.5832
11234TIP3    H255194   3.893   3.762  13.368  1.6773 -0.8392  0.7514
11235TIP3   OH255195   0.858   1.383   5.687 -0.4278 -0.5637  0.8346
11235TIP3    H155196   0.849   1.377   5.592  0.7242  1.1645  0.6033
11235TIP3    H255197   0.798   1.453   5.712  0.3762 -0.0040  1.2024
11236TIP3   OH255198   1.189   0.299  10.352  0.0850 -0.3374 -0.8748
11236TIP3    H155199   1.235   0.383  10.363  0.6264 -0.5560 -1.4184
11236TIP3    H255200   1.260   0.235  10.342 -0.3411 -0.7182 -1.4451
11237TIP3   OH255201   6.248   5.730  17.220  0.1122 -0.4645  0.1170
11237TIP3    H155202   6.232   5.822  17.238 -0.4669 -0.7102  0.8845
11237TIP3    H255203   6.318   5.730  17.155 -0.0790  0.5200 -0.0970
11238TIP3   OH255204   1.545   6.464   2.796 -0.5683 -0.1358 -0.7642
11238TIP3    H155205   1.471   6.403   2.795 -1.1357  0.5529 -0.7705
11238TIP3    H255206   1.608   6.425   2.857 -1.4664 -0.0869  0.1988
11239TIP3   OH255207   2.670   4.192  14.391  0.1985  0.0767 -0.7732
11239TIP3    H155208   2.605   4.151  14.334 -0.0855 -1.8230  0.8795
11239TIP3    H255209   2.637   4.281  14.403 -0.5253  0.0474 -2.3310
11240TIP3   OH255210   4.092   6.459  16.545  0.2693 -0.9921  0.4673
11240TIP3    H155211   4.171   6.477  16.493 -1.5734  2.3328 -1.3000
11240TIP3    H255212   4.052   6.384  16.502  0.5651 -0.4186 -0.8365
11241TIP3   OH255213   5.098   5.675   2.115  0.0378 -0.3681  0.2798
11241TIP3    H155214   5.126   5.693   2.205  0.5700 -0.3630  0.1161
11241TIP3    H255215   5.180   5.669   2.066 -0.2546 -0.3775 -0.2026
11242TIP3   OH255216   4.874   1.071  13.077  0.1481 -0.3072 -0.2417
11242TIP3    H155217   4.892   1.122  13.155  2.5154  1.5720 -1.9240
11242TIP3    H255218   4.787   1.100  13.048 -1.3485 -2.0334  2.4046
11243TIP3   OH255219   3.950   6.809  13.220  0.1313 -0.0523 -0.3178
11243TIP3    H155220   4.034   6.830  13.179 -0.1657  0.1012 -0.8493
11243TIP3    H255221   3.885   6.850  13.163 -0.2982 -0.0531  0.1690
11244TIP3   OH255222   1.636   3.318   5.809  0.0487  0.3297 -0.3177
11244TIP3    H155223   1.709   3.355   5.857  0.3181  0.2916 -0.6915
11244TIP3    H255224   1.642   3.357   5.722  1.1160 -1.5536 -1.1239
11245TIP3   OH255225   5.714   5.502  15.705 -0.1806  0.4283  0.0902
11245TIP3    H155226   5.722   5.497  15.610  0.0802  1.1189  0.0715
11245TIP3    H255227   5.804   5.506  15.736 -0.2585 -0.2004  0.3870
11246TIP3   OH255228   2.519   2.749   5.110  0.1799  0.0814  0.2070
11246TIP3    H155229   2.548   2.809   5.041  2.3039  0.4455  1.3549
11246TIP3    H255230   2.600   2.709   5.142 -0.9783 -1.5552  1.1378
11247TIP3   OH255231   6.179   3.800  11.079 -0.5300 -1.2302  0.4668
11247TIP3    H155232   6.145   3.712  11.061 -2.9410 -0.1943 -0.2422
11247TIP3    H255233   6.112   3.859  11.045  1.6037  0.9182 -0.1195
11248TIP3   OH255234   1.051   0.796  13.207 -0.1361  0.0581 -0.1864
11248TIP3    H155235   1.141   0.774  13.231  0.6577  1.5382 -1.6969
11248TIP3    H255236   0.999   0.722  13.239  1.4394 -0.1976  1.8362
11249TIP3   OH255237   1.959   0.414  13.824 -0.1132 -0.0568 -0.1791
11249TIP3    H155238   1.979   0.371  13.907 -2.9599 -0.7665  0.1840
11249TIP3    H255239   2.020   0.488  13.819 -0.7052  0.7110  3.1160
11250TIP3   OH255240   6.105   4.515   3.614 -0.6472 -0.5758  0.0525
11250TIP3    H155241   6.032   4.567   3.580 -0.8474  0.5975  2.1758
11250TIP3    H255242   6.066   4.466   3.687  0.3690 -1.0081  0.3055
11251TIP3   OH255243   5.862   6.574  16.065  0.0878 -0.1468  0.0755
11251TIP3    H155244   5.927   6.626  16.017  0.3504 -0.5202  0.0211
11251TIP3    H255245   5.821   6.518  15.999 -0.4670  0.2667  0.0689
11252TIP3   OH255246   1.517   1.673  15.589  0.5491 -0.2174  0.2086
11252TIP3    H155247   1.508   1.700  15.497  1.2933 -1.4716 -0.2549
11252TIP3    H255248   1.429   1.683  15.625 -0.3643 -2.0737 -1.3452
11253TIP3   OH255249   2.467   4.445  14.989 -0.7246  0.2827  0.3440
11253TIP3    H155250   2.511   4.386  15.050  1.1860  3.4572  2.1962
11253TIP3    H255251   2.538   4.483  14.937 -1.7342  2.0679  0.2507
11254TIP3   OH255252   1.783   2.681  14.753 -0.0315 -0.3980 -0.4806
11254TIP3    H155253   1.836   2.633  14.816  1.1346  0.7854 -0.5574
11254TIP3    H255254   1.762   2.617  14.685 -2.4710 -2.0869  1.7413
11255TIP3   OH255255   3.493   6.705  16.567 -0.4568  0.1327 -0.3426
11255TIP3    H155256   3.456   6.776  16.514 -2.3387 -1.2536 -0.9327
11255TIP3    H255257   3.481   6.736  16.657 -0.3315  1.0184 -0.6190
11256TIP3   OH255258   0.264   3.177  15.517  0.4109 -0.7157 -0.0615
11256TIP3    H155259   0.192   3.238  15.537  1.8863  1.1577 -0.3147
11256TIP3    H255260   0.225   3.090  15.529 -1.7602  0.2545  0.2878
11257TIP3   OH255261   2.382   5.186   1.517  0.1433 -0.2580 -0.0688
11257TIP3    H155262   2.289   5.208   1.523  0.4248  0.7975  0.4993
11257TIP3    H255263   2.412   5.184   1.608  0.9561  0.5998 -0.3121
11258TIP3   OH255264   1.222   5.306   1.590  0.1988 -0.0918 -0.3982
11258TIP3    H155265   1.188   5.376   1.535  1.1291  0.0982 -0.7524
11258TIP3    H255266   1.216   5.340   1.679  1.1176  0.6576 -0.6101
11259TIP3   OH255267   5.874   1.598   4.968 -0.1162  0.0309  0.2564
11259TIP3    H155268   5.934   1.544   4.917  0.4564  1.0102 -0.1339
11259TIP3    H255269   5.796   1.607   4.913  0.0580  0.1530  0.0249
11260TIP3   OH255270   3.752   2.031  12.537  0.0735 -0.4849  0.1500
11260TIP3    H155271   3.793   2.026  12.623  0.1679 -0.2317  0.1188
11260TIP3    H255272   3.711   1.945  12.525  0.8158 -0.8278  0.0667
11261TIP3   OH255273   4.451   4.003  15.387  0.0404  0.1957 -0.1373
11261TIP3    H155274   4.525   3.953  15.421 -1.5461 -0.9889  1.7008
11261TIP3    H255275   4.397   3.937  15.343 -0.5034  0.8494 -0.4591
11262TIP3   OH255276   3.892   4.538   0.415  0.4628 -0.2016  0.0653
11262TIP3    H155277   3.972   4.590   0.409 -0.0448  0.3386 -2.7130
11262TIP3    H255278   3.867   4.542   0.507  3.3430  0.0238  0.8864
11263TIP3   OH255279   4.615   5.183   2.523 -0.1109 -0.3456 -0.4423
11263TIP3    H155280   4.703   5.216   2.505 -0.1192  0.6765  1.3846
11263TIP3    H255281   4.560   5.221   2.454  0.3039  1.6114  0.2789
11264TIP3   OH255282   0.557   3.584  16.213 -0.1611  0.2233 -0.4412
11264TIP3    H155283   0.615   3.619  16.281 -0.6526  0.3024 -0.0555
11264TIP3    H255284   0.570   3.490  16.217  2.0174  0.3902 -2.2434
11265TIP3   OH255285   4.717   4.898   0.636 -0.5270 -0.3453  0.3076
11265TIP3    H155286   4.686   4.955   0.565  0.7061  0.4730  0.4101
11265TIP3    H255287   4.637   4.863   0.675 -1.2979  1.0439  0.0040
11266TIP3   OH255288   0.980   4.364   1.868 -0.0172 -0.1374 -0.3717
11266TIP3    H155289   0.889   4.360   1.838  0.1186 -1.1158 -0.6558
11266TIP3    H255290   1.009   4.273   1.871  0.8519  0.1448  0.0424
11267TIP3   OH255291   1.005   3.099  13.353  0.2318 -0.2186 -0.3195
11267TIP3    H155292   1.018   3.156  13.277  1.9087 -0.3364 -0.1510
11267TIP3    H255293   1.016   3.157  13.429  0.3319 -0.4497 -0.1563
11268TIP3   OH255294   4.467   4.888  11.451 -0.3669  0.0103 -0.5659
11268TIP3    H155295   4.406   4.833  11.401 -1.4888 -0.8150  1.6331
11268TIP3    H255296   4.479   4.842  11.533 -0.0002  2.2225  0.6737
11269TIP3   OH255297   2.858   4.978  12.459  0.1004  0.1350  0.5334
11269TIP3    H155298   2.943   4.934  12.458  0.3110  0.5531 -0.1140
11269TIP3    H255299   2.878   5.065  12.495 -0.1291  0.0736  0.8062
11270TIP3   OH255300   5.485   2.682  11.406  0.7265 -0.6815 -0.2859
11270TIP3    H155301   5.519   2.601  11.444  1.7284  0.8430  2.2161
11270TIP3    H255302   5.443   2.727  11.480  1.2808  1.6419 -1.3268
11271TIP3   OH255303   0.765   0.280   3.115  0.7131 -0.1088  0.4148
11271TIP3    H155304   0.722   0.312   3.193  1.9379  2.7115 -0.0084
11271TIP3    H255305   0.713   0.315   3.042  0.9229 -0.7543 -0.0535
11272TIP3   OH255306   6.449   5.740   1.707  0.0636  0.2309  0.1685
11272TIP3    H155307   6.403   5.730   1.789  0.0125 -0.4046  0.0705
11272TIP3    H255308   6.485   5.652   1.689 -1.2432 -0.0393 -1.2606
11273TIP3   OH255309   3.674   5.895  12.288  0.2441  0.2472 -0.2472
11273TIP3    H155310   3.680   5.811  12.333  0.1367 -0.6687 -1.8963
11273TIP3    H255311   3.581   5.904  12.266  0.0246  1.4664  1.1713
11274TIP3   OH255312   1.608   1.294  11.707  0.3034 -0.6788  0.2909
11274TIP3    H155313   1.670   1.223  11.725  1.1141 -0.0828 -0.1335
11274TIP3    H255314   1.570   1.271  11.621 -0.2723 -1.1808  0.6709
11275TIP3   OH255315   3.283   6.516  12.193  0.1481  0.0516  0.6413
11275TIP3    H155316   3.371   6.486  12.173  1.2304  2.0442  2.0934
11275TIP3    H255317   3.257   6.569  12.117  0.6124  0.2727  0.6376
11276TIP3   OH255318   1.663   4.511  16.106 -0.1807 -0.1664  0.0308
11276TIP3    H155319   1.573   4.543  16.106  0.2780  1.2427  2.3744
11276TIP3    H255320   1.704   4.550  16.029 -1.4275 -0.4207 -0.7629
11277TIP3   OH255321   6.131   5.502   0.225  0.0999 -0.3701 -0.8418
11277TIP3    H155322   6.054   5.516   0.170 -0.0912 -0.9088 -0.7211
11277TIP3    H255323   6.101   5.442   0.294  0.7082 -0.8650 -0.9924
11278TIP3   OH255324   6.556   4.947   6.045 -0.0376 -0.5124  0.1429
11278TIP3    H155325   6.582   4.880   5.981 -1.1261 -1.5464  0.7693
11278TIP3    H255326   6.461   4.942   6.047 -0.0361 -0.1387  1.4679
11279TIP3   OH255327   0.321   2.245  16.706  0.2605 -0.2690  0.0629
11279TIP3    H155328   0.401   2.216  16.751  0.0507  0.9053  1.2357
11279TIP3    H255329   0.324   2.341  16.712 -1.7493 -0.2519  1.0374
11280TIP3   OH255330   1.475   6.347   0.161 -0.3432  0.1594  0.0707
11280TIP3    H155331   1.523   6.380   0.085 -0.1609  0.1052  0.1619
11280TIP3    H255332   1.489   6.412   0.229 -0.5212  0.2161  0.0528
11281TIP3   OH255333   1.832   3.360  15.352 -0.2873 -0.1720  0.6338
11281TIP3    H155334   1.756   3.378  15.297 -0.0565  0.3205  0.4756
11281TIP3    H255335   1.812   3.275  15.393 -0.4795 -0.5240 -0.1668
11282TIP3   OH255336   5.518   5.320  15.053 -0.4668 -0.1525  0.4362
11282TIP3    H155337   5.459   5.277  14.992  1.1086 -1.1292 -0.4219
11282TIP3    H255338   5.561   5.388  15.001 -0.3622  0.1245  0.8839
11283TIP3   OH255339   0.083   2.486  13.444 -0.6747  0.0963  0.5630
11283TIP3    H155340  -0.001   2.445  13.424 -0.1599 -0.2922 -0.8369
11283TIP3    H255341   0.078   2.573  13.404 -0.0639 -0.2703 -0.3272
11284TIP3   OH255342   3.493   5.954  13.890 -0.2759 -0.2992 -0.2951
11284TIP3    H155343   3.410   5.926  13.851 -0.4772  0.3037 -0.3046
11284TIP3    H255344   3.480   5.944  13.984 -0.5972  0.3986 -0.2546
11285TIP3   OH255345   3.313   0.233  14.095  0.6926  0.3765 -0.0513
11285TIP3    H155346   3.354   0.157  14.053  1.3229  0.2403  0.8047
11285TIP3    H255347   3.268   0.196  14.171 -0.5582  0.6055 -0.6701
11286TIP3   OH255348   5.327   1.114   4.304  0.1375 -0.0933  0.2537
11286TIP3    H155349   5.310   1.055   4.378 -0.2201 -0.7852 -0.3664
11286TIP3    H255350   5.246   1.113   4.254 -0.1995  1.6933  0.7479
11287TIP3   OH255351   3.876   4.696  16.016 -0.1868  0.1660  0.4691
11287TIP3    H155352   3.939   4.629  16.043  0.0486  0.3183  0.3050
11287TIP3    H255353   3.794   4.649  16.006  0.1705 -0.2632 -0.4935
11288TIP3   OH255354   4.750   0.430   0.047  0.0166 -0.6725 -0.0892
11288TIP3    H155355   4.827   0.418   0.102  0.0588 -1.3808 -0.2936
11288TIP3    H255356   4.744   0.524   0.033  0.6367 -0.5882  0.2213
11289TIP3   OH255357   5.365   5.608   3.841  0.0084 -0.4705 -0.5113
11289TIP3    H155358   5.461   5.607   3.832  0.0186  1.4123 -0.8317
11289TIP3    H255359   5.350   5.627   3.934 -0.0271  2.0931 -1.0151
11290TIP3   OH255360   1.857   1.587   3.872  0.1610  0.2177 -0.5119
11290TIP3    H155361   1.812   1.505   3.888  1.2111 -0.5297 -1.3151
11290TIP3    H255362   1.788   1.649   3.850 -0.5746 -0.6036 -0.5175
11291TIP3   OH255363   3.512   0.498   1.429 -0.0156 -0.1253  0.8671
11291TIP3    H155364   3.529   0.488   1.336 -0.6503 -1.4008  0.8743
11291TIP3    H255365   3.514   0.592   1.444  0.5624  0.0634 -0.3412
11292TIP3   OH255366   6.351   4.487  11.362  1.0532  0.4077 -0.3361
11292TIP3    H155367   6.379   4.437  11.286  0.0042 -0.2135 -0.3156
11292TIP3    H255368   6.431   4.530  11.393  1.3722  1.1494 -2.1359
11293TIP3   OH255369   4.463   1.067   6.186  0.6197  0.4014  0.2638
11293TIP3    H155370   4.554   1.068   6.214  0.0948  1.4323  2.0020
11293TIP3    H255371   4.438   0.974   6.187  1.8917  0.0311 -1.1096
11294TIP3   OH255372   0.670   5.839  11.240 -0.4903 -0.4420 -0.1597
11294TIP3    H155373   0.675   5.908  11.173 -1.4113 -0.3699 -0.1603
11294TIP3    H255374   0.583   5.801  11.229 -0.1025 -1.4055  0.0516
11295TIP3   OH255375   2.375   0.116  13.323  0.0295  0.7947 -0.1414
11295TIP3    H155376   2.447   0.158  13.276  2.5220 -1.0565  1.8993
11295TIP3    H255377   2.418   0.059  13.386 -3.2637 -0.5340  0.9803
11296TIP3   OH255378   5.103   1.834  15.182  0.1286 -0.0499  0.0660
11296TIP3    H155379   5.143   1.863  15.100  0.5393 -1.2630 -0.1768
11296TIP3    H255380   5.083   1.915  15.229  3.4800  0.6155  0.4884
11297TIP3   OH255381   4.212   2.445  15.519  0.4610  0.0759  0.1061
11297TIP3    H155382   4.232   2.422  15.610 -3.2865 -0.7594  0.8008
11297TIP3    H255383   4.189   2.361  15.478 -2.0860  0.9726 -0.3957
11298TIP3   OH255384   1.925   0.837   5.509 -0.9131 -0.2155  0.3914
11298TIP3    H155385   1.997   0.782   5.477 -1.7749 -1.3317  0.3890
11298TIP3    H255386   1.949   0.925   5.478  0.2650 -0.6301  0.0622
11299TIP3   OH255387   4.517   3.300   2.690  0.3628 -0.1248  0.0839
11299TIP3    H155388   4.454   3.253   2.744  0.3076 -0.2617 -0.0976
11299TIP3    H255389   4.502   3.267   2.601 -0.3390  0.9284 -0.2126
11300TIP3   OH255390   3.699   1.736   3.593 -0.2366 -0.3092 -0.0008
11300TIP3    H155391   3.677   1.665   3.532 -0.0662 -0.1713 -0.2248
11300TIP3    H255392   3.791   1.721   3.615  0.1986  0.6448 -1.1324
11301TIP3   OH255393   5.087   3.194   3.519 -0.1770 -0.0656  0.0709
11301TIP3    H155394   5.122   3.135   3.452 -0.8557  1.0074 -1.2550
11301TIP3    H255395   5.131   3.277   3.502 -0.4575  0.2465  0.8721
11302TIP3   OH255396   1.106   2.435   3.057 -0.0786 -0.1423 -0.4627
11302TIP3    H155397   1.112   2.514   3.111 -1.4202  0.9003 -1.7976
11302TIP3    H255398   1.054   2.374   3.109 -2.3645  1.2794 -1.0098
11303TIP3   OH255399   3.758   0.635   5.726 -0.3776 -0.7867 -0.0075
11303TIP3    H155400   3.775   0.648   5.633 -0.7753  1.3342  0.1940
11303TIP3    H255401   3.663   0.620   5.731 -0.3353 -1.0449  0.0497
11304TIP3   OH255402   2.878   3.706   2.337 -0.0699 -0.0668 -0.6147
11304TIP3    H155403   2.932   3.636   2.373  0.8266  1.1639  0.4946
11304TIP3    H255404   2.807   3.717   2.401 -0.5945 -0.4386 -1.1362
11305TIP3   OH255405   3.765   5.099  15.590 -0.2353 -0.0447  0.2023
11305TIP3    H155406   3.673   5.077  15.580 -0.0865 -0.2647 -0.7540
11305TIP3    H255407   3.808   5.016  15.610 -0.2674  0.0904  0.8500
11306TIP3   OH255408   4.539   0.603  15.841 -0.4426 -0.4701  0.3929
11306TIP3    H155409   4.482   0.539  15.797 -0.8008  0.5424 -0.6458
11306TIP3    H255410   4.627   0.569  15.827 -0.5809 -0.3967 -0.7422
11307TIP3   OH255411   2.912   4.948  16.003  0.7883  0.4038 -0.2038
11307TIP3    H155412   2.906   4.853  16.000 -0.2289  0.4395  0.3231
11307TIP3    H255413   2.999   4.968  15.970  0.5236 -0.6379 -1.5719
11308TIP3   OH255414   6.108   6.521  14.364 -0.1822  0.3130 -0.0879
11308TIP3    H155415   6.194   6.553  14.392  0.6454  0.6914 -2.9299
11308TIP3    H255416   6.050   6.597  14.372  0.2373  0.6488 -0.2327
11309TIP3   OH255417   5.885   0.731   0.130  0.0144  0.3246  0.0771
11309TIP3    H155418   5.827   0.681   0.187  2.0126  0.8773  2.7218
11309TIP3    H255419   5.927   0.666   0.074 -0.8884 -0.4059  0.2383
11310TIP3   OH255420   0.680   0.150  13.071 -0.5221  0.8519  0.4361
11310TIP3    H155421   0.749   0.215  13.080  0.9103 -0.3763 -1.4167
11310TIP3    H255422   0.681   0.102  13.154  0.3724  1.2877  0.6766
11311TIP3   OH255423   4.835   5.218   1.373  0.7066 -0.2340  0.4951
11311TIP3    H155424   4.745   5.248   1.384 -0.0965 -2.2287 -0.4026
11311TIP3    H255425   4.869   5.269   1.300 -0.0072 -0.1055  0.2485
11312TIP3   OH255426   6.598   2.144   4.139 -0.2138 -0.4343 -0.3294
11312TIP3    H155427   6.603   2.049   4.154  0.4261 -0.5106 -0.9976
11312TIP3    H255428   6.508   2.167   4.161 -0.5065 -1.2737 -0.6163
11313TIP3   OH255429   6.288   6.802  14.681  0.0689 -0.2687 -0.1554
11313TIP3    H155430   6.203   6.803  14.724  0.2268  2.7000  0.2531
11313TIP3    H255431   6.344   6.854  14.739  2.0114 -1.6880 -0.7090
11314TIP3   OH255432   1.073   0.154   1.569 -0.0095  0.1096 -0.1107
11314TIP3    H155433   0.979   0.173   1.566  0.0097  0.2771  0.2498
11314TIP3    H255434   1.100   0.148   1.478 -0.5005 -0.5930 -0.2118
11315TIP3   OH255435   5.856   1.300   4.328 -0.6779  0.1215  0.0930
11315TIP3    H155436   5.814   1.219   4.358 -2.1232 -0.2325 -2.7896
11315TIP3    H255437   5.945   1.274   4.303 -0.6578 -0.2695  0.5678
11316TIP3   OH255438   6.623   1.898   0.182  0.4160 -0.1095 -0.3806
11316TIP3    H155439   6.633   1.810   0.147  0.4287 -0.5117  0.6196
11316TIP3    H255440   6.529   1.915   0.176  0.5432  0.1947 -1.4935
11317TIP3   OH255441   4.205   1.387   2.611  0.5623 -0.0702 -0.2002
11317TIP3    H155442   4.244   1.315   2.562  2.6599  0.8874  0.0157
11317TIP3    H255443   4.248   1.384   2.697 -1.3033 -0.2153  0.7553
11318TIP3   OH255444   2.880   4.108   4.974  0.4975 -0.4709 -0.0267
11318TIP3    H155445   2.806   4.054   5.003 -0.3370  0.9201  0.4903
11318TIP3    H255446   2.892   4.086   4.882  0.6997 -2.1334  0.3831
11319TIP3   OH255447   1.519   3.915   0.580 -0.2388  0.3648  0.8712
11319TIP3    H155448   1.565   3.841   0.540  0.6069  0.9106  0.8178
11319TIP3    H255449   1.576   3.990   0.564 -0.7976  0.9210  1.4649
11320TIP3   OH255450   2.117   1.372   1.311  0.3620  0.0884 -0.0974
11320TIP3    H155451   2.103   1.292   1.362 -1.2191  0.2426 -0.2599
11320TIP3    H255452   2.203   1.402   1.337  1.1135 -1.8352 -0.2457
11321TIP3   OH255453   5.587   6.680  16.178  0.4013 -0.0088  0.1666
11321TIP3    H155454   5.514   6.688  16.117  0.3110  0.9974  0.3880
11321TIP3    H255455   5.584   6.589  16.209 -0.8189  0.0547  0.2488
11322TIP3   OH255456   3.178   1.681   3.426  0.0030 -0.0998  0.0711
11322TIP3    H155457   3.087   1.709   3.428  0.6532  2.1453  0.4213
11322TIP3    H255458   3.199   1.673   3.333  0.0058  1.3882 -0.0714
11323TIP3   OH255459   4.008   3.848  17.017 -0.1382  0.5109  0.2051
11323TIP3    H155460   3.980   3.795  17.092  0.7259  2.2851  1.8243
11323TIP3    H255461   3.960   3.930  17.026 -0.4479  0.5331 -1.5165
11324TIP3   OH255462   4.286   6.276  14.127 -0.5050 -0.3761  0.2381
11324TIP3    H155463   4.314   6.366  14.139 -0.6531 -0.5132  1.8426
11324TIP3    H255464   4.367   6.225  14.133 -0.4834 -0.3819 -0.1345
11325TIP3   OH255465   1.677   0.291   5.710  0.5480  0.6508 -0.0220
11325TIP3    H155466   1.740   0.360   5.691  0.7889  0.8062  1.3077
11325TIP3    H255467   1.725   0.228   5.764 -0.0478  0.1061 -0.1208
11326TIP3   OH255468   2.901   5.365   1.143 -0.4301  0.2396  0.0380
11326TIP3    H155469   2.986   5.410   1.135  0.7234 -2.2790 -2.3797
11326TIP3    H255470   2.921   5.286   1.192 -1.8869  0.7926  1.5767
11327TIP3   OH255471   3.094   4.975  13.595 -0.1358 -0.6265  0.3169
11327TIP3    H155472   3.008   4.933  13.604 -0.9253  0.2561 -2.5684
11327TIP3    H255473   3.134   4.932  13.520  0.1752  1.8988 -1.0043
11328TIP3   OH255474   0.472   1.590   2.979 -0.4227 -0.0987  0.1636
11328TIP3    H155475   0.437   1.624   3.061 -0.5817  2.0212 -0.7282
11328TIP3    H255476   0.395   1.568   2.927 -0.3151 -2.9521  1.1430
11329TIP3   OH255477   0.281   3.120  12.579  0.0704 -0.1143  0.1104
11329TIP3    H155478   0.314   3.093  12.664 -1.4520 -0.7680  0.5134
11329TIP3    H255479   0.225   3.047  12.550 -0.7336  0.7930 -0.6885
11330TIP3   OH255480   2.715   2.722  12.655  0.4874  0.5183  0.2314
11330TIP3    H155481   2.681   2.669  12.583 -2.3447 -0.3312  2.1157
11330TIP3    H255482   2.698   2.670  12.734  0.3864  2.8824  1.8391
11331TIP3   OH255483   6.420   1.513  15.107 -0.4352  0.1263 -0.1191
11331TIP3    H155484   6.447   1.449  15.041  1.7481  0.9838 -0.1025
11331TIP3    H255485   6.355   1.568  15.064  2.1199  1.6827 -2.1014
11332TIP3   OH255486   4.581   2.075  14.627 -0.1113  0.6282 -0.5545
11332TIP3    H155487   4.497   2.089  14.582 -0.9638  1.3450  1.1904
11332TIP3    H255488   4.581   2.140  14.697  1.7008  0.2979 -0.2295
11333TIP3   OH255489   0.567   5.064   1.418 -0.3035  0.5421 -0.5983
11333TIP3    H155490   0.560   5.157   1.396 -0.1785  0.9002  0.8200
11333TIP3    H255491   0.657   5.041   1.396 -0.9073  0.2415 -2.8247
11334TIP3   OH255492   4.257   0.295   0.859  0.2510 -0.0077  0.5801
11334TIP3    H155493   4.271   0.254   0.774  0.4686  0.4293  0.4023
11334TIP3    H255494   4.259   0.223   0.921 -0.8466 -0.4513  0.1228
11335TIP3   OH255495   3.587   1.698   5.155  0.3358 -0.2211 -0.3321
11335TIP3    H155496   3.585   1.603   5.149  1.9630 -0.2976  0.3009
11335TIP3    H255497   3.555   1.718   5.243  0.0364 -0.1757 -0.4494
11336TIP3   OH255498   1.886   6.106   6.641 -0.6543 -0.4583 -0.3619
11336TIP3    H155499   1.898   6.025   6.690  0.4493  0.4243  0.8704
11336TIP3    H255500   1.838   6.163   6.701  1.0058  0.7563 -0.1551
11337TIP3   OH255501   1.942   0.289  13.371  0.9362 -0.1142  0.4632
11337TIP3    H155502   1.884   0.324  13.438 -1.5596 -1.7971 -0.7387
11337TIP3    H255503   1.910   0.327  13.289  2.0857 -0.3656 -0.1170
11338TIP3   OH255504   4.351   1.864  12.404 -0.0540  0.3588  0.2833
11338TIP3    H155505   4.435   1.866  12.451 -0.8167  1.7788  1.6384
11338TIP3    H255506   4.372   1.824  12.319  2.0177  0.7996  0.5550
11339TIP3   OH255507   2.851   5.854  16.462 -0.3397  0.1804  0.1624
11339TIP3    H155508   2.902   5.788  16.414 -0.2669  2.0330 -2.4524
11339TIP3    H255509   2.770   5.809  16.485  0.0339 -1.0858 -0.9047
11340TIP3   OH255510   6.588   5.966   4.289 -0.6912  0.5940 -0.0707
11340TIP3    H155511   6.572   5.931   4.377  1.4641 -0.2214  0.0426
11340TIP3    H255512   6.679   5.941   4.270  0.1484  4.0853 -0.9836
11341TIP3   OH255513   3.062   5.634   2.224  0.1200  0.0544  0.3735
11341TIP3    H155514   3.093   5.557   2.177 -0.0894 -0.4649  1.0779
11341TIP3    H255515   2.967   5.629   2.219  0.1251  1.0686 -0.8550
11342TIP3   OH255516   4.929   5.520   0.801 -0.2823  0.2043  0.4541
11342TIP3    H155517   4.838   5.492   0.800  0.3192 -1.8131  0.2202
11342TIP3    H255518   4.927   5.607   0.843 -2.3196  0.3078  0.1809
11343TIP3   OH255519   6.218   4.906  16.491  0.3900  0.4506 -0.4518
11343TIP3    H155520   6.272   4.926  16.414  1.8601  0.2876  0.5239
11343TIP3    H255521   6.264   4.947  16.564 -0.2742 -0.5572  0.5427
11344TIP3   OH255522   1.487   4.306   3.383  0.6806  0.2463 -0.0016
11344TIP3    H155523   1.473   4.328   3.291 -0.3894 -1.1998 -0.2147
11344TIP3    H255524   1.487   4.390   3.429  1.3359  0.9860 -1.3277
11345TIP3   OH255525   5.563   3.780   0.288  0.2346 -0.1519  0.2182
11345TIP3    H155526   5.541   3.816   0.202  0.4684 -0.0239  0.2129
11345TIP3    H255527   5.628   3.840   0.323  0.3014 -0.3286  0.3928
11346TIP3   OH255528   1.672   4.673  13.991  0.2918  0.4445  0.0650
11346TIP3    H155529   1.714   4.728  13.925  0.9630  0.3736  0.4397
11346TIP3    H255530   1.723   4.592  13.992 -1.0187 -0.4344 -0.8887
11347TIP3   OH255531   6.602   0.325  13.946  0.1420  0.5650 -0.3203
11347TIP3    H155532   6.627   0.400  13.999 -0.2613  0.0516  0.6006
11347TIP3    H255533   6.508   0.336  13.931 -0.2864 -0.7203  1.3736
11348TIP3   OH255534   2.313   5.000   0.907 -0.4075  0.0295  0.2405
11348TIP3    H155535   2.319   5.096   0.904  0.2368  0.0133  0.8171
11348TIP3    H255536   2.378   4.974   0.972 -2.1606 -0.6439  1.7653
11349TIP3   OH255537   2.559   1.990  15.020 -0.1960 -0.3428 -0.4136
11349TIP3    H155538   2.485   2.039  15.056 -0.5758  0.3195 -2.0459
11349TIP3    H255539   2.582   2.037  14.939  2.6914  0.0949  0.5928
11350TIP3   OH255540   4.042   4.338  15.096 -0.2216  0.0347  0.3557
11350TIP3    H155541   4.113   4.393  15.130  0.1900 -0.9159  1.0377
11350TIP3    H255542   4.016   4.381  15.014  0.6759  0.7676  0.4449
11351TIP3   OH255543   2.006   6.259   1.747 -0.1698 -0.0353  0.3137
11351TIP3    H155544   2.052   6.343   1.759 -1.2923  0.9529 -1.9622
11351TIP3    H255545   1.914   6.279   1.764 -0.1938 -1.2804  1.7248
11352TIP3   OH255546   1.347   5.412   2.942  0.2592 -0.1453 -0.8124
11352TIP3    H155547   1.285   5.345   2.913 -0.5730  0.2507  0.0503
11352TIP3    H255548   1.367   5.389   3.032  0.4228  0.4302 -0.7023
11353TIP3   OH255549   2.782   3.634   4.366  0.2085  0.0294 -0.3841
11353TIP3    H155550   2.866   3.635   4.320 -0.8377  0.1973 -2.3592
11353TIP3    H255551   2.794   3.693   4.440  1.3472  1.3000 -1.5584
11354TIP3   OH255552   2.792   3.971   4.151  0.0957 -0.7867 -0.8086
11354TIP3    H155553   2.861   3.909   4.175  0.3384 -0.5313 -0.8499
11354TIP3    H255554   2.819   4.006   4.066  0.7018  0.4534 -0.1286
11355TIP3   OH255555   5.004   3.625  13.018 -0.0211 -0.2525  0.2402
11355TIP3    H155556   5.091   3.665  13.023  0.1095 -0.5851  0.6204
11355TIP3    H255557   4.970   3.630  13.107 -0.2126 -0.5189  0.1828
11356TIP3   OH255558   4.769   2.150   0.331 -0.3899  0.1011  0.0732
11356TIP3    H155559   4.747   2.173   0.421 -0.7438  2.0455 -0.4907
11356TIP3    H255560   4.736   2.061   0.320 -0.1005 -0.2554  1.9395
11357TIP3   OH255561   0.657   0.502  13.281  0.8239 -0.0589  0.0473
11357TIP3    H155562   0.702   0.461  13.208 -0.0383 -0.8968 -0.0320
11357TIP3    H255563   0.625   0.429  13.334  1.0478  0.5332  1.0170
11358TIP3   OH255564   6.353   6.103  13.956 -0.3214 -0.1916 -0.5418
11358TIP3    H155565   6.427   6.159  13.978  1.0162 -1.6616 -1.2936
11358TIP3    H255566   6.295   6.110  14.032  0.4631  1.1352 -0.0443
11359TIP3   OH255567   5.521   5.458  16.086  0.8127  0.4119  0.3857
11359TIP3    H155568   5.452   5.502  16.136  1.1477  0.9216  0.4001
11359TIP3    H255569   5.595   5.518  16.089  0.6264  0.7557 -1.2775
11360TIP3   OH255570   6.597   1.476   0.335  0.0030  0.4639  0.3570
11360TIP3    H155571   6.625   1.552   0.386 -0.3526  0.1005  1.0986
11360TIP3    H255572   6.624   1.496   0.246  2.0692  0.4194  0.9367
11361TIP3   OH255573   0.935   6.783  16.240  0.0389 -0.5119  0.0073
11361TIP3    H155574   0.971   6.718  16.299  0.5377 -0.3739 -0.1418
11361TIP3    H255575   0.981   6.864  16.263  0.5492 -0.5472 -0.8471
11362TIP3   OH255576   3.469   5.341   5.281 -0.1005  0.2618 -0.3432
11362TIP3    H155577   3.542   5.402   5.289 -1.3848  1.8764 -0.5156
11362TIP3    H255578   3.430   5.363   5.196 -0.2321 -1.1992 -0.6625
11363TIP3   OH255579   2.679   3.013  15.060  0.4242  0.1633  0.3166
11363TIP3    H155580   2.588   2.985  15.053  1.0145 -2.1925  1.6990
11363TIP3    H255581   2.694   3.024  15.154  1.6003  0.4950  0.1003
11364TIP3   OH255582   0.232   2.896   6.256  0.4583  0.4857 -0.0574
11364TIP3    H155583   0.284   2.965   6.297  0.0732 -0.3077  1.7961
11364TIP3    H255584   0.243   2.820   6.313  0.1587 -0.7441 -1.5877
11365TIP3   OH255585   2.919   0.714   5.070  0.6031 -0.2347 -0.4053
11365TIP3    H155586   2.980   0.751   5.134  2.0403 -0.6619 -1.4932
11365TIP3    H255587   2.935   0.620   5.074  0.1148 -0.3298 -0.7986
11366TIP3   OH255588   0.676   4.578   5.686  0.4829  0.4102  0.0816
11366TIP3    H155589   0.712   4.493   5.662 -3.0858 -0.9125 -0.9997
11366TIP3    H255590   0.672   4.576   5.782 -1.9581 -1.7967 -0.0010
11367TIP3   OH255591   6.215   3.670  16.178 -0.0009  0.2876 -0.1103
11367TIP3    H155592   6.167   3.720  16.112 -1.2836  0.3201  0.8420
11367TIP3    H255593   6.178   3.582  16.174  0.2023  0.1805  0.2791
11368TIP3   OH255594   2.927   2.840  14.768 -0.2576 -0.3331 -0.7555
11368TIP3    H155595   2.944   2.851  14.675  2.9581  0.8127 -0.0653
11368TIP3    H255596   2.904   2.747  14.777 -0.0131 -0.5873 -2.5793
11369TIP3   OH255597   5.773   0.855  13.716  0.2659  0.5305  0.3159
11369TIP3    H155598   5.794   0.793  13.646  2.5219  0.8439  0.6859
11369TIP3    H255599   5.702   0.813  13.764  1.3123 -1.4964  0.1580
11370TIP3   OH255600   5.883   1.211   0.809 -0.0641 -0.3551  0.0909
11370TIP3    H155601   5.824   1.149   0.851 -0.0655 -0.6832 -0.3887
11370TIP3    H255602   5.859   1.208   0.716  0.3153 -0.0567 -0.0188
11371TIP3   OH255603   6.305   6.754   3.515 -0.1444 -0.3770 -0.2162
11371TIP3    H155604   6.371   6.799   3.568 -0.0458 -1.7161  0.7994
11371TIP3    H255605   6.223   6.768   3.561 -0.0643 -1.5121  0.2894
11372TIP3   OH255606   0.863   5.864  16.893  0.1524 -0.3333 -0.2468
11372TIP3    H155607   0.775   5.892  16.920 -0.0340  0.9940 -2.0730
11372TIP3    H255608   0.906   5.945  16.866  1.1315 -1.2714 -1.5686
11373TIP3   OH255609   4.361   6.782   3.825  0.2215 -0.3228 -0.3043
11373TIP3    H155610   4.296   6.787   3.755  0.7017 -0.1237 -0.7377
11373TIP3    H255611   4.383   6.874   3.843 -0.1443 -0.3574  0.3379
11374TIP3   OH255612   4.820   1.224  10.770  0.6208 -0.4737  0.4517
11374TIP3    H155613   4.761   1.173  10.825 -0.1103 -0.2310 -0.0853
11374TIP3    H255614   4.786   1.212  10.681  1.3444 -0.2782  0.1412
11375TIP3   OH255615   4.994   1.851  14.664  0.0425  0.7751 -0.1984
11375TIP3    H155616   5.003   1.932  14.714 -1.1594  0.5623  0.3696
11375TIP3    H255617   5.071   1.799  14.688 -0.3252  0.8407  1.1195
11376TIP3   OH255618   2.456   1.429   5.476  0.5097  0.4564 -1.1817
11376TIP3    H155619   2.522   1.491   5.448  0.3954  1.5325  0.8368
11376TIP3    H255620   2.474   1.415   5.569 -0.3711 -1.4000 -1.2605
11377TIP3   OH255621   4.711   5.276  16.340  0.1026 -0.0300 -0.0043
11377TIP3    H155622   4.757   5.283  16.257 -0.2437  0.0149 -0.1919
11377TIP3    H255623   4.672   5.363  16.354 -1.0061 -0.4430 -0.4752
11378TIP3   OH255624   3.213   2.742  12.325  0.1367 -0.1878  0.0018
11378TIP3    H155625   3.171   2.662  12.294  0.0658 -0.5646  1.0545
11378TIP3    H255626   3.278   2.762  12.258 -2.0629  0.7120 -1.9085
11379TIP3   OH255627   6.323   6.104   3.077  0.2828 -0.0755  0.3008
11379TIP3    H155628   6.332   6.196   3.102 -0.8313  0.6430 -1.8882
11379TIP3    H255629   6.399   6.086   3.022  0.8898 -0.6932  1.3204
11380TIP3   OH255630   3.279   1.219   0.236 -0.6424  0.3823 -0.8989
11380TIP3    H155631   3.249   1.303   0.201  2.7118  2.2622  0.4624
11380TIP3    H255632   3.352   1.194   0.179  0.2701 -0.1132  0.4649
11381TIP3   OH255633   5.179   0.399   3.421  0.3791  0.0405  0.0786
11381TIP3    H155634   5.132   0.421   3.501 -0.5242 -2.3538  0.2319
11381TIP3    H255635   5.114   0.354   3.367  0.2405  3.7633 -3.0754
11382TIP3   OH255636   3.978   2.343   4.611  0.1009  0.1351 -0.0774
11382TIP3    H155637   4.035   2.269   4.627  0.9172  0.6293 -0.6462
11382TIP3    H255638   3.980   2.356   4.516 -2.8363 -1.3141 -0.4049
11383TIP3   OH255639   4.638   3.802  12.090 -0.2148  0.1259 -0.3347
11383TIP3    H155640   4.588   3.843  12.020 -1.6667 -1.8716 -0.5148
11383TIP3    H255641   4.626   3.708  12.076  1.6422 -0.3480  1.0397
11384TIP3   OH255642   6.091   6.184   0.342  0.0709 -0.2688  0.1661
11384TIP3    H155643   6.058   6.175   0.253 -0.0800  0.8990  0.0910
11384TIP3    H255644   6.013   6.178   0.397 -0.4142  3.0341 -0.0431
11385TIP3   OH255645   4.958   0.785  14.925  0.4381  0.2324 -0.1855
11385TIP3    H155646   4.897   0.720  14.890  1.2988 -1.0796  0.7014
11385TIP3    H255647   4.935   0.866  14.880 -2.3408 -0.0914  0.5489
11386TIP3   OH255648   0.573   2.595  16.024  0.3312 -0.2019 -0.3940
11386TIP3    H155649   0.606   2.556  16.105 -1.0719 -1.9200 -0.6361
11386TIP3    H255650   0.518   2.528  15.985 -0.4344  1.2608 -1.8982
11387TIP3   OH255651   2.743   3.396   3.800 -0.6677 -0.1533  0.3745
11387TIP3    H155652   2.797   3.326   3.836 -0.7323 -0.8047 -0.7555
11387TIP3    H255653   2.768   3.474   3.850  1.0304 -0.5240  0.1448
11388TIP3   OH255654   6.705   0.131   2.766 -0.0370 -0.1480  0.2325
11388TIP3    H155655   6.632   0.193   2.769 -0.1797 -0.3318  0.6372
11388TIP3    H255656   6.741   0.140   2.678 -1.5972 -1.2430 -0.5426
11389TIP3   OH255657   2.647   1.224   6.451  0.0397  0.1062 -0.5056
11389TIP3    H155658   2.696   1.279   6.512  0.4725  1.2874 -1.8944
11389TIP3    H255659   2.555   1.242   6.472  0.1473 -1.8378  1.8520
11390TIP3   OH255660   1.520   3.630   0.050  0.1739  0.0223  0.0038
11390TIP3    H155661   1.592   3.693   0.050  1.7555 -1.7139 -2.2388
11390TIP3    H255662   1.474   3.647  -0.032  0.1022 -1.1933 -0.2058
11391TIP3   OH255663   2.440   4.462   5.460 -0.2806 -0.1041 -0.0351
11391TIP3    H155664   2.418   4.442   5.551 -2.8852  2.1110 -0.1028
11391TIP3    H255665   2.356   4.474   5.417  0.9596  3.4273 -1.6599
11392TIP3   OH255666   5.822   2.763  12.341  0.6982  0.1899 -0.3820
11392TIP3    H155667   5.817   2.859  12.338  0.0130  0.2348  1.4880
11392TIP3    H255668   5.902   2.745  12.391  0.4088 -0.1956 -0.0540
11393TIP3   OH255669   2.142   6.375  11.356 -0.3023 -0.1667  0.0172
11393TIP3    H155670   2.221   6.389  11.303  0.1167  0.6523  0.8505
11393TIP3    H255671   2.106   6.463  11.369 -1.6897 -0.6004 -0.8728
11394TIP3   OH255672   5.084   2.952   4.958  0.3353 -0.0156 -0.0317
11394TIP3    H155673   5.156   2.892   4.939  1.0677  1.1959 -1.1566
11394TIP3    H255674   5.054   2.981   4.871  0.0572  1.3232  0.5009
11395TIP3   OH255675   0.537   2.078  12.450  0.2244  0.3841 -0.7386
11395TIP3    H155676   0.556   1.984  12.451  1.4709  0.6244  1.7295
11395TIP3    H255677   0.442   2.083  12.459  0.4915 -0.6667  4.1886
11396TIP3   OH255678   1.380   0.786  11.896 -0.1471  0.1695 -0.0729
11396TIP3    H155679   1.430   0.716  11.854  0.5449 -0.0065  1.0384
11396TIP3    H255680   1.324   0.820  11.826  2.0212  0.8602 -1.5220
11397TIP3   OH255681   0.289   2.451  15.977  0.5602 -0.4659  0.0299
11397TIP3    H155682   0.311   2.406  16.059  1.1917 -1.5338 -0.7175
11397TIP3    H255683   0.202   2.488  15.993  0.1111 -1.7950  0.7319
11398TIP3   OH255684   3.118   2.491   0.314  0.0210  0.2826 -0.1982
11398TIP3    H155685   3.077   2.419   0.362  1.1173 -0.7757 -0.8205
11398TIP3    H255686   3.094   2.570   0.363  2.6323 -0.9136  3.2214
11399TIP3   OH255687   4.049   4.941  16.989  0.4151 -0.5275 -0.0176
11399TIP3    H155688   4.071   5.001  17.060  1.9213  0.6447 -1.4205
11399TIP3    H255689   4.133   4.917  16.951 -0.1611 -3.5371  0.4604
11400TIP3   OH255690   4.053   5.774   2.618 -0.5090  0.1386  0.4449
11400TIP3    H155691   4.121   5.720   2.580 -1.5392 -0.1116 -1.0767
11400TIP3    H255692   3.983   5.712   2.640 -0.7931  0.5709  0.7714
11401TIP3   OH255693   2.199   4.536  14.922  0.3523  0.1073 -0.3471
11401TIP3    H155694   2.284   4.493  14.927 -0.7492 -1.9199  2.0953
11401TIP3    H255695   2.181   4.565  15.012 -1.7095  0.0993 -0.7298
11402TIP3   OH255696   0.348   5.997  12.009  0.1410  0.2928  0.0338
11402TIP3    H155697   0.263   5.978  11.969  1.0439  0.7903 -2.1382
11402TIP3    H255698   0.339   6.085  12.046 -1.0459 -0.5967  1.9883
11403TIP3   OH255699   3.838   4.405   4.049 -0.3574  0.4244  0.1428
11403TIP3    H155700   3.804   4.322   4.083  0.4386 -0.7633 -1.8698
11403TIP3    H255701   3.854   4.458   4.127 -1.6274 -1.0078  1.4203
11404TIP3   OH255702   2.246   5.838   0.646  0.1504 -0.3174  0.1484
11404TIP3    H155703   2.279   5.752   0.672 -3.1782 -1.2252  1.5656
11404TIP3    H255704   2.209   5.824   0.558  1.6185  0.2174 -0.5689
11405TIP3   OH255705   4.188   6.201  12.796  0.1912  0.3058 -0.4979
11405TIP3    H155706   4.253   6.146  12.752  0.8180 -0.2578  1.0977
11405TIP3    H255707   4.188   6.283  12.746  0.3624 -0.5744 -1.9674
11406TIP3   OH255708   5.578   2.594  11.686  0.3955 -0.0307  0.6103
11406TIP3    H155709   5.639   2.617  11.756 -0.0535 -0.2196  1.0628
11406TIP3    H255710   5.626   2.531  11.633  0.6277 -0.1115  0.9121
11407TIP3   OH255711   0.246   3.392  11.311  0.0864  0.5467  0.4710
11407TIP3    H155712   0.258   3.335  11.235  1.0910  0.2786  0.8374
11407TIP3    H255713   0.197   3.467  11.276 -0.2647 -0.0058 -0.2388
11408TIP3   OH255714   5.089   0.707  14.467 -0.0066  0.0586  0.4446
11408TIP3    H155715   5.023   0.644  14.498  0.1724 -0.6993 -0.6800
11408TIP3    H255716   5.165   0.691  14.523  0.3416 -1.3640 -0.3915
11409TIP3   OH255717   5.466   2.836  13.182  0.0346 -0.2935 -0.6084
11409TIP3    H155718   5.381   2.820  13.141  0.7607 -1.9402 -1.5030
11409TIP3    H255719   5.520   2.871  13.111  0.3792 -0.1067 -0.2548
11410TIP3   OH255720   4.265   5.528   4.750 -0.5454  0.1630  0.2521
11410TIP3    H155721   4.234   5.581   4.677 -2.6283  0.3135  1.2121
11410TIP3    H255722   4.213   5.447   4.745  0.9130 -0.8038  0.2211
11411TIP3   OH255723   6.253   4.539  10.910 -0.0968  0.0698  0.4840
11411TIP3    H155724   6.243   4.568  10.820 -2.9190  0.4089  0.8829
11411TIP3    H255725   6.278   4.446  10.903 -0.0112  0.1732 -0.6162
11412TIP3   OH255726   5.326   5.773   2.395 -0.0466  0.4850  0.3990
11412TIP3    H155727   5.386   5.741   2.463  0.5050  1.3392  0.3355
11412TIP3    H255728   5.375   5.763   2.313  0.0815  1.3116  0.3620
11413TIP3   OH255729   5.100   0.029  16.950 -0.0878  0.5318 -0.3801
11413TIP3    H155730   5.095   0.115  16.992 -0.9903  2.2754 -3.8223
11413TIP3    H255731   5.011  -0.005  16.952  0.0376  0.2196 -0.0844
11414TIP3   OH255732   5.549   1.475  16.978  0.1645 -0.1747  0.4480
11414TIP3    H155733   5.564   1.558  17.023  1.8066 -1.0886  1.6783
11414TIP3    H255734   5.623   1.467  16.917 -0.3399 -0.4289 -0.1390
11415TIP3   OH255735   0.598   0.280  11.073  0.6875 -0.4253  0.3378
11415TIP3    H155736   0.646   0.271  11.155 -0.3138  1.5536  1.1776
11415TIP3    H255737   0.541   0.203  11.071  0.3393 -0.2324  1.7772
11416TIP3   OH255738   1.821   3.615  15.147  0.0042 -0.1293 -0.4881
11416TIP3    H155739   1.781   3.694  15.110  0.0226  0.6619  1.1375
11416TIP3    H255740   1.747   3.558  15.167 -0.0519 -0.2686 -1.0875
11417TIP3   OH255741   0.882   6.604   4.634 -0.8308  0.1430 -0.3913
11417TIP3    H155742   0.816   6.590   4.701 -2.6856 -0.1409 -2.2327
11417TIP3    H255743   0.912   6.694   4.648 -0.3796 -0.2735  1.4759
11418TIP3   OH255744   2.846   0.223  15.327 -0.0577  0.4064  0.7074
11418TIP3    H155745   2.867   0.304  15.281  1.0251 -1.5700 -2.4274
11418TIP3    H255746   2.919   0.209  15.387  0.0060  1.4626  0.8748
11419TIP3   OH255747   4.443   1.649   5.678  0.4751  0.2768  0.5822
11419TIP3    H155748   4.391   1.641   5.758  1.9520  1.3926  1.6739
11419TIP3    H255749   4.399   1.592   5.615 -0.4651 -0.9311  2.3024
11420TIP3   OH255750   4.836   4.886  12.093 -0.0510  0.1900 -0.2328
11420TIP3    H155751   4.742   4.904  12.095 -0.6966 -3.0316 -0.2291
11420TIP3    H255752   4.868   4.920  12.177 -1.0927  1.6511 -0.3889
11421TIP3   OH255753   6.273   3.104   2.218 -0.2639 -0.3137  0.3964
11421TIP3    H155754   6.251   3.192   2.186  0.2296  0.0804  1.1103
11421TIP3    H255755   6.355   3.082   2.173 -0.9045 -0.8139 -0.5191
11422TIP3   OH255756   1.152   6.126  13.063  0.5245 -0.3099 -0.2084
11422TIP3    H155757   1.177   6.134  13.155  0.4265 -0.5430 -0.1609
11422TIP3    H255758   1.208   6.189  13.017 -0.3466  0.7474  0.1696
11423TIP3   OH255759   0.763   4.326  15.769  0.3032  0.2611  0.0430
11423TIP3    H155760   0.683   4.276  15.784  0.7464 -0.8831 -1.4046
11423TIP3    H255761   0.735   4.399  15.714  0.0498  0.5040  0.4846
11424TIP3   OH255762   5.139   1.068   3.145 -0.2226 -0.4137 -0.0376
11424TIP3    H155763   5.173   1.010   3.214 -2.0525 -2.8830 -1.1005
11424TIP3    H255764   5.165   1.156   3.172  2.7742 -1.7201  1.5847
11425TIP3   OH255765   0.867   2.590   0.779  0.4199  0.4222 -0.3973
11425TIP3    H155766   0.940   2.548   0.824 -0.1028  0.8776  0.9088
11425TIP3    H255767   0.807   2.519   0.759 -0.7109  0.5657  2.2870
11426TIP3   OH255768   5.411   5.548   4.564  0.4165 -0.2567 -0.0584
11426TIP3    H155769   5.346   5.603   4.521  0.8260 -0.1427 -0.5379
11426TIP3    H255770   5.458   5.607   4.622  0.8752 -0.0981 -0.5943
11427TIP3   OH255771   4.215   0.195   1.782 -0.1681  0.7391 -0.1206
11427TIP3    H155772   4.250   0.160   1.700  0.7628  1.1238  0.1055
11427TIP3    H255773   4.256   0.141   1.850 -2.0428 -0.5308  0.0468
11428TIP3   OH255774   5.801   0.247   4.002  0.0809  0.3812 -0.1770
11428TIP3    H155775   5.711   0.264   3.972  0.1340 -0.2005 -0.6843
11428TIP3    H255776   5.792   0.236   4.096 -0.2060  1.4725 -0.0699
11429TIP3   OH255777   5.911   4.999   1.576 -0.0633 -0.5958 -0.3151
11429TIP3    H155778   5.916   5.071   1.514 -2.3344 -0.9467 -0.9488
11429TIP3    H255779   5.983   5.015   1.637 -0.5785  2.2554 -0.3886
11430TIP3   OH255780   4.777   4.476  16.678 -0.9287 -0.2231  0.4291
11430TIP3    H155781   4.805   4.428  16.600 -2.8719  0.3262 -0.6353
11430TIP3    H255782   4.859   4.501  16.722  0.1790 -0.8154 -1.2622
11431TIP3   OH255783   6.456   4.539   5.675  0.2668 -0.7283 -0.0384
11431TIP3    H155784   6.413   4.503   5.753  0.8478  0.2705  0.7685
11431TIP3    H255785   6.386   4.580   5.625 -0.0652 -1.0717  0.1464
11432TIP3   OH255786   4.780   2.221   5.063 -0.0150  0.7316  0.3112
11432TIP3    H155787   4.873   2.226   5.043 -0.2862 -1.6712 -1.7604
11432TIP3    H255788   4.736   2.236   4.979 -1.4902  1.3358  1.1654
11433TIP3   OH255789   5.391   6.274   3.472  0.2882  0.2186  0.1775
11433TIP3    H155790   5.304   6.314   3.465  1.0896  1.8366 -0.7664
11433TIP3    H255791   5.441   6.334   3.527  1.1687 -0.0970 -0.2680
11434TIP3   OH255792   4.160   1.988   1.186 -0.4912  0.6904 -0.5431
11434TIP3    H155793   4.199   1.980   1.273  1.1970 -2.7535 -1.4908
11434TIP3    H255794   4.080   1.936   1.191 -0.2400  0.2392 -1.0868
11435TIP3   OH255795   3.127   2.890  11.385  0.1393  0.3023 -0.1456
11435TIP3    H155796   3.089   2.819  11.334  1.1307  0.0108 -0.4994
11435TIP3    H255797   3.100   2.872  11.475  0.5300 -0.6304 -0.2031
11436TIP3   OH255798   4.840   3.974  12.348 -0.0754 -0.0407  0.2478
11436TIP3    H155799   4.903   3.901  12.346  0.3246  0.3244 -2.7153
11436TIP3    H255800   4.887   4.045  12.392 -0.5445 -1.6069  3.3553
11437TIP3   OH255801   5.964   6.792  14.405  0.0755 -0.1654 -0.7957
11437TIP3    H155802   5.894   6.815  14.467  1.3462 -0.1593  0.6785
11437TIP3    H255803   6.036   6.851  14.428 -0.4476  2.0251 -4.3419
11438TIP3   OH255804   2.047   0.461  12.023 -0.0568  0.3436 -0.1927
11438TIP3    H155805   2.041   0.422  12.110  0.0728  1.0622  0.1413
11438TIP3    H255806   2.068   0.387  11.965 -2.9492 -0.6723 -0.0544
11439TIP3   OH255807   2.611   0.503   0.260 -0.5036 -0.3766 -0.5985
11439TIP3    H155808   2.673   0.430   0.253  2.7851  2.1758  0.8102
11439TIP3    H255809   2.616   0.530   0.352 -1.8096  1.5168 -1.0519
11440TIP3   OH255810   4.222   1.626  12.524  0.1099  0.0194  0.0332
11440TIP3    H155811   4.127   1.632  12.527  0.1348 -0.1251  1.7206
11440TIP3    H255812   4.251   1.714  12.501 -0.4756 -0.2969 -1.9731
11441TIP3   OH255813   5.514   5.351   3.761  0.0630 -0.0948  0.4502
11441TIP3    H155814   5.464   5.428   3.737 -1.1081 -1.2817 -0.9665
11441TIP3    H255815   5.576   5.383   3.827 -0.5423  1.9935  0.0507
11442TIP3   OH255816   3.946   5.652   3.764 -0.2728  0.3668  1.1458
11442TIP3    H155817   4.040   5.633   3.753 -0.1593  0.5941  1.6811
11442TIP3    H255818   3.942   5.705   3.844 -0.9282 -0.2256  1.5136
11443TIP3   OH255819   4.993   5.265  11.583  0.6316  0.6847  0.2386
11443TIP3    H155820   4.915   5.239  11.632  1.7111 -2.0464  0.6167
11443TIP3    H255821   5.051   5.304  11.648 -0.0164  1.7911  0.1490
11444TIP3   OH255822   5.328   2.021  10.734  0.0840 -0.0770  0.5826
11444TIP3    H155823   5.370   2.028  10.649  1.1738  0.2090  1.1407
11444TIP3    H255824   5.299   1.930  10.740 -1.0094  0.1826 -0.5548
11445TIP3   OH255825   5.615   0.215  17.053  0.9777  0.2819 -0.5986
11445TIP3    H155826   5.613   0.305  17.019 -0.1534  0.5870  0.2661
11445TIP3    H255827   5.539   0.209  17.111  0.5328 -1.5007 -1.3265
11446TIP3   OH255828   0.999   0.213   5.382  0.2147 -0.0467  0.0842
11446TIP3    H155829   1.004   0.118   5.372 -0.5501  0.0290 -1.2763
11446TIP3    H255830   0.978   0.245   5.293 -0.1637  1.3288  0.6496
11447TIP3   OH255831   5.719   3.760  17.205 -0.0904  0.4641  0.2134
11447TIP3    H155832   5.739   3.694  17.271 -1.5849 -0.2948 -0.0690
11447TIP3    H255833   5.805   3.795  17.180  0.5700  0.0499  1.8039
11448TIP3   OH255834   0.048   5.369  13.508 -0.8016  0.0929  0.3322
11448TIP3    H155835   0.124   5.397  13.457 -1.1821  1.1130  0.2993
11448TIP3    H255836  -0.027   5.382  13.449 -0.9311 -1.4972  0.1498
11449TIP3   OH255837   3.621   5.701   6.397 -0.3020 -0.1622  0.3493
11449TIP3    H155838   3.693   5.763   6.385 -1.0943  0.4733 -1.2369
11449TIP3    H255839   3.597   5.710   6.489  0.6164  0.7646  0.5092
11450TIP3   OH255840   3.165   1.840   5.451  0.0141  0.3272  0.4869
11450TIP3    H155841   3.152   1.809   5.361  1.2277  3.1231 -0.6911
11450TIP3    H255842   3.162   1.760   5.504 -1.4293 -1.3000 -1.9316
11451TIP3   OH255843   3.548   2.114  11.515  0.4412 -0.0061  0.0279
11451TIP3    H155844   3.524   2.198  11.475  0.3132  0.1537  0.4330
11451TIP3    H255845   3.631   2.090  11.473 -0.0349 -0.1832 -0.8337
11452TIP3   OH255846   5.475   1.813   5.316 -0.1027  0.3793  0.0589
11452TIP3    H155847   5.560   1.793   5.275  0.1424  0.6126  0.4450
11452TIP3    H255848   5.427   1.860   5.248  0.1912  0.5029 -0.0674
11453TIP3   OH255849   1.228   3.574  15.188 -0.0889  0.6139  0.2455
11453TIP3    H155850   1.234   3.669  15.180  1.4387  0.3465 -2.0985
11453TIP3    H255851   1.194   3.545  15.103  1.2081 -1.0851  0.2957
11454TIP3   OH255852   3.469   2.040   1.212  0.6919  0.1950 -0.2837
11454TIP3    H155853   3.417   1.961   1.231 -1.8878  1.1380 -3.0355
11454TIP3    H255854   3.541   2.009   1.159  0.2855 -0.4644 -0.4602
11455TIP3   OH255855   4.937   5.231   2.559 -0.0320  0.2509 -0.6325
11455TIP3    H155856   4.907   5.279   2.482 -0.2071 -1.0983 -1.4370
11455TIP3    H255857   5.018   5.188   2.531 -1.2975 -2.1099 -0.8338
11456TIP3   OH255858   3.447   6.342   3.942 -0.0656  1.0683 -0.5790
11456TIP3    H155859   3.453   6.337   3.846  0.0085  3.2471 -0.6966
11456TIP3    H255860   3.500   6.418   3.966 -0.8959  1.1263  1.1260
11457TIP3   OH255861   0.011   5.608   4.214  0.1436 -0.3648 -0.4950
11457TIP3    H155862   0.021   5.701   4.234 -0.1835  0.0750 -2.2067
11457TIP3    H255863   0.002   5.565   4.299  0.1303  1.1926  0.3054
11458TIP3   OH255864   2.392   4.730   3.637 -0.1637 -0.2614 -0.1475
11458TIP3    H155865   2.411   4.701   3.726 -1.5340  0.6514  0.4678
11458TIP3    H255866   2.424   4.820   3.634 -0.3917 -0.1915 -0.4900
11459TIP3   OH255867   6.753   3.664   5.391 -0.0522  0.2008 -0.7191
11459TIP3    H155868   6.806   3.615   5.328 -0.9930 -0.5375 -0.9658
11459TIP3    H255869   6.815   3.698   5.454  0.4695 -3.4217  0.8824
11460TIP3   OH255870   1.666   4.033   1.297  0.1769 -0.0077  0.1058
11460TIP3    H155871   1.608   4.073   1.361  2.3089  2.9956  0.2842
11460TIP3    H255872   1.734   3.990   1.348  1.0116  1.0450 -0.0957
11461TIP3   OH255873   2.065   4.823   6.498  0.3347  0.4222  0.4710
11461TIP3    H155874   2.145   4.847   6.544 -0.0194  0.9960  0.7957
11461TIP3    H255875   1.997   4.826   6.565  0.3398 -1.9352  0.6135
11462TIP3   OH255876   3.825   5.991  11.581 -0.3373 -0.1217  0.9674
11462TIP3    H155877   3.845   5.916  11.636  1.2679  1.1542  2.1939
11462TIP3    H255878   3.731   6.005  11.592 -0.5887 -1.7487  0.9629
11463TIP3   OH255879   1.113   3.841   3.362  0.2986  0.2670  0.6216
11463TIP3    H155880   1.182   3.879   3.418  1.2252 -0.2343 -0.1751
11463TIP3    H255881   1.087   3.761   3.407  1.3608 -0.3688  0.1091
11464TIP3   OH255882   5.984   0.629   3.249  0.1343 -0.2788  0.1364
11464TIP3    H155883   5.984   0.603   3.157  0.8168  0.6422 -0.1241
11464TIP3    H255884   6.074   0.616   3.277  0.4785  1.7461  0.0213
11465TIP3   OH255885   0.304   4.037   5.357 -0.0163 -0.5034  0.0279
11465TIP3    H155886   0.275   4.115   5.309 -1.2487 -0.5905  0.5832
11465TIP3    H255887   0.230   3.977   5.351  0.1723 -0.8775  1.2216
11466TIP3   OH255888   3.945   5.699  16.177 -0.4186  0.1300  0.2111
11466TIP3    H155889   3.894   5.619  16.162 -2.9206  1.5667  0.8295
11466TIP3    H255890   4.020   5.670  16.229 -0.0852 -2.1786 -1.4640
11467TIP3   OH255891   4.937   5.614   6.006 -0.0259 -0.1218 -0.0742
11467TIP3    H155892   4.977   5.542   6.057 -0.4110 -1.5649 -1.7695
11467TIP3    H255893   5.010   5.672   5.986  0.2599  0.0993  1.4946
11468TIP3   OH255894   0.234   1.041  16.202  0.1781  0.1945  0.0562
11468TIP3    H155895   0.218   0.948  16.219 -0.6233  0.4476  0.7096
11468TIP3    H255896   0.265   1.044  16.112  0.2186 -0.7113  0.0399
11469TIP3   OH255897   2.286   0.512  14.038  0.2048  0.4962 -0.1148
11469TIP3    H155898   2.366   0.520  13.986 -1.0604  0.4065 -2.1307
11469TIP3    H255899   2.246   0.599  14.034 -0.9622 -0.0705 -1.0843
11470TIP3   OH255900   4.239   6.339   0.050 -0.1182  0.3867 -0.3514
11470TIP3    H155901   4.230   6.246   0.069 -0.4585  0.0256 -2.1697
11470TIP3    H255902   4.160   6.361  -0.001 -0.9729  2.1026  1.6488
11471TIP3   OH255903   1.269   4.044   0.514  1.0929  0.1558  0.0550
11471TIP3    H155904   1.196   3.994   0.477  0.4141  0.7976  0.5013
11471TIP3    H255905   1.345   3.987   0.503  0.6347 -0.2784 -0.9572
11472TIP3   OH255906   6.582   1.590  11.735 -1.3760  0.2911 -0.1488
11472TIP3    H155907   6.542   1.662  11.784 -0.0865  0.7094  0.3130
11472TIP3    H255908   6.518   1.567  11.668 -2.3423  1.0000  0.5307
11473TIP3   OH255909   3.143   2.799  11.947  0.0327  0.0653 -0.2894
11473TIP3    H155910   3.071   2.747  11.912  0.3797  0.4642 -1.5955
11473TIP3    H255911   3.203   2.734  11.985 -0.3164 -0.3679 -0.4767
11474TIP3   OH255912   2.198   1.087  11.374 -0.1957 -0.2939  0.2618
11474TIP3    H155913   2.203   1.181  11.356 -3.4310 -0.1787 -0.2975
11474TIP3    H255914   2.167   1.049  11.293  2.4683 -2.0857  0.0265
11475TIP3   OH255915   0.808   3.063   4.994 -0.4245 -0.6815  0.0936
11475TIP3    H155916   0.883   3.046   5.050  1.3844 -1.3788 -2.4535
11475TIP3    H255917   0.801   3.159   4.992  1.5830 -0.5359 -1.1111
11476TIP3   OH255918   0.600   5.889   5.041 -0.4561 -0.2434  0.6637
11476TIP3    H155919   0.693   5.879   5.021  0.0428  0.9414  2.2838
11476TIP3    H255920   0.562   5.803   5.021  1.1716 -1.0528  0.9465
11477TIP3   OH255921   6.474   3.534  15.874 -0.1593 -0.2658  0.5651
11477TIP3    H155922   6.550   3.553  15.819  0.6645 -2.1531  1.0104
11477TIP3    H255923   6.405   3.510  15.813  0.4980 -1.4922  0.2915
11478TIP3   OH255924   1.846   5.395  14.239 -0.0099  0.3554 -0.6831
11478TIP3    H155925   1.765   5.350  14.215 -0.5474  1.3819 -0.8132
11478TIP3    H255926   1.820   5.486  14.255  1.0109  0.5657 -0.1291
11479TIP3   OH255927   1.777   2.419   6.533 -0.0048 -0.4605 -0.6301
11479TIP3    H155928   1.804   2.438   6.443  0.4459 -1.5203 -0.7261
11479TIP3    H255929   1.802   2.497   6.582  0.5577 -0.2373 -1.2653
11480TIP3   OH255930   0.683   3.115   5.334 -0.3766 -0.2802  0.4589
11480TIP3    H155931   0.594   3.083   5.341 -0.3533 -0.2876  0.6995
11480TIP3    H255932   0.706   3.145   5.422  0.3482 -1.5692  0.7163
11481TIP3   OH255933   1.985   2.833   2.592 -0.0170  0.5130 -0.3795
11481TIP3    H155934   1.979   2.914   2.541  0.7570  2.3127  2.3121
11481TIP3    H255935   1.895   2.800   2.594 -0.3311  1.2728 -1.5358
11482TIP3   OH255936   6.389   4.593  17.144  0.2706  0.2989 -0.1625
11482TIP3    H155937   6.382   4.508  17.188 -0.1050  0.9425  1.0447
11482TIP3    H255938   6.446   4.577  17.069  0.5802 -0.9101  0.3259
11483TIP3   OH255939   3.147   5.247   5.754  1.2121  0.2795 -0.0731
11483TIP3    H155940   3.209   5.320   5.750 -0.9067  2.1502  0.1775
11483TIP3    H255941   3.066   5.286   5.787 -0.6354 -1.7217 -2.0485
11484TIP3   OH255942   6.196   4.947  14.552  0.0355 -0.1539 -0.1196
11484TIP3    H155943   6.285   4.945  14.515  0.7517 -0.1650  1.5792
11484TIP3    H255944   6.140   4.920  14.479  1.6457 -2.4609 -0.5548
11485TIP3   OH255945   3.975   5.332   0.505 -0.2262 -0.0360  0.3128
11485TIP3    H155946   3.944   5.247   0.535 -1.1993  0.8043  1.7194
11485TIP3    H255947   3.925   5.349   0.425 -1.8464  0.3285  1.3846
11486TIP3   OH255948   2.820   4.533  15.067 -0.0639  0.3962  0.0622
11486TIP3    H155949   2.892   4.522  15.005  0.8325 -1.2241  1.3454
11486TIP3    H255950   2.778   4.448  15.071 -0.5577  0.6842  1.1522
11487TIP3   OH255951   5.762   5.735  16.634  0.3636 -0.1531 -0.9023
11487TIP3    H155952   5.797   5.647  16.622  1.1197  0.1344 -0.7938
11487TIP3    H255953   5.839   5.793  16.635  0.0864  0.2337  1.6797
11488TIP3   OH255954   4.121   0.784   5.335 -0.0324 -0.2306  0.0783
11488TIP3    H155955   4.099   0.869   5.374 -0.4588  0.1840 -1.0375
11488TIP3    H255956   4.101   0.720   5.403 -1.8050  0.3880  0.1648
11489TIP3   OH255957   6.646   1.110  15.669  0.0000 -0.2070  0.4078
11489TIP3    H155958   6.704   1.053  15.618 -1.2677  0.3282 -1.6879
11489TIP3    H255959   6.590   1.050  15.719  0.9277 -0.7364  0.8270
11490TIP3   OH255960   4.186   0.124   5.697 -0.1338  0.2491 -0.0650
11490TIP3    H155961   4.255   0.165   5.750  0.4687  1.2588 -1.6195
11490TIP3    H255962   4.180   0.178   5.619 -2.5518  0.0366 -0.0604
11491TIP3   OH255963   3.060   1.859  17.186  0.0206  0.0185 -0.0749
11491TIP3    H155964   3.057   1.898  17.273  0.6075 -1.3542  0.5772
11491TIP3    H255965   3.141   1.808  17.185  0.5433  0.8612 -1.7973
11492TIP3   OH255966   6.308   1.454   1.394  0.3452  0.2503 -0.6431
11492TIP3    H155967   6.361   1.375   1.407  1.2839  0.8675 -0.6390
11492TIP3    H255968   6.222   1.431   1.428  1.4080  0.2028  2.1562
11493TIP3   OH255969   1.995   3.248  14.135 -0.6888 -0.7882 -0.6868
11493TIP3    H155970   1.923   3.186  14.138 -2.3612  1.1390 -0.3554
11493TIP3    H255971   1.983   3.295  14.052  0.8888 -1.2583 -1.2104
11494TIP3   OH255972   0.556   2.403  16.207  0.3749 -0.4351 -0.3332
11494TIP3    H155973   0.624   2.454  16.251 -0.4077  1.2727 -1.0314
11494TIP3    H255974   0.479   2.411  16.263  0.7650 -2.4900  0.5327
11495TIP3   OH255975   2.846   6.425   0.559  0.4199  0.1138  0.1228
11495TIP3    H155976   2.838   6.509   0.514  0.2957  0.1531  0.2189
11495TIP3    H255977   2.773   6.372   0.526  1.0073 -0.2569 -0.5942
11496TIP3   OH255978   6.016   4.954  15.443  0.5513 -0.1872  0.3616
11496TIP3    H155979   6.012   4.919  15.354 -0.4011  2.7068 -0.8191
11496TIP3    H255980   5.945   4.911  15.490 -0.8490  0.4282 -1.1605
11497TIP3   OH255981   2.079   3.575   4.812  0.3969 -0.0731 -0.0460
11497TIP3    H155982   2.044   3.556   4.900  0.5794 -2.5085 -0.4644
11497TIP3    H255983   2.002   3.569   4.755  0.6289 -0.4773 -0.3124
11498TIP3   OH255984   2.453   1.121  13.257  0.0121 -0.2401 -0.1771
11498TIP3    H155985   2.511   1.137  13.331 -0.7752  0.4194  0.2998
11498TIP3    H255986   2.507   1.071  13.195  0.9005 -0.1471  0.5121
11499TIP3   OH255987   3.907   3.304  10.480 -0.4188  0.6414 -0.1295
11499TIP3    H155988   3.827   3.305  10.427  0.8744  0.8330 -2.1140
11499TIP3    H255989   3.944   3.392  10.469 -0.1013  0.6676  1.0754
11500TIP3   OH255990   4.796   5.414   3.577 -0.2286  0.5379  0.5073
11500TIP3    H155991   4.721   5.436   3.523  0.9828  0.5752 -1.1967
11500TIP3    H255992   4.871   5.423   3.519  0.7871 -3.0921  1.1004
11501TIP3   OH255993   0.537   1.332  17.275 -0.2696 -0.5402 -0.0843
11501TIP3    H155994   0.624   1.365  17.299 -1.1624  1.9879 -0.1698
11501TIP3    H255995   0.550   1.292  17.189  0.5931  0.9072 -0.6546
11502TIP3   OH255996   2.515   5.548  16.191 -0.3859  0.0086  0.0153
11502TIP3    H155997   2.456   5.543  16.266 -2.6639 -1.4000 -1.8176
11502TIP3    H255998   2.539   5.457  16.173 -0.7113  0.2229 -1.5940
11503TIP3   OH255999   3.604   5.940   4.952 -0.0825  0.4092 -0.3120
11503TIP3    H156000   3.535   5.982   4.902 -0.3106  1.0338  0.5170
11503TIP3    H256001   3.686   5.971   4.913 -0.2533 -1.2571 -2.0624
11504TIP3   OH256002   2.888   5.884   4.411  0.4014 -0.3335  0.2291
11504TIP3    H156003   2.800   5.899   4.446  0.2406 -0.4588 -0.1056
11504TIP3    H256004   2.896   5.947   4.339  1.3316  0.9902  1.4862
11505TIP3   OH256005   6.501   1.288  14.620  0.5538 -0.2918 -0.1270
11505TIP3    H156006   6.425   1.299  14.563  0.7632 -0.9946 -0.5459
11505TIP3    H256007   6.576   1.283  14.560  0.8423 -0.4572  0.2428
11506TIP3   OH256008   3.650   6.426  11.149 -0.1993  0.1715 -0.2073
11506TIP3    H156009   3.644   6.386  11.063  1.8591 -0.0612 -0.2721
11506TIP3    H256010   3.701   6.506  11.136 -0.3959  0.4582  0.6863
11507TIP3   OH256011   5.969   0.993  16.373  0.3142 -0.0452  0.0407
11507TIP3    H156012   5.963   0.904  16.406  0.7848 -0.1261 -0.0935
11507TIP3    H256013   6.054   0.998  16.330  0.1476  0.3668 -0.2528
11508TIP3   OH256014   6.045   5.716   4.909  0.0926  0.2383 -0.3129
11508TIP3    H156015   6.050   5.801   4.863  1.8881  0.7112  0.6982
11508TIP3    H256016   6.130   5.708   4.952 -0.5912 -1.4459  0.7468
11509TIP3   OH256017   3.483   3.153   0.485  0.3469  0.1539  0.0855
11509TIP3    H156018   3.562   3.100   0.479  0.4709  0.1691  1.4281
11509TIP3    H256019   3.512   3.236   0.522 -0.3740 -0.0197  1.0620
11510TIP3   OH256020   0.142   3.137  16.456 -0.4890  0.2516 -0.1952
11510TIP3    H156021   0.112   3.152  16.545 -0.1394  0.9863 -0.2006
11510TIP3    H256022   0.086   3.066  16.423 -1.2412  0.6255  0.2831
11511TIP3   OH256023   4.176   2.652   3.880  0.1263  0.0580  0.3418
11511TIP3    H156024   4.222   2.734   3.865  1.3171 -0.4506  1.1212
11511TIP3    H256025   4.191   2.633   3.973 -2.2122  0.2109  0.7868
11512TIP3   OH256026   6.205   5.399   4.078  0.6220 -0.1410  0.3227
11512TIP3    H156027   6.285   5.346   4.069 -0.2739 -1.5795  0.6497
11512TIP3    H256028   6.178   5.416   3.987  1.4175  0.5348  0.2090
11513TIP3   OH256029   6.438   1.474  13.185  0.1496 -0.6241 -0.1059
11513TIP3    H156030   6.512   1.423  13.153  0.1642  0.5197 -2.0028
11513TIP3    H256031   6.360   1.425  13.158  0.1853 -0.3189 -0.7786
11514TIP3   OH256032   6.120   6.736  16.273 -0.0426  0.2302  0.3218
11514TIP3    H156033   6.063   6.737  16.196 -0.5954 -1.5650  0.6774
11514TIP3    H256034   6.068   6.778  16.342  0.7024  2.4354 -0.4209
11515TIP3   OH256035   6.598   3.419  16.742  0.4591 -0.5709  0.5417
11515TIP3    H156036   6.629   3.356  16.807 -0.9461  0.5337  2.3368
11515TIP3    H256037   6.558   3.365  16.674  0.4763 -1.6926  1.3976
11516TIP3   OH256038   5.694   6.700   6.177 -0.5661 -0.2716  0.3441
11516TIP3    H156039   5.700   6.610   6.144  0.4045  0.0884 -0.4579
11516TIP3    H256040   5.627   6.695   6.245 -1.0726 -1.4514 -0.2188
11517TIP3   OH256041   0.175   5.632   0.486  0.0921  0.0565  0.3393
11517TIP3    H156042   0.260   5.588   0.490  0.0654  0.1016  1.6655
11517TIP3    H256043   0.139   5.622   0.574 -0.6326  1.3170  0.1992
11518TIP3   OH256044   5.695   5.875   5.318  0.0911  0.1071 -0.2011
11518TIP3    H156045   5.779   5.831   5.334 -0.5764 -0.1844  2.8255
11518TIP3    H256046   5.697   5.952   5.375 -0.7122  1.4365 -1.9445
11519TIP3   OH256047   1.702   1.854   1.964  0.3565 -0.1112 -0.2805
11519TIP3    H156048   1.774   1.869   1.903 -1.2229 -0.0467 -2.1581
11519TIP3    H256049   1.664   1.941   1.978  0.6263 -0.1439  0.7104
11520TIP3   OH256050   6.806   5.479  11.203 -0.2861 -0.1233  0.2639
11520TIP3    H156051   6.797   5.447  11.113  1.1237  0.7243 -0.1895
11520TIP3    H256052   6.836   5.570  11.193 -2.7705  0.8874  1.5468
11521TIP3   OH256053   3.881   4.757   0.920 -0.3381 -0.2907  0.0841
11521TIP3    H156054   3.848   4.742   1.008  0.3265  1.2028  0.5948
11521TIP3    H256055   3.973   4.729   0.923  0.1370  1.2974  0.3030
11522TIP3   OH256056   1.798   6.490   3.224  0.1293  0.2830 -0.0157
11522TIP3    H156057   1.780   6.436   3.147  2.2408 -1.2349  0.4892
11522TIP3    H256058   1.761   6.576   3.203 -1.4584 -0.7731 -1.7053
11523TIP3   OH256059   0.651   1.896  10.965 -0.0643 -0.2970 -0.1877
11523TIP3    H156060   0.602   1.978  10.955  1.3732  0.5050 -0.7439
11523TIP3    H256061   0.678   1.895  11.057 -0.0701 -0.1373 -0.1842
11524TIP3   OH256062   5.127   4.533   3.705 -0.1327 -0.3581 -0.1304
11524TIP3    H156063   5.032   4.543   3.710 -0.3015 -2.1925  0.4101
11524TIP3    H256064   5.141   4.445   3.671  1.4046 -0.7946  1.5882
11525TIP3   OH256065   3.198   3.825   3.563 -0.4810 -0.2359 -0.9833
11525TIP3    H156066   3.218   3.740   3.523 -0.1476  0.1785 -1.6989
11525TIP3    H256067   3.142   3.869   3.499 -0.0467  0.3830 -0.9334
11526TIP3   OH256068   2.700   0.621   1.418  0.2254 -0.3807 -0.0030
11526TIP3    H156069   2.673   0.558   1.351  0.6590  0.0702 -0.6167
11526TIP3    H256070   2.664   0.704   1.387  0.3658 -0.1811  0.3690
11527TIP3   OH256071   1.677   6.479   2.536  0.1570  0.1093 -0.4737
11527TIP3    H156072   1.655   6.449   2.448  1.1855  0.9889 -1.0465
11527TIP3    H256073   1.594   6.481   2.583 -0.3937 -0.3914 -1.4204
11528TIP3   OH256074   5.646   4.964  11.949  0.0075  0.0097 -0.2999
11528TIP3    H156075   5.595   4.976  12.029 -0.3327  0.6006 -0.5929
11528TIP3    H256076   5.698   5.044  11.942  0.5534 -0.3469 -0.3005
11529TIP3   OH256077   3.836   2.999   0.032 -0.0896  0.2587 -0.8649
11529TIP3    H156078   3.889   2.998   0.112  0.3231  1.4817 -1.1086
11529TIP3    H256079   3.865   2.922  -0.017  0.6028  0.2489 -0.4370
11530TIP3   OH256080   3.083   1.214  16.927  0.3003  0.8431 -0.4001
11530TIP3    H156081   3.133   1.134  16.907 -0.8216 -0.4654  1.8296
11530TIP3    H256082   3.108   1.235  17.017 -1.9313  1.0909  0.1759
11531TIP3   OH256083   3.923   3.462  16.689 -0.1641 -0.1042  0.5150
11531TIP3    H156084   3.862   3.529  16.720 -0.6725  0.2068 -1.0976
11531TIP3    H256085   3.876   3.420  16.617  0.5495 -1.5392  0.8782
11532TIP3   OH256086   2.263   6.336  10.914 -0.0551 -0.0655  0.1227
11532TIP3    H156087   2.270   6.250  10.874 -0.3258  0.2326 -0.5869
11532TIP3    H256088   2.336   6.386  10.879  0.7886 -0.3553  1.4476
11533TIP3   OH256089   5.564   4.410   4.664  0.6624 -0.4917  0.6923
11533TIP3    H156090   5.533   4.354   4.592  3.0773  0.7567 -1.4169
11533TIP3    H256091   5.640   4.363   4.699  0.9542  0.0840  0.8279
11534TIP3   OH256092   1.530   0.208  11.453 -0.1497  0.4159 -0.1773
11534TIP3    H156093   1.495   0.168  11.533 -1.1117 -0.0422 -0.8143
11534TIP3    H256094   1.621   0.178  11.449  0.0217  0.7736  0.9528
11535TIP3   OH256095   3.258   5.276   4.545  0.5598 -0.3793 -0.1465
11535TIP3    H156096   3.184   5.306   4.492  0.0219 -2.6437 -0.7047
11535TIP3    H256097   3.221   5.264   4.633  0.4718 -0.6455 -0.2193
11536TIP3   OH256098   2.881   5.832  14.638 -1.0040 -0.3259  0.0367
11536TIP3    H156099   2.845   5.918  14.659  0.7156  0.5883 -0.6935
11536TIP3    H256100   2.810   5.786  14.593 -2.0366  0.5771  0.7299
11537TIP3   OH256101   5.293   1.377   0.946  0.1108 -0.0708 -0.5042
11537TIP3    H156102   5.327   1.289   0.961  0.2950 -0.1364 -1.2680
11537TIP3    H256103   5.370   1.434   0.955  0.7093 -0.3373 -3.4410
11538TIP3   OH256104   4.619   1.575  15.254 -0.3830  0.0962 -0.0258
11538TIP3    H156105   4.609   1.490  15.211  0.2720  0.1142 -0.2272
11538TIP3    H256106   4.599   1.639  15.185 -0.5573  0.1103  0.0376
11539TIP3   OH256107   6.086   4.201   3.478  0.4180  0.1688 -0.2670
11539TIP3    H156108   6.129   4.137   3.421  0.8037  1.8637 -1.9296
11539TIP3    H256109   6.113   4.286   3.444  0.1360  1.2396  2.0771
11540TIP3   OH256110   5.759   4.076   6.068  0.4125 -0.1429  0.3148
11540TIP3    H156111   5.826   4.033   6.015 -0.4946 -1.1097 -0.0686
11540TIP3    H256112   5.720   4.140   6.009 -0.7468 -1.3721 -0.2655
11541TIP3   OH256113   1.622   4.061  15.631  0.2312 -0.1833 -0.3037
11541TIP3    H156114   1.672   4.021  15.560  0.0272  0.3419 -0.7426
11541TIP3    H256115   1.643   4.154  15.626  1.3540 -0.3344  1.2300
11542TIP3   OH256116   5.713   0.771  14.267 -0.4627 -0.3887 -0.3459
11542TIP3    H156117   5.645   0.830  14.234 -0.4509 -0.5315 -0.6321
11542TIP3    H256118   5.673   0.684  14.263 -0.8532 -0.2833  1.0770
11543TIP3   OH256119   3.577   0.814  14.821  0.2759 -0.4942 -0.4357
11543TIP3    H156120   3.572   0.825  14.726  0.1009  0.2283 -0.3492
11543TIP3    H256121   3.669   0.827  14.842 -0.0236  1.5389 -0.2641
11544TIP3   OH256122   5.257   3.918   4.527 -0.0147  0.4211 -1.6047
11544TIP3    H156123   5.270   4.013   4.527 -1.3370  0.6203 -0.0452
11544TIP3    H256124   5.327   3.884   4.582  0.0134  0.5540 -1.5584
11545TIP3   OH256125   6.235   3.283   2.012  0.5602 -0.6527  0.2107
11545TIP3    H156126   6.264   3.284   1.921 -1.6058 -1.4503 -0.5087
11545TIP3    H256127   6.235   3.374   2.039  0.4059 -0.3421 -0.8369
11546TIP3   OH256128   3.814   0.770  14.264  0.0967 -0.8828  0.0876
11546TIP3    H156129   3.775   0.693  14.304 -3.1570  0.8852  0.4989
11546TIP3    H256130   3.810   0.837  14.332  0.0519  0.4883 -1.2393
11547TIP3   OH256131   5.737   4.491   3.996  0.3925  0.4834  0.2263
11547TIP3    H156132   5.784   4.410   4.020  1.0132  0.8916  0.4045
11547TIP3    H256133   5.742   4.546   4.074 -0.7835  0.3553  0.3978
11548TIP3   OH256134   2.042   5.331  13.565  0.0551 -0.4778  0.1090
11548TIP3    H156135   2.004   5.418  13.577  1.7377  0.2265  0.4353
11548TIP3    H256136   2.117   5.345  13.507  1.2427 -1.4645  1.3792
11549TIP3   OH256137   2.150   5.519   4.558 -0.1757 -0.4124  0.8112
11549TIP3    H156138   2.237   5.481   4.572 -0.6638 -2.5465 -1.5912
11549TIP3    H256139   2.105   5.456   4.502 -3.0425  1.0164  1.4129
11550TIP3   OH256140   1.762   3.579  15.927 -0.1369 -0.3631  0.4518
11550TIP3    H156141   1.778   3.516  15.996 -1.2493 -0.7671  0.3422
11550TIP3    H256142   1.674   3.612  15.944 -0.0804  0.1659 -0.2656
11551TIP3   OH256143   0.735   0.927  12.475  0.2921  0.0964  0.0088
11551TIP3    H156144   0.660   0.888  12.429 -1.2859  1.9998  0.9186
11551TIP3    H256145   0.795   0.953  12.405 -1.4739  1.7171 -0.9246
11552TIP3   OH256146   4.201   2.151   4.626 -0.6882 -0.0947  0.3348
11552TIP3    H156147   4.280   2.162   4.574 -0.8091  1.1348  0.3745
11552TIP3    H256148   4.227   2.095   4.699  0.0983  0.1428  0.2412
11553TIP3   OH256149   6.557   2.418   5.065 -0.2006  0.5238 -0.7497
11553TIP3    H156150   6.595   2.333   5.044  1.2167  1.4659 -2.0701
11553TIP3    H256151   6.471   2.417   5.024 -0.7101 -0.7438  0.3155
11554TIP3   OH256152   1.824   1.972  15.118  0.1704 -0.0243 -0.0047
11554TIP3    H156153   1.739   2.013  15.100  0.8613  1.5821  0.2786
11554TIP3    H256154   1.814   1.937  15.207 -0.7816 -1.4341 -0.6567
11555TIP3   OH256155   0.762   6.292  14.235  0.1615 -0.8602  0.5897
11555TIP3    H156156   0.787   6.293  14.327 -1.2513 -0.4279  0.9801
11555TIP3    H256157   0.841   6.321  14.188  0.9895 -1.4082  1.6224
11556TIP3   OH256158   2.228   3.897   5.356 -0.2700  0.2646  0.6342
11556TIP3    H156159   2.266   3.821   5.311 -1.6221  0.4358 -0.8326
11556TIP3    H256160   2.264   3.892   5.444  1.4439 -0.8055 -0.0896
11557TIP3   OH256161   3.036   0.659  13.755 -0.1272 -0.0383  0.0299
11557TIP3    H156162   3.025   0.607  13.676 -0.2381 -0.5687  0.3899
11557TIP3    H256163   2.971   0.729  13.747  0.1889  0.1839 -0.5692
11558TIP3   OH256164   2.422   5.186   2.919  0.2197  0.2569 -0.5634
11558TIP3    H156165   2.451   5.111   2.867  0.1952  0.0074 -0.2212
11558TIP3    H256166   2.475   5.182   2.999  0.8171  1.1090 -0.9229
11559TIP3   OH256167   0.244   2.441   4.249  0.1751 -0.2663  0.3403
11559TIP3    H156168   0.160   2.427   4.205 -1.2601  0.3457  2.7454
11559TIP3    H256169   0.241   2.533   4.277  1.7679 -0.1759  0.2305
11560TIP3   OH256170   2.743   2.002   5.824  0.7481  0.3794  0.4198
11560TIP3    H156171   2.698   1.925   5.858  1.3598  0.4589  1.4247
11560TIP3    H256172   2.725   2.001   5.730  1.0752 -1.2023  0.3595
11561TIP3   OH256173   2.015   6.417  11.051  0.5638  0.5375 -0.2092
11561TIP3    H156174   2.092   6.410  10.994  0.5419  1.9246 -0.4189
11561TIP3    H256175   2.031   6.496  11.103 -0.0740  0.0543  0.7293
11562TIP3   OH256176   4.132   4.442   5.289 -0.2716 -0.0443 -0.2386
11562TIP3    H156177   4.215   4.396   5.300  1.1015  1.6524 -2.8495
11562TIP3    H256178   4.123   4.453   5.194 -2.2739  1.9132  0.1333
11563TIP3   OH256179   1.981   3.228  12.439 -0.2077  0.3906  0.6270
11563TIP3    H156180   2.022   3.147  12.471  0.6934  1.2835  1.7988
11563TIP3    H256181   1.903   3.199  12.392 -0.2977 -1.1157  1.6727
11564TIP3   OH256182   5.736   5.029  10.965  0.9056 -0.0981 -0.9022
11564TIP3    H156183   5.693   5.092  11.023 -1.5663 -1.7151 -0.8914
11564TIP3    H256184   5.691   5.038  10.881 -1.1174 -3.3888 -0.2685
11565TIP3   OH256185   1.100   0.233  10.793 -0.2565  0.0898 -0.0784
11565TIP3    H156186   1.080   0.306  10.851  0.7002  0.1855  0.1341
11565TIP3    H256187   1.195   0.224  10.797 -0.0575  0.7617 -2.4070
11566TIP3   OH256188   6.752   5.534   5.651 -0.7083  0.3621 -0.3238
11566TIP3    H156189   6.844   5.538   5.676 -0.3386  0.1200 -1.6263
11566TIP3    H256190   6.719   5.623   5.667 -0.8459 -0.1432  2.3496
11567TIP3   OH256191   3.537   0.107   2.011 -0.1360 -0.1221 -0.3820
11567TIP3    H156192   3.539   0.116   1.915  0.4603  0.4915 -0.3202
11567TIP3    H256193   3.452   0.143   2.036 -0.4205 -0.5594 -0.7046
11568TIP3   OH256194   5.038   1.996  14.934  0.1433 -0.6960 -0.1218
11568TIP3    H156195   5.039   2.066  14.869  0.3299  0.3792  1.0370
11568TIP3    H256196   4.949   1.961  14.930 -0.2329  0.2459 -0.0067
11569TIP3   OH256197   1.427   1.668   4.457  0.0552  0.3874  0.4333
11569TIP3    H156198   1.337   1.653   4.427  0.3467  0.8821 -0.7307
11569TIP3    H256199   1.481   1.620   4.394  0.7476  2.5011 -0.6584
11570TIP3   OH256200   6.374   0.179   4.779  0.1047 -0.8813  0.3032
11570TIP3    H156201   6.383   0.204   4.687 -2.0959  2.0065  0.7994
11570TIP3    H256202   6.315   0.103   4.776 -1.5093  0.3584 -0.5986
11571TIP3   OH256203   3.011   5.433   5.497 -0.0890  0.1336 -0.4464
11571TIP3    H156204   3.017   5.491   5.421 -2.9616  0.3733 -0.5228
11571TIP3    H256205   3.021   5.492   5.572  0.6881  0.1881 -0.5877
11572TIP3   OH256206   0.694   1.711   5.135  0.1278  0.2703  0.1129
11572TIP3    H156207   0.709   1.695   5.042  1.0187  0.5782  0.1984
11572TIP3    H256208   0.780   1.738   5.169 -0.5189  1.6128  0.7206
11573TIP3   OH256209   6.279   2.178   1.326  0.7989 -0.5371 -0.2716
11573TIP3    H156210   6.276   2.173   1.231  0.0485  0.8729 -0.3207
11573TIP3    H256211   6.219   2.110   1.356 -0.0218 -0.0464 -0.8150
11574TIP3   OH256212   3.478   5.786   3.712 -0.2860 -0.0292  0.6111
11574TIP3    H156213   3.491   5.795   3.807 -2.0466  1.5410  0.7544
11574TIP3    H256214   3.387   5.812   3.699 -0.5248 -1.7230 -1.3434
11575TIP3   OH256215   4.977   0.909  11.662 -0.7079 -0.1190  0.1077
11575TIP3    H156216   4.911   0.973  11.689  0.6828  1.3266  0.1243
11575TIP3    H256217   5.034   0.899  11.738  1.0846  1.2200 -1.0130
11576TIP3   OH256218   5.263   6.234   5.043  0.1856 -0.8956  0.0885
11576TIP3    H156219   5.197   6.302   5.028  0.4747 -0.6013  0.1380
11576TIP3    H256220   5.213   6.157   5.068 -0.0919 -0.4265  1.0076
11577TIP3   OH256221   3.152   1.760  10.943  0.0840  0.3283 -0.4775
11577TIP3    H156222   3.141   1.854  10.927  1.1470  0.5550  0.1111
11577TIP3    H256223   3.082   1.738  11.005  0.1605  0.8413 -0.2080
11578TIP3   OH256224   4.026   1.395  15.781  0.7085 -0.1190 -1.0843
11578TIP3    H156225   4.061   1.409  15.693 -0.4052  0.3014 -1.4649
11578TIP3    H256226   4.049   1.475  15.829 -2.8996  1.8192 -2.3756
11579TIP3   OH256227   1.687   0.500   2.110 -0.2640 -0.7178 -0.2642
11579TIP3    H156228   1.762   0.544   2.070 -0.3044 -1.1546 -0.8325
11579TIP3    H256229   1.726   0.436   2.169 -0.2069  0.3109  0.8381
11580TIP3   OH256230   1.412   5.951  12.603 -0.0446 -0.1068  0.2033
11580TIP3    H156231   1.468   5.879  12.632  1.0735 -0.3107 -2.3208
11580TIP3    H256232   1.464   5.996  12.536 -1.4734  1.9252  0.4349
11581TIP3   OH256233   2.523   5.031   4.645 -0.1336 -0.2404  0.1468
11581TIP3    H156234   2.517   5.017   4.550 -0.0785  1.3530 -0.0955
11581TIP3    H256235   2.497   5.122   4.658 -0.7886 -0.6486  1.7453
11582TIP3   OH256236   4.872   0.383   2.887  0.1862  0.0204 -0.4057
11582TIP3    H156237   4.931   0.353   2.957 -1.3191 -2.2340 -0.0806
11582TIP3    H256238   4.886   0.321   2.815  1.0647  1.8033 -1.8142
11583TIP3   OH256239   6.680   0.047   2.483  0.3228  0.1766  0.4447
11583TIP3    H156240   6.673   0.142   2.476 -0.3005  0.1872  1.0866
11583TIP3    H256241   6.626   0.013   2.412  0.0758  0.3044  0.5694
11584TIP3   OH256242   2.192   6.647   4.717 -0.1630  0.4694 -0.0360
11584TIP3    H156243   2.148   6.562   4.716 -0.7518  0.7833 -0.7257
11584TIP3    H256244   2.173   6.682   4.804 -0.1782  0.0361  0.1397
11585TIP3   OH256245   1.925   2.091  14.170 -0.4755  0.4153  0.6031
11585TIP3    H156246   1.846   2.077  14.118  0.1749 -1.0880 -0.0083
11585TIP3    H256247   1.958   2.176  14.141 -0.4131 -0.1642 -1.0667
11586TIP3   OH256248   1.807   2.672   3.593  0.6478  0.2286 -0.0491
11586TIP3    H156249   1.850   2.594   3.628  1.2102 -0.6045 -2.4921
11586TIP3    H256250   1.865   2.702   3.523 -0.1733  2.1420  0.0530
11587TIP3   OH256251   6.195   4.720  15.900  0.2031  0.8231 -0.3425
11587TIP3    H156252   6.150   4.771  15.967  0.5184  1.2819 -0.4775
11587TIP3    H256253   6.129   4.659  15.868  0.4321 -0.3859  1.3878
11588TIP3   OH256254   3.894   6.338   1.466 -0.1851  0.0450 -0.3715
11588TIP3    H156255   3.951   6.343   1.389  1.0152 -1.7090  0.3769
11588TIP3    H256256   3.849   6.254   1.458 -0.2866 -0.0099  0.6788
11589TIP3   OH256257   4.572   4.209  15.529 -0.0276  0.1007 -0.9464
11589TIP3    H156258   4.522   4.150  15.473 -1.6892 -0.9248  1.5125
11589TIP3    H256259   4.510   4.279  15.551  1.2198  1.5546 -1.9688
11590TIP3   OH256260   6.229   1.434   1.067 -0.0511 -0.9676  0.6345
11590TIP3    H156261   6.157   1.371   1.055  1.1261 -2.2334  0.0157
11590TIP3    H256262   6.202   1.488   1.141 -2.0151 -0.8879 -0.1076
11591TIP3   OH256263   0.041   2.984  15.529  0.1236 -0.0014  0.1911
11591TIP3    H156264  -0.026   2.996  15.596 -1.0772 -1.0185 -0.8171
11591TIP3    H256265   0.016   2.904  15.483  1.6592 -0.0398 -0.6307
11592TIP3   OH256266   2.522   1.457  15.198  0.4591  0.4025  0.5620
11592TIP3    H156267   2.452   1.501  15.246  0.8675 -0.0401  1.5704
11592TIP3    H256268   2.488   1.369  15.182  1.0339 -0.0281  1.6387
11593TIP3   OH256269   3.539   1.643  16.362  0.0632  0.4248 -0.0358
11593TIP3    H156270   3.634   1.638  16.376  0.1586  1.1133 -0.4102
11593TIP3    H256271   3.505   1.682  16.442 -0.2096 -2.1764  1.1650
11594TIP3   OH256272   0.022   3.006   4.736 -0.4752  0.6629  0.0376
11594TIP3    H156273  -0.021   3.092   4.744 -1.0663  0.3249  0.5690
11594TIP3    H256274  -0.029   2.949   4.794  1.0482  0.3735  1.1031
11595TIP3   OH256275   4.781   6.716   1.338 -0.1664  0.2625  0.0365
11595TIP3    H156276   4.714   6.664   1.293 -0.1331  0.3262 -0.0863
11595TIP3    H256277   4.800   6.667   1.418 -0.3727  0.2521  0.0797
11596TIP3   OH256278   4.068   4.633   3.382 -0.6013 -0.0033 -0.1970
11596TIP3    H156279   4.163   4.618   3.385 -0.7699 -1.6737 -2.3137
11596TIP3    H256280   4.053   4.676   3.298 -1.9225 -1.5182 -0.7673
11597TIP3   OH256281   0.482   0.407   1.341  0.0025 -0.4001 -0.0799
11597TIP3    H156282   0.560   0.358   1.315 -1.3312 -2.8625  0.4061
11597TIP3    H256283   0.483   0.405   1.437  0.1933  0.9685 -0.0436
11598TIP3   OH256284   4.967   6.238   2.402 -0.5934 -0.1833 -0.2176
11598TIP3    H156285   5.032   6.295   2.360 -0.8463  0.4856  0.2791
11598TIP3    H256286   5.013   6.202   2.478 -0.6065 -0.1909 -0.2133
11599TIP3   OH256287   5.167   3.065  13.677 -0.1120 -0.0349  0.0285
11599TIP3    H156288   5.177   2.976  13.711  1.1637  0.7911  1.8987
11599TIP3    H256289   5.095   3.102  13.728  0.4732  0.5394  0.4508
11600TIP3   OH256290   4.612   6.497   0.379  0.2925 -1.1573 -0.3561
11600TIP3    H156291   4.534   6.542   0.412  0.9054  0.8599 -1.5771
11600TIP3    H256292   4.641   6.443   0.453 -0.9542 -0.2022  0.8684
11601TIP3   OH256293   1.137   3.908   0.130  0.0660  0.0374  0.1186
11601TIP3    H156294   1.087   3.857   0.194  0.2883  0.4594  0.6376
11601TIP3    H256295   1.229   3.886   0.149  0.0898 -0.6091 -0.7187
11602TIP3   OH256296   1.795   5.902   6.063 -0.2229 -0.8943  0.6132
11602TIP3    H156297   1.794   5.939   6.151 -0.0553 -1.0157  0.6659
11602TIP3    H256298   1.885   5.873   6.050  0.1175  0.4643 -0.1635
11603TIP3   OH256299   6.149   4.774   5.120  0.0377  0.2524  0.3115
11603TIP3    H156300   6.234   4.805   5.150  0.3956 -0.0412 -0.3785
11603TIP3    H256301   6.087   4.842   5.147  0.2582 -0.3079  2.2543
11604TIP3   OH256302   4.715   4.979  11.525 -0.2045  0.4070  0.0673
11604TIP3    H156303   4.707   5.057  11.579 -0.4311  1.5722 -1.6274
11604TIP3    H256304   4.626   4.944  11.519 -0.0355 -0.2903  1.2018
11605TIP3   OH256305   1.523   0.650   2.924 -0.5990  0.1176  0.1400
11605TIP3    H156306   1.445   0.657   2.979 -3.1398  0.8465 -3.3788
11605TIP3    H256307   1.521   0.560   2.890 -0.2363  0.3097 -0.4063
11606TIP3   OH256308   4.573   4.383   4.454  0.8401  0.1395 -0.2315
11606TIP3    H156309   4.527   4.383   4.370  0.7650  0.4843 -0.1898
11606TIP3    H256310   4.509   4.345   4.515  1.0259 -0.4459 -0.3996
11607TIP3   OH256311   4.200   3.239  10.934  0.4026 -0.7783 -0.1966
11607TIP3    H156312   4.105   3.254  10.933  0.4262 -0.6435 -0.3829
11607TIP3    H256313   4.216   3.194  11.017  0.0888 -1.3514 -0.4380
11608TIP3   OH256314   1.457   4.461  14.157 -0.1746 -0.1769 -0.1332
11608TIP3    H156315   1.402   4.488  14.230 -1.2748  0.2002 -1.1018
11608TIP3    H256316   1.410   4.387  14.117 -0.0415  0.2114 -1.0261
11609TIP3   OH256317   6.157   6.432  15.428 -0.2609  0.0166  0.0948
11609TIP3    H156318   6.219   6.428  15.355  2.0352  0.4769  1.9537
11609TIP3    H256319   6.124   6.342  15.436  1.6840 -0.7007  0.3337
11610TIP3   OH256320   3.896   0.785   4.154 -0.5160  0.1595 -0.1303
11610TIP3    H156321   3.893   0.842   4.231  0.5600 -0.2296  0.2170
11610TIP3    H256322   3.986   0.751   4.154 -1.3062 -1.9885  0.0087
11611TIP3   OH256323   5.879   4.569   1.017  0.4211  0.0809 -0.0864
11611TIP3    H156324   5.966   4.603   1.000 -0.0601  0.3648 -2.0709
11611TIP3    H256325   5.820   4.643   1.005 -0.1862 -0.3299  0.2806
11612TIP3   OH256326   6.714   1.694   5.260  0.0126  0.1313 -0.1643
11612TIP3    H156327   6.648   1.678   5.327  0.7115  0.0326  0.5155
11612TIP3    H256328   6.715   1.788   5.248  0.2652  0.2048  0.3768
11613TIP3   OH256329   3.340   0.823  14.371 -0.0249  0.0382  0.4609
11613TIP3    H156330   3.335   0.890  14.303 -1.9513 -0.3488  0.1799
11613TIP3    H256331   3.274   0.758  14.346  1.1277 -1.4751  1.2561
11614TIP3   OH256332   3.442   6.748   1.532 -0.2081  0.9555  0.4908
11614TIP3    H156333   3.365   6.707   1.570 -0.7932  1.1640 -0.4585
11614TIP3    H256334   3.497   6.675   1.504  0.1679  0.8010  1.5999
11615TIP3   OH256335   6.234   0.183   4.274 -0.0355 -0.3963  0.2801
11615TIP3    H156336   6.274   0.096   4.274  0.8252 -0.0219  1.2233
11615TIP3    H256337   6.266   0.225   4.195  2.0102  0.1248  1.3396
11616TIP3   OH256338   3.703   4.937   1.426  0.6814  0.1357  0.3502
11616TIP3    H156339   3.631   4.987   1.465  0.1024 -2.9304  3.5150
11616TIP3    H256340   3.766   5.003   1.399 -1.0250  2.6980  2.3789
11617TIP3   OH256341   6.293   0.285   0.053  0.1795  0.8998 -0.4168
11617TIP3    H156342   6.282   0.330   0.137  0.0671  0.4271 -0.1790
11617TIP3    H256343   6.214   0.306   0.004  0.3599  1.3866 -0.5030
11618TIP3   OH256344   5.778   5.490   2.384 -0.4820 -0.1492 -0.2953
11618TIP3    H156345   5.700   5.546   2.384 -0.3363  0.0741  1.0549
11618TIP3    H256346   5.825   5.514   2.304 -1.5319  0.0812 -0.8559
11619TIP3   OH256347   6.088   1.445   0.795 -0.8299  0.5145 -0.3889
11619TIP3    H156348   6.045   1.370   0.836 -3.0036  0.5264 -2.5950
11619TIP3    H256349   6.088   1.512   0.863  2.9318 -1.9941  2.3258
11620TIP3   OH256350   2.939   2.300  15.962 -0.0687 -0.2095 -0.0152
11620TIP3    H156351   2.919   2.216  15.921  0.0937  0.0123 -0.5578
11620TIP3    H256352   3.035   2.303  15.965 -0.0474  0.5441 -1.2341
11621TIP3   OH256353   0.518   5.997   0.150 -0.7835  0.4838  0.0349
11621TIP3    H156354   0.552   5.946   0.076 -0.7919  1.4020 -0.6041
11621TIP3    H256355   0.591   6.001   0.211 -0.7985 -0.3395  0.1163
11622TIP3   OH256356   5.218   3.675  11.594 -0.6078 -0.3384  0.5104
11622TIP3    H156357   5.275   3.742  11.630  1.2190 -1.6188  0.0291
11622TIP3    H256358   5.208   3.699  11.502 -1.5444  0.3325  0.7698
11623TIP3   OH256359   5.406   4.863   3.265 -0.3090 -0.0427 -0.4231
11623TIP3    H156360   5.364   4.879   3.180 -0.3535 -0.9643 -0.5802
11623TIP3    H256361   5.333   4.853   3.326 -0.2817  0.3834 -0.3243
11624TIP3   OH256362   4.413   2.518  16.036  0.4860 -0.4484  0.3563
11624TIP3    H156363   4.452   2.606  16.043  1.0481 -0.7995  1.8873
11624TIP3    H256364   4.322   2.534  16.011  0.8359  0.5213 -0.3619
11625TIP3   OH256365   0.202   6.019  13.511 -0.0426  0.0798 -0.2079
11625TIP3    H156366   0.259   6.003  13.436 -0.9623 -0.4273 -0.8117
11625TIP3    H256367   0.114   6.023  13.474 -0.3988  0.8582  0.7125
11626TIP3   OH256368   4.815   2.153   4.293  0.6069 -0.3030  0.0679
11626TIP3    H156369   4.822   2.190   4.206  0.4039  0.7063  0.4786
11626TIP3    H256370   4.810   2.228   4.352  0.7019 -0.9702  0.9484
11627TIP3   OH256371   1.003   3.322  12.871  0.3511 -0.3491  0.1850
11627TIP3    H156372   0.980   3.357  12.785  0.8097 -0.4413  0.0226
11627TIP3    H256373   0.989   3.394  12.932 -3.4367 -1.2894  0.5544
11628TIP3   OH256374   2.820   6.364  14.961 -0.0764 -0.4532  0.1642
11628TIP3    H156375   2.820   6.268  14.960  0.3288 -0.4576  0.4068
11628TIP3    H256376   2.772   6.388  15.040  0.2066 -0.4619  0.3397
11629TIP3   OH256377   4.785   1.510   4.490  0.0266 -0.1171  0.0885
11629TIP3    H156378   4.755   1.530   4.402  0.5648 -0.9614 -0.2901
11629TIP3    H256379   4.776   1.592   4.538 -2.8746 -0.3106 -0.0025
11630TIP3   OH256380   4.275   4.329  14.219  0.5381  0.0929  0.4850
11630TIP3    H156381   4.333   4.405  14.213  0.2449  0.3723  1.1540
11630TIP3    H256382   4.206   4.356  14.278  0.4092 -0.6862  0.6991
11631TIP3   OH256383   5.126   0.458   2.645  0.1881 -0.6678 -0.2240
11631TIP3    H156384   5.035   0.475   2.670 -0.0098 -1.6635 -0.2419
11631TIP3    H256385   5.136   0.499   2.559  0.4077  1.3816  0.7278
11632TIP3   OH256386   0.104   0.804  16.243 -0.5908  0.4545 -0.0995
11632TIP3    H156387   0.172   0.751  16.284 -2.4152 -0.8426  1.3033
11632TIP3    H256388   0.078   0.753  16.166 -0.1972  0.8310 -0.4916
11633TIP3   OH256389   4.594   0.340   5.703 -0.1717  0.7383 -0.1391
11633TIP3    H156390   4.559   0.425   5.677 -0.6192  1.0731  1.4951
11633TIP3    H256391   4.627   0.353   5.791 -0.0555 -0.7302  0.0536
11634TIP3   OH256392   0.465   0.735  17.283 -0.1496 -0.1171  0.1499
11634TIP3    H156393   0.385   0.688  17.258  0.6103 -2.1153  1.3694
11634TIP3    H256394   0.433   0.811  17.332 -1.3640 -0.1428 -0.5726
11635TIP3   OH256395   2.084   5.468  11.707 -0.5547 -0.1559  0.1321
11635TIP3    H156396   2.166   5.509  11.677  0.8608 -1.5508  1.9637
11635TIP3    H256397   2.039   5.537  11.756 -0.0134  0.3521 -0.0821
11636TIP3   OH256398   1.383   5.518   1.383 -0.3424  0.3063  0.2822
11636TIP3    H156399   1.299   5.535   1.424 -1.2858 -0.2808 -1.3731
11636TIP3    H256400   1.416   5.605   1.359 -0.7172  0.4947  0.4526
11637TIP3   OH256401   5.950   4.523   5.127  0.2146  0.3381 -0.0665
11637TIP3    H156402   6.018   4.589   5.143  0.9683 -0.0049 -1.7485
11637TIP3    H256403   5.979   4.446   5.175 -0.2051  0.9161  1.1542
11638TIP3   OH256404   0.963   6.614   3.702 -0.4390  0.0155 -1.0519
11638TIP3    H156405   0.955   6.650   3.613  1.5947 -1.0165 -1.7005
11638TIP3    H256406   0.977   6.521   3.689 -0.9536 -0.2733  0.4014
11639TIP3   OH256407   4.876   0.799  12.266  0.5351  0.0731 -0.6293
11639TIP3    H156408   4.890   0.889  12.295  0.8880 -0.7873  2.0501
11639TIP3    H256409   4.786   0.779  12.291  0.6221 -0.4870 -0.7516
11640TIP3   OH256410   2.705   4.081  13.998 -0.6416  0.0739 -0.6479
11640TIP3    H156411   2.628   4.082  14.056 -0.4519  1.5294 -0.4087
11640TIP3    H256412   2.749   3.999  14.019 -1.7152 -0.4168 -0.2383
11641TIP3   OH256413   4.692   5.109   6.111 -0.6516 -0.1315  0.2713
11641TIP3    H156414   4.755   5.177   6.132  1.7507 -2.1248 -0.2297
11641TIP3    H256415   4.674   5.119   6.018  1.1329 -1.2771 -0.2250
11642TIP3   OH256416   3.489   1.971   6.008  0.1844  0.1685  0.3722
11642TIP3    H156417   3.508   1.878   6.000 -0.3377  0.0307  0.6915
11642TIP3    H256418   3.575   2.014   6.008  0.3557 -0.0747 -2.5533
11643TIP3   OH256419   1.531   1.000   2.414  0.2281  0.1624 -0.1220
11643TIP3    H156420   1.468   0.978   2.483 -1.1926 -0.3485 -1.5671
11643TIP3    H256421   1.489   1.072   2.366  1.1835  0.4571 -0.5210
11644TIP3   OH256422   1.955   4.906  15.962 -0.5209  0.3734 -0.5048
11644TIP3    H156423   1.937   4.844  16.034 -0.8415 -0.0547 -0.9527
11644TIP3    H256424   2.037   4.949  15.988 -0.7459  0.3717  0.2200
11645TIP3   OH256425   5.900   4.570  11.184 -0.0871  0.7068  0.5447
11645TIP3    H156426   5.839   4.640  11.162  0.3021  0.4417 -1.4476
11645TIP3    H256427   5.985   4.600  11.153  0.4342  0.2112  1.4827
11646TIP3   OH256428   6.136   2.713  14.080  0.2004 -0.2028 -0.2860
11646TIP3    H156429   6.138   2.804  14.112  2.0007 -0.0749 -0.7178
11646TIP3    H256430   6.156   2.720  13.987 -1.0171 -0.9343 -0.6098
11647TIP3   OH256431   1.067   1.870  14.082  0.2917  0.2908 -0.1364
11647TIP3    H156432   1.066   1.775  14.094 -0.3578  0.3667  0.4173
11647TIP3    H256433   1.140   1.900  14.136  1.0219  0.0248 -0.9641
11648TIP3   OH256434   3.399   1.747  15.869  0.5913 -0.6050  0.1767
11648TIP3    H156435   3.487   1.748  15.830 -0.0859 -0.9269 -1.4092
11648TIP3    H256436   3.346   1.697  15.807 -0.5131 -1.2113  1.5822
11649TIP3   OH256437   4.535   3.902   5.080 -0.3026  0.0410  0.0155
11649TIP3    H156438   4.584   3.975   5.118  0.7652 -0.5560 -0.2171
11649TIP3    H256439   4.521   3.842   5.153 -0.6957  0.2085  0.0810
11650TIP3   OH256440   5.135   3.850  13.245  0.1862 -0.0990 -0.9702
11650TIP3    H156441   5.227   3.827  13.229  0.0631 -0.4096 -1.2478
11650TIP3    H256442   5.102   3.780  13.300  0.2813  0.3394 -0.3523
11651TIP3   OH256443   2.614   5.732  10.937 -0.1224  0.2245  0.1010
11651TIP3    H156444   2.594   5.640  10.922  0.4563  0.3325 -1.4026
11651TIP3    H256445   2.707   5.740  10.919 -0.3461  1.2788 -0.6668
11652TIP3   OH256446   6.601   2.609  16.395 -0.0542  0.0756  0.1547
11652TIP3    H156447   6.563   2.690  16.361  1.2693  1.6027  2.1769
11652TIP3    H256448   6.598   2.619  16.490  2.3000 -1.2075  0.4096
11653TIP3   OH256449   6.713   2.636   4.981  0.5418  0.2529  0.1999
11653TIP3    H156450   6.669   2.571   5.035  1.2081 -0.2898  0.0935
11653TIP3    H256451   6.750   2.586   4.909  2.1430  0.5598  0.7964
11654TIP3   OH256452   4.593   0.438   5.986 -0.9821 -0.5500 -0.6322
11654TIP3    H156453   4.574   0.530   5.967 -1.0592 -0.1347  1.3539
11654TIP3    H256454   4.541   0.418   6.064  2.1163 -1.0841  1.3907
11655TIP3   OH256455   5.288   4.662   4.555 -0.2833  0.0141 -0.7551
11655TIP3    H156456   5.325   4.741   4.516  0.4546 -0.8311 -1.8098
11655TIP3    H256457   5.364   4.612   4.584 -0.7945  0.2928  1.1501
11656TIP3   OH256458   6.719   0.653  16.928 -0.0890 -0.1398  0.2385
11656TIP3    H156459   6.806   0.689  16.945  0.2685 -1.0751  0.4295
11656TIP3    H256460   6.674   0.659  17.012 -1.0138  2.4746 -0.4095
11657TIP3   OH256461   4.412   2.973   5.386 -0.1369 -0.2591  0.1532
11657TIP3    H156462   4.337   3.032   5.376 -1.3460 -1.7938 -0.2311
11657TIP3    H256463   4.415   2.953   5.479 -0.6597 -0.7232  0.0795
11658TIP3   OH256464   4.482   2.154  15.283  0.9744 -0.0202  0.2023
11658TIP3    H156465   4.443   2.090  15.224  1.0271  0.0556  0.0842
11658TIP3    H256466   4.456   2.239  15.247  1.4933  0.0356 -0.0466
11659TIP3   OH256467   5.146   3.339  13.680 -0.0922 -0.0825 -0.0973
11659TIP3    H156468   5.152   3.249  13.649 -2.5454  0.0247 -0.9170
11659TIP3    H256469   5.170   3.392  13.604  1.4524 -0.0100  0.4116
11660TIP3   OH256470   3.220   3.007   5.590  0.0076 -0.1796  0.2335
11660TIP3    H156471   3.169   3.057   5.526 -0.1651  0.3657  0.7879
11660TIP3    H256472   3.187   2.918   5.584  0.9817 -0.4482 -1.4540
11661TIP3   OH256473   5.224   2.709   4.975  0.0632  0.2663  0.0128
11661TIP3    H156474   5.199   2.668   5.058 -0.3249  1.0964  0.3166
11661TIP3    H256475   5.154   2.686   4.914 -0.6911  1.3152  0.4577
11662TIP3   OH256476   3.246   0.364  12.193 -0.2411  0.1999  0.4553
11662TIP3    H156477   3.342   0.369  12.198 -0.2247 -0.8779  1.6942
11662TIP3    H256478   3.229   0.290  12.135 -0.3146  0.0640  0.6494
11663TIP3   OH256479   3.014   0.436   5.079  0.2935  0.4740  0.0715
11663TIP3    H156480   3.026   0.349   5.039  0.4503  1.0755 -1.2183
11663TIP3    H256481   3.074   0.437   5.153  0.8380 -0.2489 -0.3581
11664TIP3   OH256482   0.725   4.722  13.252  0.3925  0.2864  0.1202
11664TIP3    H156483   0.754   4.795  13.197  0.7818  0.0146 -0.0366
11664TIP3    H256484   0.725   4.646  13.194  3.9588 -0.6568  1.2508
11665TIP3   OH256485   2.657   2.342   0.111 -0.1473  0.9219 -0.2473
11665TIP3    H156486   2.612   2.300   0.038 -0.7444 -1.3333  1.3703
11665TIP3    H256487   2.610   2.425   0.124  1.0028  2.1552 -3.4244
11666TIP3   OH256488   1.502   0.064   1.764  0.0545 -0.3234  0.0502
11666TIP3    H156489   1.475   0.119   1.838  1.7052 -0.4027  0.7283
11666TIP3    H256490   1.504   0.123   1.689 -2.1093 -0.3411 -0.0716
11667TIP3   OH256491   0.237   3.247  11.064  0.0827  0.3193  0.6402
11667TIP3    H156492   0.267   3.162  11.096 -0.8904 -0.0661  0.5771
11667TIP3    H256493   0.246   3.241  10.969 -1.4238 -0.3156  0.5099
11668TIP3   OH256494   5.123   5.277   1.727 -0.0052 -0.4149 -0.1885
11668TIP3    H156495   5.046   5.244   1.681 -0.1005 -0.2098 -0.1759
11668TIP3    H256496   5.088   5.323   1.803  0.1890 -1.7015  0.7052
11669TIP3   OH256497   6.221   0.950   0.966 -0.2074  0.0746 -0.1369
11669TIP3    H156498   6.271   0.880   0.924 -1.2978 -0.7470 -0.0854
11669TIP3    H256499   6.263   1.031   0.937 -0.8634 -0.4656 -2.7360
11670TIP3   OH256500   6.744   2.784   3.750  0.4123  0.4685 -0.4682
11670TIP3    H156501   6.680   2.796   3.680 -2.5731 -1.0736  1.8652
11670TIP3    H256502   6.801   2.713   3.719 -0.8168 -0.1466 -1.3764
11671TIP3   OH256503   2.375   1.199  10.902  0.6329 -0.2448 -0.9204
11671TIP3    H156504   2.462   1.175  10.933  1.2650  2.9197 -0.0180
11671TIP3    H256505   2.318   1.186  10.978  0.6458 -0.6086 -0.9733
11672TIP3   OH256506   1.293   6.751   3.704  0.0020 -0.4469 -0.5080
11672TIP3    H156507   1.369   6.779   3.756  0.5652 -1.0108 -1.0234
11672TIP3    H256508   1.228   6.726   3.769  0.8329 -1.4955 -0.0476
11673TIP3   OH256509   4.360   5.056  13.524  0.0859  0.4486  0.1938
11673TIP3    H156510   4.448   5.028  13.500  0.6510  1.2559  1.2772
11673TIP3    H256511   4.373   5.121  13.593 -1.4032 -0.0424  0.9582
11674TIP3   OH256512   4.153   4.732   0.935  0.0116  0.0594 -0.1211
11674TIP3    H156513   4.193   4.686   1.009  2.8082 -0.3296 -1.7847
11674TIP3    H256514   4.220   4.795   0.908 -1.4256  0.9750 -1.5927
11675TIP3   OH256515   1.549   1.891  13.238  0.3459 -0.8299  0.0180
11675TIP3    H156516   1.575   1.829  13.306  0.0313 -0.6519  0.3010
11675TIP3    H256517   1.462   1.859  13.210  0.4638 -0.8901 -0.2854
11676TIP3   OH256518   1.509   3.714  15.631  0.0581 -0.2687  0.1344
11676TIP3    H156519   1.448   3.642  15.650 -0.5743  0.6418  1.6632
11676TIP3    H256520   1.473   3.789  15.679  1.7264  0.5987  0.0676
11677TIP3   OH256521   0.667   2.644  16.847  0.2818  0.6830  0.6163
11677TIP3    H156522   0.691   2.563  16.893  0.4133  0.8977  0.9272
11677TIP3    H256523   0.658   2.618  16.756 -4.2783 -0.7192  1.3412
11678TIP3   OH256524   6.721   4.839   1.793 -0.6564  0.3977  0.3084
11678TIP3    H156525   6.652   4.784   1.756  1.9667 -1.7463 -1.6502
11678TIP3    H256526   6.767   4.782   1.855  0.1296  1.3963  0.6580
11679TIP3   OH256527   1.907   5.423  11.447 -0.1537  0.5482 -0.3583
11679TIP3    H156528   1.980   5.485  11.446  0.3949 -0.0681  0.4983
11679TIP3    H256529   1.946   5.339  11.424 -0.2609 -0.1052  1.7602
11680TIP3   OH256530   1.772   6.271  15.644 -0.1458  0.5419 -0.3709
11680TIP3    H156531   1.712   6.313  15.583  0.9704 -0.2383 -2.0540
11680TIP3    H256532   1.746   6.179  15.643  0.2716  0.4225 -0.1615
11681TIP3   OH256533   1.194   1.009   0.340  0.2361  0.1764 -0.4212
11681TIP3    H156534   1.224   0.925   0.374  2.2572  0.1013 -2.2469
11681TIP3    H256535   1.099   1.004   0.343  0.3456 -1.8596  0.2227
11682TIP3   OH256536   5.434   1.925  16.580 -0.1026 -0.8058 -1.0429
11682TIP3    H156537   5.426   1.866  16.656  0.4931 -0.8838 -1.0418
11682TIP3    H256538   5.499   1.883  16.524 -0.3777 -0.6285 -1.4914
11683TIP3   OH256539   0.503   0.021  12.417 -0.2585 -0.4215 -0.1617
11683TIP3    H156540   0.415   0.046  12.446 -0.2743  0.3799 -0.8917
11683TIP3    H256541   0.561   0.059  12.484 -0.4009  0.0029 -0.2733
11684TIP3   OH256542   0.006   4.093   2.881 -0.0055 -0.4990  0.0747
11684TIP3    H156543   0.080   4.081   2.821 -0.2616  1.3904 -0.6578
11684TIP3    H256544  -0.025   4.004   2.899  1.9089 -1.2571 -0.2784
11685TIP3   OH256545   6.290   0.659   5.391 -0.0627 -0.5658 -0.4358
11685TIP3    H156546   6.341   0.608   5.328  2.0589  0.1522  0.6592
11685TIP3    H256547   6.206   0.614   5.395  0.5235 -1.8863 -2.1417
11686TIP3   OH256548   4.794   5.262  14.903 -0.4913 -0.0730  0.2294
11686TIP3    H156549   4.777   5.172  14.877  1.1302  0.0873 -1.4960
11686TIP3    H256550   4.792   5.260  14.999 -0.2766 -1.9706  0.2118
11687TIP3   OH256551   3.758   0.196   4.158  0.4650  0.0430  0.0095
11687TIP3    H156552   3.746   0.102   4.150 -1.1143  0.1958  0.5751
11687TIP3    H256553   3.852   0.209   4.144  0.6416 -1.5727 -0.3744
11688TIP3   OH256554   1.081   3.557  14.751  0.1362 -0.2968 -0.0782
11688TIP3    H156555   1.175   3.543  14.744  0.1545 -0.4592  0.4354
11688TIP3    H256556   1.052   3.574  14.662  0.7873  0.6277 -0.1119
11689TIP3   OH256557   4.950   4.666   1.967  0.0032 -0.3403 -0.1879
11689TIP3    H156558   4.930   4.634   2.055  1.3090 -0.9433 -0.1083
11689TIP3    H256559   4.964   4.760   1.978 -1.2188 -0.1745  0.0117
11690TIP3   OH256560   1.799   5.794  12.679  0.2959  0.1218  0.1333
11690TIP3    H156561   1.809   5.887  12.661 -2.1276  0.4069  0.0331
11690TIP3    H256562   1.858   5.751  12.618  2.7077  1.6416  1.3476
11691TIP3   OH256563   0.550   1.643   1.315 -0.4390 -0.1433 -0.1518
11691TIP3    H156564   0.625   1.648   1.374  0.7752  1.2093 -1.7626
11691TIP3    H256565   0.491   1.581   1.357  1.0467 -0.3253  1.7421
11692TIP3   OH256566   4.648   2.269  12.000  0.1781  0.3839  0.2155
11692TIP3    H156567   4.579   2.291  11.938  0.6708  0.7424 -0.2113
11692TIP3    H256568   4.707   2.212  11.951  0.6862  0.8468  0.2780
11693TIP3   OH256569   6.398   1.385  14.846  0.0575  0.2081 -0.4034
11693TIP3    H156570   6.431   1.338  14.770 -1.4180 -2.1350  0.3477
11693TIP3    H256571   6.307   1.406  14.825  0.0268  0.6924  0.1821
11694TIP3   OH256572   6.419   1.392   5.168  0.2882 -0.6721 -0.5869
11694TIP3    H156573   6.454   1.321   5.115  2.4284 -0.6981  0.8183
11694TIP3    H256574   6.463   1.471   5.136  1.0090 -0.5779  0.6183
11695TIP3   OH256575   5.892   3.284  12.314  0.0822 -0.2699  0.4637
11695TIP3    H156576   5.932   3.305  12.229 -0.3412 -0.6758  0.1645
11695TIP3    H256577   5.950   3.217  12.351 -0.6594 -1.3227 -0.2508
11696TIP3   OH256578   2.081   1.170  13.908 -0.3674 -0.0862 -0.0888
11696TIP3    H156579   2.008   1.219  13.870  0.0947  1.5323  1.0681
11696TIP3    H256580   2.159   1.210  13.871  0.0092 -0.0673  0.7280
11697TIP3   OH256581   2.641   3.751  14.261  0.4848 -0.2187 -0.5433
11697TIP3    H156582   2.599   3.802  14.330  0.5443  1.2591 -1.5798
11697TIP3    H256583   2.691   3.684  14.308  3.1382  2.7162  1.0467
11698TIP3   OH256584   2.913   1.988   1.477 -0.3197 -0.2302  0.0545
11698TIP3    H156585   2.919   2.010   1.385  0.2761 -0.0743  0.1246
11698TIP3    H256586   2.828   2.021   1.505 -0.8068 -0.9007 -0.6002
11699TIP3   OH256587   6.634   3.502   2.976 -0.0941  0.0878 -0.2468
11699TIP3    H156588   6.672   3.420   2.947  2.9707  1.6112 -0.7638
11699TIP3    H256589   6.627   3.556   2.897 -0.9282  0.7539  0.2647
11700TIP3   OH256590   4.366   2.564  16.429  0.2528  0.7455 -0.2920
11700TIP3    H156591   4.319   2.567  16.512 -0.2549 -0.7906 -0.5095
11700TIP3    H256592   4.336   2.642  16.381  1.7656  2.5212  1.5802
11701TIP3   OH256593   1.564   6.371  15.501  0.1575  0.3106  0.1786
11701TIP3    H156594   1.620   6.404  15.431 -0.2524 -0.5925 -0.5870
11701TIP3    H256595   1.489   6.430  15.503 -0.4156 -0.3625 -0.9685
11702TIP3   OH256596   4.574   0.871  13.025 -0.0633 -0.1232 -0.3578
11702TIP3    H156597   4.628   0.839  12.953  0.0961 -0.6637 -0.0075
11702TIP3    H256598   4.608   0.958  13.044  1.7883 -1.0701  0.9219
11703TIP3   OH256599   3.264   2.465  12.916 -0.6300 -0.1295 -0.3487
11703TIP3    H156600   3.336   2.433  12.862 -1.3063 -0.8867 -0.8224
11703TIP3    H256601   3.284   2.557  12.931 -1.2343  0.5276 -3.2381
11704TIP3   OH256602   2.739   0.143   0.406 -0.2559  0.1525 -0.4434
11704TIP3    H156603   2.652   0.139   0.366  0.1060  2.9530 -1.6377
11704TIP3    H256604   2.725   0.191   0.488 -0.1962 -1.3998  0.4887
11705TIP3   OH256605   3.066   2.257   4.703 -0.3587 -0.4974  0.1471
11705TIP3    H156606   3.161   2.261   4.693 -0.5734  0.6535 -1.8151
11705TIP3    H256607   3.041   2.175   4.661 -0.2957 -0.3932 -0.0998
11706TIP3   OH256608   4.167   3.576   5.659  0.3608 -0.1713  0.3120
11706TIP3    H156609   4.157   3.525   5.579  0.8079  1.3844 -0.7596
11706TIP3    H256610   4.094   3.638   5.658  1.3373  0.9948  0.2172
11707TIP3   OH256611   3.770   4.513  16.310 -0.0656 -0.3934 -0.1468
11707TIP3    H156612   3.730   4.506  16.224  0.2978 -2.5071 -0.1589
11707TIP3    H256613   3.864   4.509  16.293  0.0751  1.0984  0.1950
11708TIP3   OH256614   4.846   0.449  16.426  0.2549  0.7108 -0.0510
11708TIP3    H156615   4.838   0.476  16.517  2.2208  1.5233 -0.0913
11708TIP3    H256616   4.887   0.362  16.430 -0.5098  0.3435 -0.1330
11709TIP3   OH256617   2.769   5.378   4.413  0.2675  0.6875  0.3287
11709TIP3    H156618   2.796   5.448   4.354  1.3816  0.8556  1.0137
11709TIP3    H256619   2.684   5.349   4.380  0.7787  0.9336 -1.1953
11710TIP3   OH256620   6.063   3.050  12.318 -0.1793 -0.2610  0.2750
11710TIP3    H156621   6.065   2.965  12.360 -0.7110 -0.6993 -0.5624
11710TIP3    H256622   6.092   3.033  12.228 -0.7210  0.3478 -0.0257
11711TIP3   OH256623   5.332   2.873   1.222 -0.2574 -0.4999 -0.0214
11711TIP3    H156624   5.408   2.815   1.222  0.5179  0.5026  0.7158
11711TIP3    H256625   5.347   2.932   1.296 -1.0539  0.6206 -0.7382
11712TIP3   OH256626   5.158   1.440  11.543  0.5061 -0.6661  0.4035
11712TIP3    H156627   5.163   1.531  11.515  1.3801 -0.3960  1.3961
11712TIP3    H256628   5.234   1.398  11.504 -0.0362 -1.0456 -0.2680
11713TIP3   OH256629   0.156   2.934   2.423 -0.3772 -0.5030 -0.1620
11713TIP3    H156630   0.137   2.859   2.368 -1.3866  0.6907 -1.4646
11713TIP3    H256631   0.245   2.918   2.456  0.1041 -1.3903 -1.8577
11714TIP3   OH256632   3.765   2.721  11.267 -0.4235 -0.3937 -0.8779
11714TIP3    H156633   3.773   2.625  11.273 -0.5402 -0.3204  0.8159
11714TIP3    H256634   3.718   2.736  11.185 -0.4585 -1.7982 -1.1368
11715TIP3   OH256635   2.649   5.938  13.126  0.0800  0.0770  0.6150
11715TIP3    H156636   2.708   5.998  13.079 -0.4746 -0.9568 -1.4632
11715TIP3    H256637   2.566   5.985  13.130 -0.5027 -0.7229 -1.4816
11716TIP3   OH256638   2.008   0.318   1.247 -0.3892 -0.2543  0.3838
11716TIP3    H156639   1.917   0.299   1.268  0.0310 -0.1847  2.3878
11716TIP3    H256640   2.058   0.245   1.286  0.6595  1.3978  2.2312
11717TIP3   OH256641   6.751   3.174  10.763 -0.3876  0.1911  0.1875
11717TIP3    H156642   6.731   3.264  10.788 -0.6105  0.0242  0.6076
11717TIP3    H256643   6.797   3.138  10.839 -1.2858 -0.3958  0.4608
11718TIP3   OH256644   2.123   0.766  12.399  0.2694 -0.2462  0.1988
11718TIP3    H156645   2.109   0.861  12.394  1.6916 -0.0589 -0.5206
11718TIP3    H256646   2.173   0.754  12.480 -0.5945 -0.4845  0.7105
11719TIP3   OH256647   1.093   4.208  15.503  0.2351  0.4485 -0.2515
11719TIP3    H156648   1.105   4.253  15.586 -0.4802 -0.0676  0.1339
11719TIP3    H256649   0.998   4.201  15.492  0.3316 -0.0526 -0.7980
11720TIP3   OH256650   3.397   6.378  15.358  0.5225  0.2183  0.1148
11720TIP3    H156651   3.324   6.317  15.371 -1.3281  2.7588  2.1663
11720TIP3    H256652   3.460   6.355  15.427  0.0980  0.2439  0.5137
11721TIP3   OH256653   5.381   4.096   4.863  0.1578  0.3629 -0.2001
11721TIP3    H156654   5.402   4.190   4.864  0.0397  0.3881  0.0269
11721TIP3    H256655   5.465   4.052   4.855  0.1797  0.5003 -0.7322
11722TIP3   OH256656   0.195   5.934  16.791 -0.0840  0.6362 -0.1290
11722TIP3    H156657   0.240   5.952  16.873 -0.1625  0.2362  0.0051
11722TIP3    H256658   0.104   5.955  16.809 -0.2773 -0.4324  0.2141
11723TIP3   OH256659   0.919   2.816   0.942  0.1555 -0.1219 -0.3818
11723TIP3    H156660   0.906   2.737   0.891  1.5832 -1.8776  1.8529
11723TIP3    H256661   1.014   2.826   0.947  0.0215  0.4814  1.2250
11724TIP3   OH256662   1.736   2.817  16.491 -0.0390  0.0608 -0.2961
11724TIP3    H156663   1.722   2.838  16.583  1.9204  2.9534 -0.6146
11724TIP3    H256664   1.655   2.844  16.448 -1.4385 -2.3898  0.6697
11725TIP3   OH256665   1.426   2.419   3.582  0.3118  0.3176  0.1233
11725TIP3    H156666   1.345   2.454   3.620 -0.1876 -0.0529 -0.5966
11725TIP3    H256667   1.491   2.487   3.599 -0.0919  0.5083  0.9263
11726TIP3   OH256668   4.159   5.601   5.525  0.0571 -0.3991 -0.0598
11726TIP3    H156669   4.124   5.589   5.614  0.8093 -1.3109  0.1203
11726TIP3    H256670   4.174   5.512   5.493 -0.1959 -0.0700 -1.1045
11727TIP3   OH256671   2.476   0.793  11.902  0.0485 -0.3434 -0.0420
11727TIP3    H156672   2.511   0.815  11.815  0.0021  2.9759  0.6940
11727TIP3    H256673   2.388   0.761  11.885 -0.3451  1.2802 -1.1878
11728TIP3   OH256674   2.852   4.821  12.953  0.2069  0.9099  0.3087
11728TIP3    H156675   2.918   4.773  13.003 -0.5954 -0.5268  0.0067
11728TIP3    H256676   2.776   4.824  13.010 -0.8879 -1.1875 -1.0038
11729TIP3   OH256677   0.976   0.083  15.022 -0.1200 -0.0366 -0.3823
11729TIP3    H156678   0.992   0.033  14.941  0.9876 -0.7798  0.2855
11729TIP3    H256679   1.020   0.033  15.090  1.9916  2.4178  0.1449
11730TIP3   OH256680   5.121   0.120  16.679 -0.1335 -0.5309 -0.4132
11730TIP3    H156681   5.063   0.054  16.641 -1.4056  0.1866  0.2407
11730TIP3    H256682   5.116   0.106  16.773  0.3068 -0.0910 -0.3180
11731TIP3   OH256683   2.165   5.761  14.134  0.6485  0.0695  0.6479
11731TIP3    H156684   2.160   5.665  14.131 -1.6864  0.2213 -2.8992
11731TIP3    H256685   2.073   5.788  14.144  1.1428  1.9782  0.0576
11732TIP3   OH256686   5.038   1.533  13.182 -0.0269  0.0586  0.2798
11732TIP3    H156687   4.957   1.531  13.132 -0.2690 -1.9383  0.6787
11732TIP3    H256688   5.104   1.498  13.122 -0.2559 -2.0374  1.1720
11733TIP3   OH256689   2.917   4.079  11.469  0.1106 -0.0367 -0.2043
11733TIP3    H156690   2.862   4.062  11.392  0.2216 -0.3557 -0.2127
11733TIP3    H256691   2.983   4.141  11.438 -0.9758  1.3098  0.1153
11734TIP3   OH256692   4.846   0.351   5.897  0.2265 -0.1981 -0.1420
11734TIP3    H156693   4.770   0.374   5.950  0.2650  0.8511 -0.5344
11734TIP3    H256694   4.918   0.346   5.960  0.1318  0.3248  0.0049
11735TIP3   OH256695   2.599   1.714  17.209  0.2759  0.1277 -0.3645
11735TIP3    H156696   2.574   1.628  17.176 -0.5555 -0.0082  0.6099
11735TIP3    H256697   2.671   1.741  17.152 -0.1699 -0.7423 -1.3585
11736TIP3   OH256698   1.707   5.845  16.272  0.0048  0.2376  0.3112
11736TIP3    H156699   1.752   5.772  16.314  2.2507  1.4264  0.0372
11736TIP3    H256700   1.736   5.843  16.181  1.2792  2.3382  0.6306
11737TIP3   OH256701   0.231   0.700   2.968 -0.0640 -0.6862  0.5520
11737TIP3    H156702   0.326   0.704   2.976 -0.0529 -1.6471  0.9389
11737TIP3    H256703   0.206   0.620   3.015 -0.9890 -0.8497 -0.2068
11738TIP3   OH256704   4.263   3.666   3.376 -0.5872 -0.0978 -0.2222
11738TIP3    H156705   4.310   3.612   3.441 -0.6075 -0.2745 -0.3531
11738TIP3    H256706   4.201   3.717   3.428  1.4991  2.0241  0.2499
11739TIP3   OH256707   1.304   2.892   5.254 -0.5136 -0.3143  0.0496
11739TIP3    H156708   1.288   2.846   5.337 -1.2022  1.3619  0.8771
11739TIP3    H256709   1.391   2.862   5.227  0.7932  0.9444  2.6436
11740TIP3   OH256710   2.967   6.415   4.373  0.4985  0.0065  0.4641
11740TIP3    H156711   3.060   6.405   4.393  0.4396 -1.2842  0.0844
11740TIP3    H256712   2.926   6.335   4.405 -0.2448 -0.1413 -0.8281
11741TIP3   OH256713   4.561   2.343   0.848 -0.1682 -0.2102  0.0677
11741TIP3    H156714   4.647   2.374   0.876 -0.2786  0.9206 -0.7926
11741TIP3    H256715   4.541   2.271   0.907 -0.0998  1.6314  2.4066
11742TIP3   OH256716   6.816   3.236   0.010 -0.5290 -0.2044 -0.5434
11742TIP3    H156717   6.909   3.239   0.035 -0.5100  1.1145 -0.7291
11742TIP3    H256718   6.770   3.272   0.086 -1.1919 -3.7525  0.8221
11743TIP3   OH256719   5.550   4.650   1.655 -0.8522 -0.4893 -0.3316
11743TIP3    H156720   5.516   4.641   1.745 -3.4231 -0.9544 -1.3160
11743TIP3    H256721   5.482   4.696   1.608  0.8203  0.4418 -1.9148
11744TIP3   OH256722   6.325   5.325   0.549  0.0816 -0.3014 -0.1992
11744TIP3    H156723   6.311   5.232   0.531  1.5076 -0.5469 -0.1663
11744TIP3    H256724   6.411   5.328   0.592  0.3031  1.0836 -0.6999
11745TIP3   OH256725   0.500   1.276  15.243  0.3768 -0.1423 -0.4519
11745TIP3    H156726   0.576   1.281  15.300 -0.1461  1.0956  0.1679
11745TIP3    H256727   0.532   1.233  15.164  1.0517 -2.0756  0.8413
11746TIP3   OH256728   3.399   2.448  15.822 -0.2085  0.0389  0.1884
11746TIP3    H156729   3.488   2.475  15.843  0.8304 -2.6474 -0.4510
11746TIP3    H256730   3.402   2.428  15.728 -1.8752  1.2783 -0.1547
11747TIP3   OH256731   6.539   0.444  17.275  0.5943 -0.2132 -0.1238
11747TIP3    H156732   6.532   0.528  17.229  1.5572  0.5812  1.1182
11747TIP3    H256733   6.453   0.403  17.264  0.3196  0.6467 -1.2944
11748TIP3   OH256734   1.954   2.840  16.998  0.6166  0.3399 -0.1088
11748TIP3    H156735   1.902   2.784  16.941 -0.5025  1.9534 -0.7123
11748TIP3    H256736   2.027   2.870  16.943  2.0894 -1.7297  0.6633
11749TIP3   OH256737   3.430   2.229  15.067  0.1592 -0.0102 -0.3544
11749TIP3    H156738   3.478   2.262  14.992 -0.5627 -0.0862 -0.8604
11749TIP3    H256739   3.441   2.134  15.063 -0.2253 -0.0449 -0.6051
11750TIP3   OH256740   4.231   1.697   1.526  0.2172  0.0106  0.3183
11750TIP3    H156741   4.214   1.668   1.616 -0.7950  1.4023  0.5939
11750TIP3    H256742   4.320   1.668   1.508 -0.7661 -3.3289  0.5232
11751TIP3   OH256743   0.151   4.012   3.631 -0.2567 -0.1863 -0.0578
11751TIP3    H156744   0.079   4.071   3.608 -0.2961 -1.0265 -2.2610
11751TIP3    H256745   0.229   4.068   3.627 -0.6122  0.3617  0.7044
11752TIP3   OH256746   1.535   0.676   0.723  0.6775 -0.8366 -0.5299
11752TIP3    H156747   1.459   0.618   0.728  0.2209 -0.1195  1.4296
11752TIP3    H256748   1.603   0.629   0.771  0.9379 -0.6716 -0.7402
11753TIP3   OH256749   6.807   0.652   1.254 -0.7663 -0.0662 -0.3885
11753TIP3    H156750   6.825   0.744   1.270  0.2611  0.0270 -1.8608
11753TIP3    H256751   6.891   0.608   1.270 -1.2436 -0.7399  0.2982
11754TIP3   OH256752   4.810   1.027   4.169  0.6796  0.6846  0.2558
11754TIP3    H156753   4.762   1.078   4.104 -0.1519 -0.3758  0.0045
11754TIP3    H256754   4.761   1.040   4.250  0.5566  0.4253  0.2257
11755TIP3   OH256755   3.339   0.452   5.184 -0.1322 -0.4068  0.8485
11755TIP3    H156756   3.363   0.380   5.125 -0.8251  0.4392 -0.4963
11755TIP3    H256757   3.402   0.521   5.164  0.9295 -0.8552  2.5893
11756TIP3   OH256758   5.299   1.446  16.160  0.2865 -0.6323 -0.1287
11756TIP3    H156759   5.335   1.385  16.226 -0.7764 -0.8889  0.2281
11756TIP3    H256760   5.215   1.407  16.136  0.3498 -0.1535 -1.1155
11757TIP3   OH256761   0.837   3.723   0.515  0.2029 -0.0908  0.9480
11757TIP3    H156762   0.809   3.662   0.583  0.1663  0.3180  1.2937
11757TIP3    H256763   0.772   3.793   0.516  0.6125  0.2948  0.9972
11758TIP3   OH256764   0.121   1.852  10.991 -0.1122  0.1320  0.5506
11758TIP3    H156765   0.028   1.873  10.990 -0.3335 -0.6678  2.9941
11758TIP3    H256766   0.165   1.937  10.996 -0.6671  0.5203 -0.8136
11759TIP3   OH256767   0.466   0.668   2.354 -0.1935 -0.2123  0.1716
11759TIP3    H156768   0.536   0.678   2.418 -1.0673 -0.3019  1.1445
11759TIP3    H256769   0.465   0.575   2.333  0.3066 -0.1321 -0.2258
11760TIP3   OH256770   4.751   4.472  13.932  0.8387 -0.1798  0.3082
11760TIP3    H156771   4.800   4.391  13.920  0.5911 -0.2446 -0.2522
11760TIP3    H256772   4.782   4.506  14.016  0.2618 -1.3431  1.0100
11761TIP3   OH256773   1.200   0.567  16.757  0.8847 -0.1371  0.0195
11761TIP3    H156774   1.239   0.524  16.833 -0.0277  0.3668  0.7893
11761TIP3    H256775   1.148   0.639  16.794 -1.5705 -1.3874 -0.8901
11762TIP3   OH256776   3.953   5.462   6.114 -0.3563 -0.2994  0.2106
11762TIP3    H156777   3.976   5.370   6.128  3.5285  0.3324 -1.5757
11762TIP3    H256778   4.002   5.509   6.181  0.8394  0.8024 -1.4216
11763TIP3   OH256779   3.709   0.907   4.939  0.6159  0.2543 -0.0014
11763TIP3    H156780   3.755   0.975   4.891  2.5501  0.7535  2.4330
11763TIP3    H256781   3.779   0.857   4.982 -0.9543 -1.1311  0.9949
11764TIP3   OH256782   6.050   6.064  17.147  0.4560 -0.2717  0.6481
11764TIP3    H156783   6.032   6.047  17.055  0.4628  1.2901  0.3410
11764TIP3    H256784   6.103   6.144  17.147  0.7873 -0.4660  1.9908
11765TIP3   OH256785   0.821   0.747  11.852  0.0759  0.5132 -0.5229
11765TIP3    H156786   0.816   0.706  11.766 -3.7114 -2.1220  0.8217
11765TIP3    H256787   0.778   0.832  11.840 -0.2723  0.2349 -1.2806
11766TIP3   OH256788   3.604   5.650  15.072  0.5063  0.7410 -0.0778
11766TIP3    H156789   3.649   5.725  15.035  0.8901  0.2266 -0.6606
11766TIP3    H256790   3.570   5.602  14.996  1.3777 -0.3723  0.2109
11767TIP3   OH256791   4.060   5.646  14.462  0.0114  0.2103  0.5202
11767TIP3    H156792   4.056   5.707  14.388 -1.8834 -1.5227 -0.8709
11767TIP3    H256793   4.128   5.583  14.438 -0.5949 -0.3450  0.2495
11768TIP3   OH256794   0.587   1.410  13.382 -0.5280  0.1952  0.0612
11768TIP3    H156795   0.493   1.408  13.400 -0.5158  1.9710  0.3708
11768TIP3    H256796   0.593   1.410  13.286 -0.8857  1.4458  0.0313
11769TIP3   OH256797   0.500   4.516   0.619  0.3685 -0.2678  0.2622
11769TIP3    H156798   0.567   4.543   0.556 -0.3779  0.6778 -0.1400
11769TIP3    H256799   0.455   4.443   0.576 -0.1452  0.3811 -0.3120
11770TIP3   OH256800   3.819   1.365  12.906  0.0081  0.4272  0.3836
11770TIP3    H156801   3.748   1.350  12.968 -0.5041 -1.2904 -0.5864
11770TIP3    H256802   3.775   1.377  12.821  0.9151 -2.4061 -0.5363
11771TIP3   OH256803   5.683   4.570  15.545  0.6673 -0.0278  0.4608
11771TIP3    H156804   5.653   4.503  15.606  0.6431  0.0631  0.5501
11771TIP3    H256805   5.764   4.536  15.507  0.6904 -0.0766  0.5566
11772TIP3   OH256806   4.166   3.799  16.506  0.4794  0.4892  0.0692
11772TIP3    H156807   4.205   3.872  16.458  0.2224  1.0164  0.6548
11772TIP3    H256808   4.146   3.835  16.593  0.2360 -0.2404  0.3208
11773TIP3   OH256809   0.357   4.190  13.793 -0.1212 -0.3353 -0.5570
11773TIP3    H156810   0.340   4.144  13.875  0.0469  1.6615  0.6361
11773TIP3    H256811   0.424   4.138  13.749 -2.9712 -3.5698 -1.2758
11774TIP3   OH256812   4.079   1.399  12.951  0.5804  0.3328  0.2499
11774TIP3    H156813   4.112   1.310  12.941  0.5554  0.3926 -0.3692
11774TIP3    H256814   3.987   1.394  12.928  0.7553  0.6667 -0.5276
11775TIP3   OH256815   5.161   4.241  14.954  0.0837 -0.3805 -0.1093
11775TIP3    H156816   5.229   4.296  14.914 -0.4252  0.4452  0.1588
11775TIP3    H256817   5.207   4.191  15.021  0.3677  0.3939  0.2719
11776TIP3   OH256818   1.336   1.787   1.958  0.5757 -0.2434 -0.1445
11776TIP3    H156819   1.354   1.772   2.050  0.9977 -1.2993 -0.3945
11776TIP3    H256820   1.279   1.715   1.932 -1.3513  1.2422 -0.1871
11777TIP3   OH256821   6.049   0.555  11.484 -0.5952 -0.1531  0.1949
11777TIP3    H156822   6.075   0.499  11.557  0.7156  1.0745  0.7031
11777TIP3    H256823   6.124   0.552  11.424 -1.4155 -0.6749 -0.8121
11778TIP3   OH256824   4.057   6.325   3.531  0.0531  0.1079  0.0075
11778TIP3    H156825   4.030   6.234   3.540 -0.3363  0.0959 -1.2162
11778TIP3    H256826   4.124   6.336   3.598  1.5329 -1.6491 -1.1281
11779TIP3   OH256827   5.966   5.635   1.430  0.7932  0.0417  0.7210
11779TIP3    H156828   6.056   5.651   1.458  1.3679 -0.8948 -0.5946
11779TIP3    H256829   5.936   5.563   1.485  1.0475 -0.0394  0.7536
11780TIP3   OH256830   6.162   4.193  15.675 -0.3530 -0.0194 -0.5239
11780TIP3    H156831   6.233   4.137  15.642  0.1768  0.5164 -0.3098
11780TIP3    H256832   6.164   4.181  15.770 -0.3417  0.2352 -0.4895
11781TIP3   OH256833   0.612   6.809  14.966 -0.2241  0.1571 -0.0805
11781TIP3    H156834   0.619   6.904  14.952 -1.3852  0.3207  0.3887
11781TIP3    H256835   0.700   6.783  14.994  0.3472  0.9397 -1.1254
11782TIP3   OH256836   4.887   5.218   4.377 -0.8252  0.0652  0.5398
11782TIP3    H156837   4.799   5.240   4.408 -0.5683 -0.7416  1.9026
11782TIP3    H256838   4.945   5.260   4.439 -0.2229  1.2296 -0.8022
11783TIP3   OH256839   4.823   0.023   3.410 -0.0166 -0.5928 -0.5044
11783TIP3    H156840   4.784  -0.047   3.463 -0.9741  1.0492  1.0268
11783TIP3    H256841   4.829   0.098   3.469  2.5036  0.1744 -1.6513
11784TIP3   OH256842   1.639   5.364   2.235 -0.1130 -0.3119 -0.2000
11784TIP3    H156843   1.637   5.303   2.161 -0.4633  0.0942 -0.5344
11784TIP3    H256844   1.700   5.325   2.297 -0.0180 -0.7932 -0.5898
11785TIP3   OH256845   1.324   5.838  12.356 -0.2481  0.2644 -0.7608
11785TIP3    H156846   1.406   5.881  12.332 -0.1940  0.3336 -0.4460
11785TIP3    H256847   1.295   5.883  12.435 -0.0977 -0.3927 -0.3204
11786TIP3   OH256848   5.094   6.433  15.334 -0.1293  0.3171  0.2202
11786TIP3    H156849   5.078   6.519  15.373  1.2632 -0.0901  1.7224
11786TIP3    H256850   5.144   6.385  15.400 -1.5568 -1.9315 -0.2660
11787TIP3   OH256851   6.325   3.047   4.458 -0.4091 -0.1933  0.1157
11787TIP3    H156852   6.408   3.085   4.486  0.2272 -0.4419 -1.3625
11787TIP3    H256853   6.263   3.119   4.461 -0.3629 -0.2135  2.0958
11788TIP3   OH256854   3.042   5.237   2.731  0.0862  0.2126 -0.2440
11788TIP3    H156855   3.135   5.254   2.750 -0.1628  0.5722  0.6711
11788TIP3    H256856   3.008   5.197   2.811 -0.1546 -1.5046 -1.1830
11789TIP3   OH256857   2.340   2.710  13.346  0.5486 -0.2002 -0.0272
11789TIP3    H156858   2.257   2.676  13.380  0.6152 -0.6534 -0.3138
11789TIP3    H256859   2.346   2.798  13.382  0.6042 -0.6694  1.1393
11790TIP3   OH256860   0.195   3.324   4.229  0.2228 -0.8204  0.0891
11790TIP3    H156861   0.252   3.400   4.244 -0.1276  0.0591 -2.7292
11790TIP3    H256862   0.252   3.257   4.194  0.0371 -0.8833 -0.0971
11791TIP3   OH256863   6.739   6.381   4.133 -0.1924  0.2040 -0.0589
11791TIP3    H156864   6.655   6.423   4.116  0.5201  1.4403 -0.6102
11791TIP3    H256865   6.766   6.347   4.047 -0.7426 -1.3662  0.3722
11792TIP3   OH256866   0.407   3.487  10.915  0.5698 -0.2264  0.4958
11792TIP3    H156867   0.444   3.412  10.869  2.0171 -0.0812  1.4159
11792TIP3    H256868   0.474   3.554  10.910  0.3684  0.1010  2.0235
11793TIP3   OH256869   2.949   2.616   2.312 -0.6972  0.1249  0.0587
11793TIP3    H156870   2.979   2.589   2.225 -0.8576 -1.7407  0.5732
11793TIP3    H256871   3.021   2.670   2.346 -1.0027  1.6186 -1.5611
11794TIP3   OH256872   0.276   1.545  14.043  0.0736  0.1851 -0.0110
11794TIP3    H156873   0.368   1.522  14.058  1.2368  3.6675 -1.1238
11794TIP3    H256874   0.245   1.480  13.981  1.5292 -1.5288  0.9881
11795TIP3   OH256875   4.927   1.742  12.278 -0.4510 -0.1620 -0.0205
11795TIP3    H156876   4.975   1.814  12.237 -0.4967 -0.3534 -0.4113
11795TIP3    H256877   4.992   1.672  12.287 -0.0361  0.4094  1.6523
11796TIP3   OH256878   1.831   0.991   3.810 -0.0435 -0.1782  0.2691
11796TIP3    H156879   1.874   1.073   3.835  1.7654 -0.7162 -1.0199
11796TIP3    H256880   1.884   0.923   3.851 -1.4699 -0.7444  1.2323
11797TIP3   OH256881   0.942   1.820   0.328 -0.4748  0.2498  0.6691
11797TIP3    H156882   0.956   1.727   0.347  0.8676  0.2610 -0.2006
11797TIP3    H256883   0.863   1.822   0.275 -1.7364 -0.1857  2.4924
11798TIP3   OH256884   3.573   4.908  12.540 -0.3590 -0.3523 -0.5015
11798TIP3    H156885   3.524   4.852  12.481 -0.4439 -0.7965 -0.0179
11798TIP3    H256886   3.635   4.955  12.484  0.3837 -1.6410 -0.7919
11799TIP3   OH256887   2.911   0.054  12.897  0.2826  0.0232  0.4024
11799TIP3    H156888   2.887   0.137  12.856  0.9292 -0.7733 -1.6700
11799TIP3    H256889   2.916  -0.008  12.824 -0.6514 -1.9482  1.9784
11800TIP3   OH256890   1.347   5.577  14.662 -0.0912  0.4557 -0.1278
11800TIP3    H156891   1.288   5.545  14.730 -0.5452  1.6470  0.0402
11800TIP3    H256892   1.373   5.498  14.614 -0.1471 -0.3284  1.1198
11801TIP3   OH256893   2.250   3.610  15.027  0.2734 -0.0034  0.8771
11801TIP3    H156894   2.329   3.596  14.975  0.0110 -1.4246  0.8213
11801TIP3    H256895   2.210   3.523  15.033 -0.5880  0.4561  2.0245
11802TIP3   OH256896   1.791   2.847   5.264 -0.5443  0.0249  0.0435
11802TIP3    H156897   1.877   2.866   5.301  0.3464 -0.2904 -1.8186
11802TIP3    H256898   1.784   2.752   5.265 -0.6766  0.0297 -0.2337
11803TIP3   OH256899   4.351   6.722   3.331 -0.3276 -0.7206 -0.0355
11803TIP3    H156900   4.368   6.816   3.322 -4.9788  0.1691 -0.9029
11803TIP3    H256901   4.300   6.714   3.411 -0.9290 -2.3369 -0.5526
11804TIP3   OH256902   6.468   5.860  11.433 -0.2252 -0.2592 -0.2170
11804TIP3    H156903   6.561   5.878  11.444 -0.0613 -1.2397  0.0145
11804TIP3    H256904   6.426   5.909  11.504 -0.1646  2.4912 -1.9881
11805TIP3   OH256905   1.814   2.338  16.197  0.2711 -0.1925 -0.1320
11805TIP3    H156906   1.782   2.313  16.284  1.6984  2.5070  1.2543
11805TIP3    H256907   1.768   2.420  16.178 -1.4013 -1.7029 -2.7803
11806TIP3   OH256908   6.819   1.067   1.537  0.7013 -0.1226 -0.2442
11806TIP3    H156909   6.760   1.102   1.470  0.1413 -0.0172  0.2983
11806TIP3    H256910   6.840   1.143   1.591  1.3329 -0.1618 -0.4338
11807TIP3   OH256911   3.860   1.334   5.352  0.4715 -0.2886  0.4713
11807TIP3    H156912   3.909   1.411   5.380  0.1703 -0.9202  2.8125
11807TIP3    H256913   3.784   1.331   5.411 -0.6435 -1.1991 -0.9548
11808TIP3   OH256914   3.761   1.495   6.084 -0.2890 -0.0500  0.4772
11808TIP3    H156915   3.724   1.448   6.159 -0.8694  0.9193  0.8006
11808TIP3    H256916   3.810   1.567   6.122  0.1130 -0.0403 -0.0463
11809TIP3   OH256917   3.033   5.938  11.649 -0.4933 -0.5431  0.1188
11809TIP3    H156918   3.111   5.969  11.695  0.9093 -1.6579 -1.4559
11809TIP3    H256919   2.968   6.008  11.663  0.4431 -0.0648  2.2700
11810TIP3   OH256920   0.870   5.468  16.702  0.7794  0.5280 -0.7707
11810TIP3    H156921   0.956   5.427  16.706  0.2436 -0.4564  1.3728
11810TIP3    H256922   0.809   5.401  16.734 -0.5030  1.9001 -0.2527
11811TIP3   OH256923   6.292   0.080  15.614  0.7922 -0.2939  0.1358
11811TIP3    H156924   6.206   0.098  15.652  1.3319  0.3598  1.0645
11811TIP3    H256925   6.314   0.159  15.565  1.9470  0.5259  1.9453
11812TIP3   OH256926   6.368   3.989  14.426 -0.0275 -0.5293 -0.2510
11812TIP3    H156927   6.320   3.964  14.505 -0.0711  0.0374 -0.0935
11812TIP3    H256928   6.312   3.960  14.354  0.7986 -2.5832 -0.1025
11813TIP3   OH256929   3.577   0.448  16.507  0.2603 -0.0294 -0.0323
11813TIP3    H156930   3.569   0.441  16.412 -2.3181  0.6526  0.0822
11813TIP3    H256931   3.643   0.382  16.531  1.0099 -0.1212 -2.2889
11814TIP3   OH256932   3.107   3.732  13.125  0.2938 -0.5161  0.0997
11814TIP3    H156933   3.130   3.647  13.086 -1.5374 -1.6814  1.4229
11814TIP3    H256934   3.096   3.791  13.050  1.7376 -1.4097 -0.8295
11815TIP3   OH256935   3.379   1.308   3.896  0.0712 -0.3611  0.0171
11815TIP3    H156936   3.427   1.390   3.907 -0.5244  0.3575 -2.4430
11815TIP3    H256937   3.381   1.292   3.801  1.2645 -3.8598  0.5689
11816TIP3   OH256938   3.473   5.100   5.048 -0.5244  0.0893  0.3921
11816TIP3    H156939   3.517   5.034   5.102 -0.1262 -0.1626 -0.2408
11816TIP3    H256940   3.539   5.168   5.035 -0.8799  0.5329  0.8946
11817TIP3   OH256941   1.969   1.131   3.423 -0.1655 -0.0476  0.4595
11817TIP3    H156942   1.900   1.181   3.468 -1.4331 -1.2027 -0.1875
11817TIP3    H256943   1.968   1.165   3.333 -0.6436 -0.8543  0.1643
11818TIP3   OH256944   6.019   5.019  12.564  0.1614  0.1297  0.0368
11818TIP3    H156945   6.016   4.949  12.629 -1.3217  1.3526  1.3501
11818TIP3    H256946   6.107   5.055  12.572 -0.2704  0.8544  2.0772
11819TIP3   OH256947   2.909   4.606   1.216 -0.5712 -0.3796  0.5028
11819TIP3    H156948   2.820   4.600   1.251 -0.8479  1.2723  0.1345
11819TIP3    H256949   2.897   4.627   1.123  0.1910  1.5646  0.8134
11820TIP3   OH256950   2.098   0.070  14.771  0.6958  0.3072 -0.2019
11820TIP3    H156951   2.048   0.020  14.707 -0.2263  0.2570  0.5451
11820TIP3    H256952   2.147   0.004  14.819  0.6992  0.2638 -0.2661
11821TIP3   OH256953   3.594   2.194   1.741  0.4939 -0.4706  0.1312
11821TIP3    H156954   3.588   2.145   1.659  0.6310  0.2954 -0.3508
11821TIP3    H256955   3.535   2.149   1.801  0.1572 -0.8603 -0.4888
11822TIP3   OH256956   3.029   5.084  14.986  0.5655  1.1226  0.1007
11822TIP3    H156957   3.080   5.157  14.950  1.9375  1.3393  2.3450
11822TIP3    H256958   3.060   5.076  15.076 -1.4706 -0.5339  0.6933
11823TIP3   OH256959   3.662   5.596  16.081 -0.3456 -0.0262  0.4906
11823TIP3    H156960   3.660   5.525  16.145  0.7683 -1.3519 -0.9134
11823TIP3    H256961   3.686   5.554  15.999  1.2141  2.1173 -0.1925
11824TIP3   OH256962   5.593   1.864  14.680 -0.2231  0.1542 -0.3511
11824TIP3    H156963   5.517   1.808  14.695 -0.3156  0.2121 -0.6025
11824TIP3    H256964   5.633   1.873  14.766  0.9860 -2.0089 -0.6606
11825TIP3   OH256965   2.582   2.205  13.803 -0.0717  0.0401  0.0108
11825TIP3    H156966   2.532   2.201  13.722  0.0398 -1.0015 -0.0203
11825TIP3    H256967   2.533   2.150  13.864 -0.3216  1.0712  0.7425
11826TIP3   OH256968   1.663   5.544  11.862  0.3544  0.0614 -0.0937
11826TIP3    H156969   1.612   5.573  11.787  1.6359  2.7173  0.0158
11826TIP3    H256970   1.754   5.549  11.833  0.7743 -0.4672  1.0894
11827TIP3   OH256971   5.534   4.469   2.449  0.4334  0.0772  0.0894
11827TIP3    H156972   5.515   4.395   2.505 -4.5917  3.6162  3.5010
11827TIP3    H256973   5.504   4.442   2.362  1.1082 -2.7578  0.7125
11828TIP3   OH256974   6.343   4.843  10.735  0.3942 -0.1270 -0.1201
11828TIP3    H156975   6.294   4.765  10.706 -0.3466  0.3670 -0.2113
11828TIP3    H256976   6.411   4.854  10.669  1.9775 -2.0606  1.1451
11829TIP3   OH256977   2.021   6.732   1.909  0.2095 -0.3453  0.1839
11829TIP3    H156978   1.951   6.785   1.946 -0.7190  0.8389 -3.1055
11829TIP3    H256979   2.085   6.796   1.877  0.6892 -1.2849 -0.7711
11830TIP3   OH256980   5.565   5.056  13.494 -0.5187  0.1359 -0.4516
11830TIP3    H156981   5.504   4.997  13.450 -0.3014  0.3767 -1.0899
11830TIP3    H256982   5.638   5.000  13.520 -1.5153 -0.3661  1.3392
11831TIP3   OH256983   1.495   5.107  12.274 -0.4569  0.0470 -0.0703
11831TIP3    H156984   1.448   5.184  12.241 -0.4574 -0.2010 -0.6556
11831TIP3    H256985   1.562   5.142  12.332  0.8914  0.6327 -1.9455
11832TIP3   OH256986   3.332   0.865   3.224 -0.1041 -0.7881 -0.1540
11832TIP3    H156987   3.417   0.878   3.181 -0.5528  1.4861 -0.4002
11832TIP3    H256988   3.268   0.895   3.160 -0.8381  1.8314  1.7276
11833TIP3   OH256989   5.827   2.871   4.325 -0.3028 -0.1604 -0.3536
11833TIP3    H156990   5.746   2.840   4.284 -0.6621 -0.2150  0.3977
11833TIP3    H256991   5.811   2.964   4.343 -0.7005 -0.4802  1.0053
11834TIP3   OH256992   3.772   2.103  17.027 -0.2628 -0.2937  0.3567
11834TIP3    H156993   3.863   2.130  17.017  0.1610 -1.5086  0.9142
11834TIP3    H256994   3.732   2.172  17.080 -0.2054  1.3269 -1.6278
11835TIP3   OH256995   4.639   4.617   0.853  0.1343  0.1380 -0.5171
11835TIP3    H156996   4.701   4.690   0.851 -0.8664  1.0559  0.7973
11835TIP3    H256997   4.668   4.558   0.784  1.8433  1.0649 -0.6047
11836TIP3   OH256998   3.657   0.661  15.275 -0.3681  0.8252 -0.0015
11836TIP3    H156999   3.694   0.673  15.363 -1.2247  1.4341  0.2728
11836TIP3    H257000   3.567   0.632  15.290 -0.3189  0.3101 -0.6764
11837TIP3   OH257001   1.419   3.914   0.247 -0.1345 -0.3174  0.3354
11837TIP3    H157002   1.423   4.009   0.263 -0.3969 -0.5774  2.0945
11837TIP3    H257003   1.488   3.878   0.304 -0.7738 -1.2811  0.5042
11838TIP3   OH257004   3.483   0.597  13.644 -0.0473  0.2884  0.0860
11838TIP3    H157005   3.417   0.663  13.664  1.1047  0.5566  3.2512
11838TIP3    H257006   3.459   0.522  13.698  1.5586 -0.0190  0.4029
11839TIP3   OH257007   5.715   6.030   5.907 -0.1543 -0.3110 -0.4859
11839TIP3    H157008   5.689   6.106   5.960  0.7764 -1.9704  2.4798
11839TIP3    H257009   5.638   6.012   5.852 -1.0724  1.6549  0.1067
11840TIP3   OH257010   5.585   1.268   2.280 -0.0714  0.1725 -0.4253
11840TIP3    H157011   5.651   1.203   2.302 -1.3972 -1.0047  0.2019
11840TIP3    H257012   5.558   1.245   2.191 -2.0512 -1.5257  0.5470
11841TIP3   OH257013   4.016   0.540  12.099 -0.1099 -0.3653 -0.0393
11841TIP3    H157014   3.945   0.500  12.149 -0.3818  0.3738  0.1772
11841TIP3    H257015   3.998   0.516  12.009  0.2810 -1.5551  0.1921
11842TIP3   OH257016   2.698   1.096  16.239 -0.6035 -0.1032 -0.0827
11842TIP3    H157017   2.641   1.111  16.163 -0.4269 -2.0823 -0.6434
11842TIP3    H257018   2.647   1.037  16.295 -0.2872  0.4845  0.8406
11843TIP3   OH257019   6.634   4.476  16.547 -0.6776 -0.2007 -0.2506
11843TIP3    H157020   6.632   4.535  16.471 -2.3138 -0.0208 -0.0803
11843TIP3    H257021   6.560   4.504  16.601  0.7581  0.0219  1.6899
11844TIP3   OH257022   5.031   6.110  13.488 -0.7036 -0.3086  0.1138
11844TIP3    H157023   5.059   6.043  13.550 -0.5565  0.1741  0.5723
11844TIP3    H257024   4.947   6.140  13.521 -0.5223  0.1038  0.2114
11845TIP3   OH257025   5.924   6.338  13.459  0.3115  0.5524 -0.0564
11845TIP3    H157026   5.923   6.380  13.545 -0.1808 -1.0389  0.7227
11845TIP3    H257027   5.992   6.271  13.465  0.0938  0.2490 -0.8191
11846TIP3   OH257028   3.234   2.906  14.577 -1.1125 -0.0904 -0.0516
11846TIP3    H157029   3.261   2.848  14.505 -2.1748  0.8294 -1.2116
11846TIP3    H257030   3.303   2.971  14.582 -1.9581  0.9575 -1.5359
11847TIP3   OH257031   2.327   2.466  11.794  0.7881  0.0477  0.7820
11847TIP3    H157032   2.331   2.518  11.874 -0.8319  0.1637  0.8009
11847TIP3    H257033   2.333   2.531  11.723  0.7110  0.0735  0.7996
11848TIP3   OH257034   3.532   1.903   5.000 -0.3362  0.5398 -0.3452
11848TIP3    H157035   3.457   1.933   5.051 -0.5694 -1.4522  0.5535
11848TIP3    H257036   3.584   1.852   5.062  1.2538  1.0767 -1.2230
11849TIP3   OH257037   5.988   4.235   4.891 -0.4738  0.2812  0.0241
11849TIP3    H157038   5.974   4.158   4.835 -0.9523 -0.5599  1.2701
11849TIP3    H257039   6.003   4.307   4.830  2.3891 -1.2425 -1.1716
11850TIP3   OH257040   4.463   5.676   4.269  0.3107  0.1817 -0.0649
11850TIP3    H157041   4.454   5.581   4.261  2.8319 -0.0023 -0.9884
11850TIP3    H257042   4.394   5.711   4.213  1.6064 -1.1266 -2.5529
11851TIP3   OH257043   3.211   0.746   0.392 -0.4099  0.3643  0.1310
11851TIP3    H157044   3.162   0.827   0.378 -0.7740  0.3720  1.3974
11851TIP3    H257045   3.148   0.686   0.432  0.2048 -0.1178  0.3908
11852TIP3   OH257046   6.742   1.937  14.656 -0.4148  0.3235  0.1753
11852TIP3    H157047   6.742   2.009  14.593 -1.4613  1.0910  1.0417
11852TIP3    H257048   6.796   1.969  14.728 -0.1177 -0.1308  0.1545
11853TIP3   OH257049   2.036   5.570   2.289  0.0540  0.3912  0.4915
11853TIP3    H157050   1.952   5.605   2.259 -0.4439 -1.0809  0.1192
11853TIP3    H257051   2.047   5.606   2.377 -1.1143  0.3550  0.6569
11854TIP3   OH257052   5.257   3.534   2.058 -0.2429 -0.6128 -0.0892
11854TIP3    H157053   5.315   3.525   1.982 -1.8685 -1.4391 -1.2508
11854TIP3    H257054   5.315   3.523   2.133  1.4737  0.6851 -1.1907
11855TIP3   OH257055   0.191   4.980  14.382 -0.0495 -0.9240  0.2613
11855TIP3    H157056   0.220   4.978  14.291 -0.5221  0.1592  0.0727
11855TIP3    H257057   0.167   4.890  14.402 -0.8706 -0.9970 -0.9959
11856TIP3   OH257058   3.447   6.552  14.702  0.3972 -0.8091 -0.8706
11856TIP3    H157059   3.464   6.618  14.634  1.0784  2.1555  2.0586
11856TIP3    H257060   3.352   6.543  14.703  0.0855  2.0480  0.3252
11857TIP3   OH257061   2.933   4.666  16.159  0.3383 -0.0323 -0.0073
11857TIP3    H157062   2.878   4.641  16.085  0.5219 -1.3139  0.2915
11857TIP3    H257063   2.942   4.587  16.211  3.7623 -0.2783 -0.8632
11858TIP3   OH257064   4.493   6.117  14.447 -0.4575  0.1185  0.2259
11858TIP3    H157065   4.476   6.210  14.428  0.2271  0.2102  0.0556
11858TIP3    H257066   4.576   6.117  14.493  1.3166 -0.7049 -2.8326
11859TIP3   OH257067   0.045   4.362  14.821 -0.1650  0.3225 -0.2014
11859TIP3    H157068   0.049   4.434  14.758  1.3963 -0.5712 -1.1683
11859TIP3    H257069  -0.008   4.296  14.778  1.1377 -0.4027 -0.7150
11860TIP3   OH257070   1.290   2.998  15.130 -0.1888  0.2785  0.3785
11860TIP3    H157071   1.334   2.976  15.048  1.1672 -1.5897  1.5557
11860TIP3    H257072   1.215   2.939  15.134  0.0781 -0.0465  0.7285
11861TIP3   OH257073   3.424   1.718  15.025 -0.5508 -0.1346 -0.0046
11861TIP3    H157074   3.423   1.802  15.071 -1.5932  0.7581 -1.6096
11861TIP3    H257075   3.506   1.719  14.975 -0.8456  0.1898 -0.4843
11862TIP3   OH257076   6.283   4.691  16.863  0.2832  0.1523 -0.6029
11862TIP3    H157077   6.356   4.641  16.898  1.1522  0.3463 -2.1076
11862TIP3    H257078   6.323   4.756  16.805 -1.0251  0.7184 -0.9049
11863TIP3   OH257079   6.744   0.250  17.279  0.1993 -0.5065 -0.4318
11863TIP3    H157080   6.810   0.263  17.211 -0.4432 -0.3809 -1.0362
11863TIP3    H257081   6.685   0.325  17.270 -0.3640 -0.9265 -0.2881
11864TIP3   OH257082   5.417   1.205  15.386 -0.0559 -0.4635  0.2164
11864TIP3    H157083   5.478   1.190  15.458  0.6031 -0.7562 -0.3971
11864TIP3    H257084   5.354   1.133  15.392  1.5834 -2.0614 -1.1374
11865TIP3   OH257085   5.140   5.831  12.656 -0.2661 -0.1237  0.1284
11865TIP3    H157086   5.083   5.908  12.660 -0.3071 -0.1042 -0.8320
11865TIP3    H257087   5.086   5.760  12.691 -0.7288 -0.0173 -0.3687
11866TIP3   OH257088   2.674   0.621   4.710  0.2075 -0.0121 -0.1149
11866TIP3    H157089   2.762   0.651   4.733  0.0465  1.2521 -1.1126
11866TIP3    H257090   2.653   0.666   4.628 -0.9320 -1.1534 -0.4671
11867TIP3   OH257091   4.438   2.192  16.702 -0.0995 -0.2350  0.4850
11867TIP3    H157092   4.494   2.159  16.772  0.3410 -0.3683  0.0752
11867TIP3    H257093   4.479   2.161  16.622 -1.5664 -1.5657  0.2242
11868TIP3   OH257094   6.307   0.315  14.426  0.1144 -0.4033  0.8303
11868TIP3    H157095   6.260   0.389  14.385  0.6672 -0.3235  0.3369
11868TIP3    H257096   6.357   0.355  14.497 -0.3008 -0.4378  1.1415
11869TIP3   OH257097   4.242   2.925  16.716  0.3471 -0.5405  0.0775
11869TIP3    H157098   4.148   2.930  16.698 -0.2886 -0.3370  3.1707
11869TIP3    H257099   4.257   2.834  16.739  0.5603 -0.2090  1.2818
11870TIP3   OH257100   0.899   4.923   6.489  0.0398 -0.3598  0.1161
11870TIP3    H157101   0.835   4.993   6.475 -1.6736 -2.0281 -0.4711
11870TIP3    H257102   0.912   4.921   6.584 -0.2282  0.4496  0.1744
11871TIP3   OH257103   3.483   1.786   3.382 -0.4455 -0.4857  0.1670
11871TIP3    H157104   3.497   1.825   3.469 -0.0336 -0.0510 -0.0911
11871TIP3    H257105   3.410   1.725   3.394  2.9672 -4.4378  2.0764
11872TIP3   OH257106   6.614   4.193   0.228 -0.0320  0.5622 -0.5781
11872TIP3    H157107   6.615   4.175   0.322 -1.8337  1.2148 -0.3990
11872TIP3    H257108   6.676   4.264   0.216  0.9549 -0.1896 -0.0518
11873TIP3   OH257109   6.675   6.022   5.896 -0.2359 -0.0064  0.3023
11873TIP3    H157110   6.704   6.032   5.987  0.6271  2.1300 -0.1698
11873TIP3    H257111   6.657   6.112   5.867  0.6175 -0.5505 -2.0049
11874TIP3   OH257112   0.045   5.994   1.141  0.6209  0.6734  0.3557
11874TIP3    H157113   0.079   5.944   1.066  0.1405  1.0063 -0.0852
11874TIP3    H257114  -0.008   6.063   1.102 -1.3400 -0.4140  1.0714
11875TIP3   OH257115   2.024   6.681  17.112 -0.1452  0.8109  0.2427
11875TIP3    H157116   1.949   6.655  17.058  0.3562  1.6536 -0.8774
11875TIP3    H257117   2.015   6.776  17.121  0.5872  0.8646  0.4090
11876TIP3   OH257118   1.819   2.172  17.174 -0.5353  0.5199 -0.3207
11876TIP3    H157119   1.727   2.168  17.146 -0.1950 -1.0339 -1.2518
11876TIP3    H257120   1.867   2.194  17.094  0.2932 -2.5000 -0.6948
11877TIP3   OH257121   1.693   1.254  12.209 -0.2272 -0.6612 -0.0599
11877TIP3    H157122   1.737   1.224  12.288 -0.2055  1.2326  0.6665
11877TIP3    H257123   1.753   1.232  12.138  1.9001  1.8470  0.8993
11878TIP3   OH257124   5.982   4.522   5.905 -0.1103  0.2126 -0.7219
11878TIP3    H157125   6.030   4.440   5.914 -2.0599 -1.2582 -3.0809
11878TIP3    H257126   5.898   4.506   5.948  0.1180  1.5861  0.2948
11879TIP3   OH257127   3.998   3.304   1.037  0.8659 -0.1798  0.1480
11879TIP3    H157128   3.989   3.387   1.084  0.1809  0.0852 -0.4412
11879TIP3    H257129   3.970   3.238   1.100  1.4618  0.0289  0.6378
11880TIP3   OH257130   2.836   3.536   2.805  0.1118 -0.2373 -0.0569
11880TIP3    H157131   2.742   3.548   2.793 -0.1011 -0.2935  1.5249
11880TIP3    H257132   2.876   3.580   2.730 -1.1707 -0.1308 -0.6784
11881TIP3   OH257133   4.644   4.019  15.750  0.3759 -0.3510  0.0814
11881TIP3    H157134   4.652   3.954  15.680  0.0665  0.2332 -0.4984
11881TIP3    H257135   4.678   3.974  15.828  3.8768  0.0740 -1.1000
11882TIP3   OH257136   2.370   4.755  16.613  0.1043 -0.2228  0.2666
11882TIP3    H157137   2.397   4.832  16.664 -0.3875  0.4961 -0.5436
11882TIP3    H257138   2.277   4.745  16.632 -0.2688  0.5436 -1.1150
11883TIP3   OH257139   6.375   2.336   3.701  0.2490 -0.3599 -0.3992
11883TIP3    H157140   6.417   2.400   3.643 -2.8510  2.3946  0.2486
11883TIP3    H257141   6.396   2.366   3.789 -2.4479  0.7573 -0.0726
11884TIP3   OH257142   4.474   0.103   3.172 -0.0633 -0.1914 -0.4270
11884TIP3    H157143   4.534   0.147   3.111 -0.4580  1.2407  0.1882
11884TIP3    H257144   4.387   0.132   3.145 -0.5060 -2.2375 -1.2997
11885TIP3   OH257145   4.533   3.644  15.256 -0.1089  0.1368  0.5461
11885TIP3    H157146   4.482   3.612  15.181 -0.0670  1.8796 -0.2289
11885TIP3    H257147   4.468   3.686  15.313 -0.0310 -0.5795  1.1857
11886TIP3   OH257148   1.834   4.626   4.058  0.4349 -0.2222 -0.0291
11886TIP3    H157149   1.750   4.583   4.072 -0.0876  1.3727  2.0687
11886TIP3    H257150   1.886   4.563   4.008 -2.2223 -0.9638 -1.9920
11887TIP3   OH257151   3.569   6.074  11.645  0.5704  0.2183  0.2315
11887TIP3    H157152   3.520   6.138  11.593  1.3219  0.5213 -0.1102
11887TIP3    H257153   3.578   6.115  11.731  2.2807  1.2058 -0.3913
11888TIP3   OH257154   4.337   2.913  11.591 -0.2099  0.0518  0.6664
11888TIP3    H157155   4.256   2.935  11.638 -0.1930  0.9066  0.2978
11888TIP3    H257156   4.312   2.841  11.533 -0.6059  0.0367  0.8540
11889TIP3   OH257157   5.867   3.704  13.007  0.1810 -0.0333 -0.5754
11889TIP3    H157158   5.883   3.790  13.046 -0.5772  0.4534 -1.3012
11889TIP3    H257159   5.828   3.653  13.078  0.3299  0.3258 -0.2295
11890TIP3   OH257160   0.544   4.274  10.355 -0.3958  0.3168  0.0165
11890TIP3    H157161   0.570   4.331  10.427  0.0392  0.3372 -0.1572
11890TIP3    H257162   0.617   4.212  10.346  0.9210  2.1476 -2.3593
11891TIP3   OH257163   3.992   1.720   2.239  0.8857  0.7194  0.6835
11891TIP3    H157164   4.047   1.780   2.289  1.6568  0.0496  0.6630
11891TIP3    H257165   4.023   1.633   2.265 -0.1393  0.3398  0.6318
11892TIP3   OH257166   0.684   2.778  15.008 -0.2328 -0.7921  0.1857
11892TIP3    H157167   0.628   2.828  14.950  1.5854 -0.6805 -1.5167
11892TIP3    H257168   0.690   2.831  15.088 -2.1040 -0.5754  0.2063
11893TIP3   OH257169   0.252   6.473   3.015  0.2216  0.3366  0.8197
11893TIP3    H157170   0.323   6.516   2.966  0.7469 -0.2302  1.0830
11893TIP3    H257171   0.172   6.516   2.983  0.7367  1.5256  1.0882
11894TIP3   OH257172   4.865   0.553  12.876  0.2329  0.6604 -0.2980
11894TIP3    H157173   4.935   0.584  12.819  0.1441  1.1983 -0.1209
11894TIP3    H257174   4.909   0.527  12.957  0.5183 -1.3881 -1.0917
11895TIP3   OH257175   3.259   4.375   5.088 -0.0534  0.7334 -0.2599
11895TIP3    H157176   3.188   4.312   5.082 -0.6729  1.2737  1.1093
11895TIP3    H257177   3.215   4.460   5.100  0.8146  0.9534  1.5545
11896TIP3   OH257178   5.576   0.262   1.905  0.1200  0.5194 -0.5867
11896TIP3    H157179   5.501   0.315   1.879 -0.6307  0.3475  1.1454
11896TIP3    H257180   5.651   0.305   1.865 -0.9513  0.3702 -2.8139
11897TIP3   OH257181   1.620   2.258  12.901  0.3347  0.9581  0.3156
11897TIP3    H157182   1.557   2.188  12.885  0.2969  0.6693  1.6447
11897TIP3    H257183   1.701   2.212  12.924  1.0410  1.3244 -1.3555
11898TIP3   OH257184   3.313   1.464   5.192 -0.1645  0.0146 -0.1551
11898TIP3    H157185   3.277   1.388   5.237 -0.5751 -0.3869 -1.1547
11898TIP3    H257186   3.386   1.492   5.247  0.7231 -1.8116 -0.3978
11899TIP3   OH257187   3.084   0.916  13.534  0.1709 -0.2139  0.1360
11899TIP3    H157188   3.032   0.852  13.484 -0.3894 -0.0360  0.4853
11899TIP3    H257189   3.083   0.994  13.479 -0.6807  0.0699  0.5504
11900TIP3   OH257190   4.397   3.813   4.609  0.6405 -0.0913 -0.2046
11900TIP3    H157191   4.436   3.853   4.531 -0.6767  0.7537 -0.4502
11900TIP3    H257192   4.384   3.722   4.585 -0.0231  0.2284 -1.0890
11901TIP3   OH257193   6.149   0.833   0.222 -0.4414 -0.3748  0.0738
11901TIP3    H157194   6.152   0.877   0.306  2.3373 -0.0616 -0.1313
11901TIP3    H257195   6.062   0.794   0.218 -1.3016  1.2413  2.2233
11902TIP3   OH257196   1.977   4.850   0.314 -0.5383  0.2424  0.0724
11902TIP3    H157197   2.037   4.784   0.279 -1.4508 -0.4129 -0.2783
11902TIP3    H257198   1.988   4.925   0.255 -2.2486 -0.9425 -1.8181
11903TIP3   OH257199   2.026   6.804  15.517  0.2813 -0.6088 -0.4573
11903TIP3    H157200   2.094   6.737  15.523  1.2658  0.5028  1.0908
11903TIP3    H257201   1.966   6.784  15.589 -0.5925 -1.0906 -1.3075
11904TIP3   OH257202   2.831   1.324   2.512 -0.3588  0.2539  0.3435
11904TIP3    H157203   2.796   1.267   2.581 -1.4785  2.3520  1.5403
11904TIP3    H257204   2.777   1.304   2.436  1.2241 -2.4597 -0.1188
11905TIP3   OH257205   1.217   2.438   1.170 -0.1852 -0.2158  0.3592
11905TIP3    H157206   1.235   2.447   1.263 -2.3092  0.9855  0.6712
11905TIP3    H257207   1.296   2.398   1.134  1.3663  0.9829  2.3625
11906TIP3   OH257208   4.776   6.159  15.066 -0.4648 -0.0871 -0.5951
11906TIP3    H157209   4.791   6.075  15.022 -0.5707 -0.2945 -0.2409
11906TIP3    H257210   4.849   6.167  15.127 -1.2864 -0.6741  0.4901
11907TIP3   OH257211   6.031   1.114   3.567 -0.3142 -0.0758 -0.4133
11907TIP3    H157212   5.977   1.173   3.618  0.9206 -0.1206  0.9717
11907TIP3    H257213   5.999   1.026   3.589 -0.4777 -0.0437 -0.5238
11908TIP3   OH257214   0.401   0.022  15.816  0.0643  0.3402  0.6475
11908TIP3    H157215   0.340   0.071  15.872 -0.8565  0.7050 -0.6500
11908TIP3    H257216   0.368  -0.068  15.819  0.6597  0.1493  1.5539
11909TIP3   OH257217   4.475   2.072  13.170 -0.1543 -0.2981  0.4055
11909TIP3    H157218   4.534   2.074  13.095  0.7865 -1.0102  1.1105
11909TIP3    H257219   4.429   1.989  13.162 -2.9897  1.4113 -1.5765
11910TIP3   OH257220   3.406   6.660  16.308  0.0893 -0.2939 -0.5420
11910TIP3    H157221   3.496   6.635  16.327 -0.4965 -2.7013 -0.8198
11910TIP3    H257222   3.412   6.751  16.279  2.3943 -0.3748 -0.3845
11911TIP3   OH257223   1.208   6.555  13.688  0.3488  0.5062 -0.3471
11911TIP3    H157224   1.114   6.559  13.668  0.1152 -0.8892  0.4631
11911TIP3    H257225   1.218   6.610  13.766  0.0167 -0.2366  0.2266
11912TIP3   OH257226   1.395   6.229   2.356  0.3615  0.4514  0.3155
11912TIP3    H157227   1.364   6.306   2.403 -0.8881 -1.3393  2.5390
11912TIP3    H257228   1.325   6.209   2.294  1.3085  1.8924 -1.2443
11913TIP3   OH257229   4.060   2.721  15.030 -0.0934  0.0429 -0.3100
11913TIP3    H157230   4.124   2.667  15.076 -0.6021  0.0553  0.4325
11913TIP3    H257231   3.981   2.667  15.027 -0.2995  0.3504 -0.4580
11914TIP3   OH257232   0.895   0.469   1.656  0.2811 -0.0288 -0.3416
11914TIP3    H157233   0.983   0.504   1.644  0.2963  0.5389  1.2764
11914TIP3    H257234   0.837   0.532   1.614  0.6910 -0.9205 -2.3223
11915TIP3   OH257235   3.666   4.177   1.807 -0.1846 -0.1954 -0.2068
11915TIP3    H157236   3.714   4.186   1.724 -0.6393 -1.4155 -0.6074
11915TIP3    H257237   3.583   4.223   1.792 -0.6230 -1.1526 -0.7161
11916TIP3   OH257238   1.506   2.593   6.372 -0.2481 -0.5278 -0.0192
11916TIP3    H157239   1.591   2.633   6.391 -0.1141 -0.0968 -1.4910
11916TIP3    H257240   1.476   2.561   6.457  0.1572  1.6977  1.0037
11917TIP3   OH257241   1.237   5.794   4.963  0.5161  0.6137  0.3999
11917TIP3    H157242   1.264   5.816   5.052  1.2207  3.4772 -0.4526
11917TIP3    H257243   1.318   5.763   4.921  0.5681  0.9119  0.2792
11918TIP3   OH257244   1.995   1.389  11.577  0.2406  0.5740  0.2164
11918TIP3    H157245   1.908   1.389  11.537  1.0832 -0.7627 -1.6768
11918TIP3    H257246   2.006   1.301  11.613  0.1967  1.2263  1.8858
11919TIP3   OH257247   5.473   4.561  15.297  0.0055 -0.6311  0.2960
11919TIP3    H157248   5.517   4.542  15.380 -0.9264 -0.7809  0.7581
11919TIP3    H257249   5.475   4.657  15.290  2.5302 -0.7158 -0.8586
11920TIP3   OH257250   3.312   2.397  13.320 -0.2803 -0.5316 -0.0180
11920TIP3    H157251   3.253   2.365  13.252 -1.2642  0.6051  0.2622
11920TIP3    H257252   3.301   2.492  13.317  0.8802 -0.3713  0.6458
11921TIP3   OH257253   5.627   6.095  17.288  0.0450  0.7458 -0.0387
11921TIP3    H157254   5.552   6.052  17.246  1.5729 -0.3041 -1.7734
11921TIP3    H257255   5.627   6.183  17.252 -1.0596  1.1415  0.8996
11922TIP3   OH257256   2.181   6.673  14.913 -0.3933  0.4487 -0.1756
11922TIP3    H157257   2.246   6.670  14.983  0.2867 -0.6821 -0.8409
11922TIP3    H257258   2.109   6.618  14.944  0.2538 -0.7088 -0.6917
11923TIP3   OH257259   2.844   3.529  15.476  0.2998 -0.3922 -0.2354
11923TIP3    H157260   2.820   3.439  15.454  1.1483 -1.1930  1.9983
11923TIP3    H257261   2.792   3.548  15.554 -0.8734  1.5521 -1.4435
11924TIP3   OH257262   6.245   0.729   0.600  0.0532  0.1967 -0.6654
11924TIP3    H157263   6.312   0.667   0.572  1.2606  1.1825 -0.0145
11924TIP3    H257264   6.293   0.796   0.650 -1.2055  1.6749 -1.3927
11925TIP3   OH257265   2.676   0.441  17.221  0.3078 -0.3508  0.2343
11925TIP3    H157266   2.598   0.478  17.182  0.1661  0.2590  1.0755
11925TIP3    H257267   2.672   0.347  17.201 -1.6344 -0.6602  1.8932
11926TIP3   OH257268   1.644   2.354   5.165  0.7241 -0.1171 -0.3125
11926TIP3    H157269   1.638   2.444   5.195  1.4460 -1.0544  2.7737
11926TIP3    H257270   1.733   2.326   5.188  1.2019 -1.0289 -3.0315
11927TIP3   OH257271   0.187   2.118  11.729  0.3235 -0.0011 -0.2216
11927TIP3    H157272   0.115   2.100  11.790  0.4733 -1.1526 -0.3700
11927TIP3    H257273   0.146   2.166  11.657 -0.0479  0.4809  0.3088
11928TIP3   OH257274   6.774   6.236  14.350 -0.3453 -0.0587 -0.3516
11928TIP3    H157275   6.853   6.222  14.299  1.2398 -0.2986  2.0499
11928TIP3    H257276   6.762   6.155  14.398  0.7888  1.6291  2.9722
11929TIP3   OH257277   5.105   3.259   2.118  0.3451  0.6685  0.2717
11929TIP3    H157278   5.183   3.282   2.068 -0.4719  1.3746 -0.7046
11929TIP3    H257279   5.033   3.271   2.056 -0.2328 -3.6431 -0.0591
11930TIP3   OH257280   4.216   5.235   5.722 -0.1957  0.0394  0.5904
11930TIP3    H157281   4.303   5.204   5.699 -0.2903 -0.2943  0.6768
11930TIP3    H257282   4.166   5.232   5.640  0.2538  1.5222  0.2575
11931TIP3   OH257283   6.698   4.098  12.692 -0.2142  0.3338 -0.4312
11931TIP3    H157284   6.665   4.012  12.668  0.4055  0.3153 -1.2199
11931TIP3    H257285   6.620   4.151  12.708 -0.5934 -0.2691 -0.2946
11932TIP3   OH257286   2.949   0.800  12.095  0.0468  0.2128 -0.2824
11932TIP3    H157287   2.973   0.715  12.133 -1.8588 -0.2144  0.0294
11932TIP3    H257288   2.920   0.779  12.006  0.9941  0.7552 -0.7362
11933TIP3   OH257289   5.711   0.520  16.005  0.0959  0.0234 -0.1391
11933TIP3    H157290   5.683   0.582  15.938  0.1197 -0.7754 -0.8924
11933TIP3    H257291   5.689   0.563  16.088 -3.1288 -0.4277 -0.6934
11934TIP3   OH257292   6.025   0.249   2.562 -0.2201 -0.4211  0.9591
11934TIP3    H157293   5.938   0.237   2.523 -1.5281  1.0447  3.2975
11934TIP3    H257294   6.064   0.320   2.510 -0.6799 -0.6456  0.2987
11935TIP3   OH257295   1.086   1.720   6.134 -0.2536 -0.2061  0.0620
11935TIP3    H157296   1.037   1.796   6.162 -0.3921  0.1391 -1.0884
11935TIP3    H257297   1.153   1.708   6.201 -0.7000  0.4743  0.6303
11936TIP3   OH257298   5.357   1.514   1.858  0.1374 -0.0487  0.1798
11936TIP3    H157299   5.418   1.530   1.787 -0.8011  2.0701 -0.1572
11936TIP3    H257300   5.275   1.491   1.815 -0.1893  0.3441  0.5906
11937TIP3   OH257301   6.436   1.944  14.814  0.0663  0.1672 -0.2850
11937TIP3    H157302   6.384   1.917  14.739 -0.0168 -1.1280  0.2214
11937TIP3    H257303   6.496   2.010  14.780  0.3486 -0.7512 -1.5880
11938TIP3   OH257304   1.809   0.660  12.836  0.7193 -0.1689  0.7072
11938TIP3    H157305   1.880   0.704  12.882  0.0353 -0.8137  2.3923
11938TIP3    H257306   1.853   0.596  12.779  1.5517  0.4512  0.6552
11939TIP3   OH257307   2.950   5.196   5.380  0.2770  0.2294  0.5859
11939TIP3    H157308   2.959   5.280   5.425 -0.5724  0.2133  0.7949
11939TIP3    H257309   2.891   5.214   5.308 -0.5997 -0.3888  1.1443
11940TIP3   OH257310   3.150   1.160   1.960 -0.7477  0.2310 -0.2478
11940TIP3    H157311   3.094   1.101   2.009  0.6611  0.2914  1.4837
11940TIP3    H257312   3.094   1.235   1.939 -1.5600 -0.1147  0.6538
11941TIP3   OH257313   1.400   2.888  13.707  0.1599  0.5350  0.6548
11941TIP3    H157314   1.375   2.976  13.679 -0.2052 -0.0763 -1.0091
11941TIP3    H257315   1.485   2.900  13.750  0.1365  1.6846  0.4032
11942TIP3   OH257316   2.648   6.175  13.835  0.3679  0.4340  0.3330
11942TIP3    H157317   2.723   6.119  13.815 -0.4732 -0.3232 -0.7773
11942TIP3    H257318   2.575   6.114  13.844 -0.2379  1.2202  0.7398
11943TIP3   OH257319   0.044   2.804   0.692 -0.9903  0.0201 -0.2387
11943TIP3    H157320   0.128   2.796   0.648 -0.3356  0.8034  0.8570
11943TIP3    H257321   0.054   2.756   0.773 -1.4614  0.4578  0.0872
11944TIP3   OH257322   6.426   3.933  16.913  0.4354 -0.3555 -0.1904
11944TIP3    H157323   6.361   3.867  16.938  1.5359 -1.5943 -0.5428
11944TIP3    H257324   6.481   3.943  16.990 -0.4772  1.0764  0.2808
11945TIP3   OH257325   4.644   1.174   4.814  0.9514 -0.2820  0.4540
11945TIP3    H157326   4.579   1.108   4.839 -0.0341  0.4333 -0.2171
11945TIP3    H257327   4.618   1.202   4.727  1.6764  0.6216  0.5202
11946TIP3   OH257328   4.265   1.396   2.893 -0.4084 -0.0077  0.4166
11946TIP3    H157329   4.326   1.323   2.904 -0.9615 -0.7470 -1.2785
11946TIP3    H257330   4.318   1.475   2.907  0.5655 -0.6871  0.5514
11947TIP3   OH257331   2.196   0.539  11.171 -0.1783 -0.1984  0.6351
11947TIP3    H157332   2.213   0.533  11.077  0.1735  0.3139  0.6560
11947TIP3    H257333   2.209   0.632  11.191 -0.2464 -0.3049  1.1872
11948TIP3   OH257334   6.164   3.331  14.518 -0.4264 -0.3448 -0.3478
11948TIP3    H157335   6.142   3.251  14.471 -1.4726  0.6683 -1.6076
11948TIP3    H257336   6.227   3.376  14.462 -0.5223  0.1335 -0.0774
11949TIP3   OH257337   5.533   3.926  15.328  0.2546 -0.0355 -0.6073
11949TIP3    H157338   5.567   4.015  15.342 -0.7459  0.2092  0.3216
11949TIP3    H257339   5.455   3.922  15.382  1.0677 -1.9679  0.4607
11950TIP3   OH257340   3.747   5.142   4.902  0.0764 -0.4878 -0.0528
11950TIP3    H157341   3.812   5.084   4.862  1.5491  1.6507 -0.8510
11950TIP3    H257342   3.799   5.201   4.957 -1.1312  1.4400 -0.9461
11951TIP3   OH257343   0.996   5.024  16.797 -0.4789 -0.1375  0.1754
11951TIP3    H157344   0.974   4.981  16.879  0.3686 -0.7586  0.0845
11951TIP3    H257345   0.996   4.954  16.732 -0.9401  0.3166 -0.3195
11952TIP3   OH257346   5.903   2.339  11.399 -0.2365  0.4126 -0.1110
11952TIP3    H157347   5.940   2.325  11.312  2.4966  1.1592  0.8765
11952TIP3    H257348   5.955   2.283  11.457 -3.1298 -1.3681  0.8448
11953TIP3   OH257349   0.217   1.246  17.003 -0.6625  0.1152 -0.2247
11953TIP3    H157350   0.125   1.262  17.024 -0.8563 -0.4343 -0.6376
11953TIP3    H257351   0.243   1.175  17.060 -0.2512  0.8261  0.4864
11954TIP3   OH257352   0.698   1.698  15.745 -0.2148 -0.0533  0.1836
11954TIP3    H157353   0.707   1.755  15.669  3.7532 -2.4402 -1.3058
11954TIP3    H257354   0.739   1.747  15.816  1.8971 -0.3941 -0.7616
11955TIP3   OH257355   0.257   0.075   1.872 -0.5792  0.6231 -0.1018
11955TIP3    H157356   0.215  -0.010   1.861 -2.2762  1.4043  0.2255
11955TIP3    H257357   0.286   0.099   1.784 -2.2431  0.7834 -0.6230
11956TIP3   OH257358   1.775   0.313   0.460 -0.1170  0.0279 -0.3263
11956TIP3    H157359   1.739   0.365   0.388 -0.1678  0.7849  0.2471
11956TIP3    H257360   1.721   0.335   0.536  1.0325  0.5517  0.3479
11957TIP3   OH257361   0.096   5.866   3.323  0.3769 -0.3128  0.1692
11957TIP3    H157362   0.143   5.823   3.251 -0.7278 -1.7181  0.2725
11957TIP3    H257363   0.137   5.831   3.402 -0.5751 -1.2366  0.2537
11958TIP3   OH257364   0.645   4.109   0.542 -0.2914  0.2854 -0.5163
11958TIP3    H157365   0.611   4.050   0.610  0.2305  0.5024 -0.0625
11958TIP3    H257366   0.697   4.052   0.486  1.3607  0.5382  0.7127
11959TIP3   OH257367   6.639   1.519   3.979  0.8376  0.1851  0.1456
11959TIP3    H157368   6.707   1.574   3.940 -0.8181  1.5934 -0.8495
11959TIP3    H257369   6.564   1.578   3.990 -0.2772 -1.3664  1.0497
11960TIP3   OH257370   1.770   4.368  16.309  0.3085  0.0331 -0.3411
11960TIP3    H157371   1.697   4.319  16.345  0.7886  0.0012  0.6060
11960TIP3    H257372   1.735   4.410  16.231 -0.2709 -1.3099 -0.8109
11961TIP3   OH257373   6.148   6.412   3.940 -0.1124 -0.0151 -0.0168
11961TIP3    H157374   6.171   6.495   3.983  0.6998 -0.4680  0.4301
11961TIP3    H257375   6.054   6.418   3.926 -0.2365  0.5281  1.0059
11962TIP3   OH257376   4.084   5.164  16.770 -0.3094  0.5867 -0.2753
11962TIP3    H157377   4.162   5.108  16.776 -1.3964 -0.9811 -0.3005
11962TIP3    H257378   4.106   5.227  16.701 -0.1121 -1.6386 -2.3337
11963TIP3   OH257379   2.926   3.331  16.884  0.6675  0.6784  0.1651
11963TIP3    H157380   3.019   3.337  16.863  0.5281  0.9716 -0.3724
11963TIP3    H257381   2.922   3.270  16.958  1.4079  1.6511  1.0186
11964TIP3   OH257382   5.109   0.930   2.906 -0.0954  0.5884 -0.4458
11964TIP3    H157383   5.193   0.932   2.860  0.2952  1.0617  0.2776
11964TIP3    H257384   5.121   0.990   2.980 -0.8982  0.2584 -0.0440
11965TIP3   OH257385   2.070   0.429   6.140 -0.3995 -0.2066 -0.0575
11965TIP3    H157386   2.125   0.490   6.091 -0.7578 -0.6375 -1.0213
11965TIP3    H257387   1.992   0.479   6.161 -0.5218 -0.2030 -0.5029
11966TIP3   OH257388   3.134   3.555   0.497 -0.3703  0.1628 -0.4710
11966TIP3    H157389   3.165   3.616   0.565  2.7989  0.1474 -1.7784
11966TIP3    H257390   3.055   3.516   0.533 -0.5163  2.4775  1.8735
11967TIP3   OH257391   1.017   6.184   3.351  0.4335 -0.2895  0.0078
11967TIP3    H157392   1.031   6.227   3.435  0.1086  1.2940 -0.7370
11967TIP3    H257393   0.923   6.167   3.348  0.6750 -1.9084  0.6814
11968TIP3   OH257394   5.295   2.781   1.554  0.5456 -0.1750 -0.0295
11968TIP3    H157395   5.387   2.806   1.563  0.4893 -0.3826  1.3832
11968TIP3    H257396   5.249   2.863   1.538  0.9187 -0.0029 -0.2267
11969TIP3   OH257397   1.193   1.030  17.073  0.3706  0.0902 -0.1189
11969TIP3    H157398   1.257   0.961  17.095 -0.1470 -0.7191 -1.0926
11969TIP3    H257399   1.164   1.063  17.158  1.1363 -0.4145  0.3553
11970TIP3   OH257400   4.452   3.761  12.653 -0.6447  0.7678 -0.0193
11970TIP3    H157401   4.367   3.751  12.610  0.0849 -0.3829 -1.2167
11970TIP3    H257402   4.511   3.789  12.583 -0.3566  3.1962  1.1287
11971TIP3   OH257403   3.287   1.035  15.743  0.2973 -0.1998 -0.2561
11971TIP3    H157404   3.368   1.084  15.735 -0.6590  1.0661 -2.4334
11971TIP3    H257405   3.315   0.943  15.749  1.9371  0.3478  0.9215
11972TIP3   OH257406   0.636   6.290   1.529  0.1512  0.0427 -0.2739
11972TIP3    H157407   0.587   6.353   1.476  1.7873 -0.4746 -2.4526
11972TIP3    H257408   0.591   6.207   1.515  0.6519 -0.1166 -0.9806
11973TIP3   OH257409   0.852   6.496   1.279  0.0597 -0.1715 -0.3509
11973TIP3    H157410   0.814   6.439   1.212  1.0403 -0.8624 -0.3266
11973TIP3    H257411   0.777   6.524   1.332 -0.8844  1.2931 -2.4158
11974TIP3   OH257412   2.845   6.325   2.502 -0.8453 -0.1862 -0.2053
11974TIP3    H157413   2.903   6.376   2.559 -0.3023  0.8952 -1.7158
11974TIP3    H257414   2.841   6.239   2.544 -1.0916  0.8032  1.9165
11975TIP3   OH257415   5.365   0.830   1.808 -0.4631  0.5032  0.0897
11975TIP3    H157416   5.445   0.855   1.854  0.0777  1.1104 -1.1607
11975TIP3    H257417   5.384   0.744   1.771 -0.5498  0.4441  0.1825
11976TIP3   OH257418   5.040   6.405  17.066  0.7105  0.6000 -0.1007
11976TIP3    H157419   5.027   6.327  17.012  0.9322  0.5571 -0.0909
11976TIP3    H257420   4.977   6.396  17.137  0.2508  0.7693 -0.4754
11977TIP3   OH257421   3.312   1.251   1.741 -0.1925  0.1080  0.1731
11977TIP3    H157422   3.384   1.203   1.700 -0.9763  0.4259 -1.6242
11977TIP3    H257423   3.262   1.184   1.786  0.0985 -0.4182 -0.2732
11978TIP3   OH257424   1.560   0.883   1.432  0.6621  0.5534 -0.1500
11978TIP3    H157425   1.634   0.830   1.461  0.0595  0.0042  0.3837
11978TIP3    H257426   1.554   0.953   1.498 -0.6785 -0.6684  1.0393
11979TIP3   OH257427   0.156   1.509  14.897 -0.1147  0.6299 -0.5566
11979TIP3    H157428   0.182   1.537  14.810  0.3581  1.1996 -0.2346
11979TIP3    H257429   0.074   1.461  14.884 -0.0912  0.7951 -1.2961
11980TIP3   OH257430   1.546   3.600  11.920 -0.0760  0.2634  0.0102
11980TIP3    H157431   1.459   3.562  11.929 -0.4638  1.1693  0.1879
11980TIP3    H257432   1.597   3.533  11.876 -0.5522 -0.7306  0.9628
11981TIP3   OH257433   6.466   5.332  11.719  0.1343  0.0007 -0.2894
11981TIP3    H157434   6.462   5.424  11.743  1.5076 -0.0732  0.2706
11981TIP3    H257435   6.375   5.301  11.726 -0.3927  1.3984 -0.8941
11982TIP3   OH257436   2.995   3.366  15.158  0.3495  0.2223 -0.1997
11982TIP3    H157437   2.980   3.353  15.065  0.6187 -1.4836 -0.0136
11982TIP3    H257438   2.908   3.377  15.196  0.0794 -1.4443 -0.3189
11983TIP3   OH257439   4.204   4.828   5.889  0.7937 -0.3002 -0.1545
11983TIP3    H157440   4.299   4.834   5.897  0.9515 -1.1230 -1.3176
11983TIP3    H257441   4.183   4.877   5.810 -0.1242  2.6934  1.8543
11984TIP3   OH257442   0.995   6.094   3.844  0.2581 -0.5457  0.6763
11984TIP3    H157443   0.905   6.102   3.812  0.8933  2.4213 -0.5243
11984TIP3    H257444   0.987   6.100   3.939 -0.8950 -1.4143  0.6475
11985TIP3   OH257445   0.404   1.097  13.720  0.1031 -0.7476  0.1147
11985TIP3    H157446   0.461   1.156  13.670  1.1573 -1.2999  0.6769
11985TIP3    H257447   0.462   1.032  13.757 -0.5311  0.1888  2.8793
11986TIP3   OH257448   2.064   6.264   1.460 -0.0658  0.1514 -0.1834
11986TIP3    H157449   2.053   6.270   1.554  0.4875  0.8784 -0.1662
11986TIP3    H257450   1.977   6.284   1.424 -0.3845 -0.5602  0.1763
11987TIP3   OH257451   0.307   2.700   2.046 -0.2091  0.1895 -0.5450
11987TIP3    H157452   0.354   2.706   1.963  2.4255  0.4366  0.8966
11987TIP3    H257453   0.309   2.606   2.068  0.6829  0.3482  0.0866
11988TIP3   OH257454   6.639   3.629  13.494  0.2971  0.0001  0.3007
11988TIP3    H157455   6.733   3.646  13.492  0.7027 -2.0847 -0.8048
11988TIP3    H257456   6.604   3.682  13.422  0.3612  2.0562  1.7544
11989TIP3   OH257457   1.540   3.879   3.517  0.4098 -0.2113  0.2267
11989TIP3    H157458   1.545   3.803   3.576 -1.8941 -1.2544 -0.8711
11989TIP3    H257459   1.540   3.841   3.429  0.7069  1.1585 -0.3712
11990TIP3   OH257460   2.725   1.916   4.919  0.1238  0.2845 -0.0508
11990TIP3    H157461   2.764   1.935   5.004  0.8783  3.2151 -0.9964
11990TIP3    H257462   2.786   1.855   4.878  1.2381  1.0924  0.3794
11991TIP3   OH257463   5.300   0.702  13.496  0.3634 -0.2442  0.3997
11991TIP3    H157464   5.267   0.722  13.584  0.2915  0.8578  0.1199
11991TIP3    H257465   5.387   0.740  13.493 -0.2899  1.2258 -0.5847
11992TIP3   OH257466   4.838   1.906   3.669 -0.2191  0.1554 -0.1073
11992TIP3    H157467   4.837   1.987   3.618 -0.4047  0.6975  0.7434
11992TIP3    H257468   4.831   1.935   3.760 -1.5503 -0.8780  0.1337
11993TIP3   OH257469   4.741   3.454   3.228 -0.4374 -0.4161 -0.1813
11993TIP3    H157470   4.737   3.362   3.201 -3.0384 -1.0912  2.2711
11993TIP3    H257471   4.791   3.497   3.159 -0.3970 -3.4069 -2.1041
11994TIP3   OH257472   1.856   4.006   0.317 -0.0227  0.1396 -0.2133
11994TIP3    H157473   1.844   4.077   0.381 -0.6475  0.2593 -0.4606
11994TIP3    H257474   1.847   4.048   0.232  1.1335  0.0353 -0.3859
11995TIP3   OH257475   3.706   1.546  14.116  0.0641  0.2283 -0.0321
11995TIP3    H157476   3.718   1.635  14.084 -1.7911  0.7860  0.7742
11995TIP3    H257477   3.702   1.555  14.211 -0.8134 -0.6376  0.0147
11996TIP3   OH257478   1.188   0.485  15.999  0.6248 -0.1549  0.3103
11996TIP3    H157479   1.226   0.457  15.915 -0.4295  0.2870 -0.3195
11996TIP3    H257480   1.169   0.404  16.045 -0.5461 -0.4505 -0.6735
11997TIP3   OH257481   1.450   0.084   0.048 -0.5558  0.2803 -0.0607
11997TIP3    H157482   1.371   0.097   0.100 -1.1439 -0.5188 -0.7401
11997TIP3    H257483   1.424   0.104  -0.042  0.0698  0.2314 -0.2553
11998TIP3   OH257484   1.155   3.763  14.282  0.1619 -0.4812  0.0810
11998TIP3    H157485   1.244   3.741  14.254  0.8651  1.5337  0.6764
11998TIP3    H257486   1.145   3.855  14.259 -1.2510 -0.3011  1.3963
11999TIP3   OH257487   5.481   1.657   4.413  0.7167  0.6209  0.2544
11999TIP3    H157488   5.444   1.569   4.403  3.0265 -0.1905 -1.6600
11999TIP3    H257489   5.421   1.701   4.473 -1.3642 -1.7403  0.0183
12000TIP3   OH257490   2.269   4.905   4.232 -0.3006  0.2361  0.6575
12000TIP3    H157491   2.233   4.850   4.302  0.4847 -0.5496  0.4533
12000TIP3    H257492   2.262   4.851   4.153 -0.1680  0.6949  0.3289
12001TIP3   OH257493   1.587   3.577   2.630  0.9233 -0.4418  0.0391
12001TIP3    H157494   1.592   3.519   2.706 -2.2097 -0.0448  0.5964
12001TIP3    H257495   1.620   3.661   2.662 -1.4565  0.0353  1.3316
12002TIP3   OH257496   5.080   4.095   5.315  0.0327 -0.0750 -0.2630
12002TIP3    H157497   5.042   4.139   5.239 -1.2219  2.8809  1.9503
12002TIP3    H257498   5.045   4.143   5.390  1.9047 -2.3533  2.1676
12003TIP3   OH257499   6.254   6.361   5.830  0.4362 -0.6405 -0.5006
12003TIP3    H157500   6.308   6.366   5.909 -0.1597 -0.7498 -0.0901
12003TIP3    H257501   6.304   6.411   5.765  1.5021 -1.5569 -0.3915
12004TIP3   OH257502   4.636   6.338   1.321 -0.5136 -0.3717  0.2179
12004TIP3    H157503   4.729   6.350   1.301 -0.3824 -0.5377  0.7310
12004TIP3    H257504   4.595   6.419   1.289  0.0471  0.4375  1.5013
12005TIP3   OH257505   1.191   0.244   1.778  0.0395  0.3058 -0.2558
12005TIP3    H157506   1.117   0.254   1.839 -1.0035  1.2915 -1.6634
12005TIP3    H257507   1.150   0.229   1.693  1.4769  0.6954 -1.0249
12006TIP3   OH257508   5.351   4.820  11.244  0.1196 -0.6374  0.5329
12006TIP3    H157509   5.311   4.811  11.331 -0.6094  1.2986  0.4338
12006TIP3    H257510   5.434   4.865  11.260 -0.4652  0.6108  0.1547
12007TIP3   OH257511   3.531   0.518   2.396  0.5614 -0.1560 -0.1817
12007TIP3    H157512   3.560   0.605   2.368 -0.4806  0.5962  1.0183
12007TIP3    H257513   3.604   0.460   2.374  0.8502  0.8460 -1.9537
12008TIP3   OH257514   1.453   4.747   2.794 -0.3343  0.5173 -0.3551
12008TIP3    H157515   1.420   4.673   2.845  0.4104  0.2988 -0.1877
12008TIP3    H257516   1.543   4.723   2.772 -0.6382  0.6245 -1.7457
12009TIP3   OH257517   1.483   2.004  14.246 -0.0147 -0.6442  0.0314
12009TIP3    H157518   1.456   1.985  14.156  1.3166  0.3409 -0.6046
12009TIP3    H257519   1.507   2.097  14.245 -0.7006 -0.4377  1.5929
12010TIP3   OH257520   4.359   5.419  11.703  0.1475 -0.1915 -0.8184
12010TIP3    H157521   4.391   5.392  11.789 -0.2411 -0.3523 -0.7231
12010TIP3    H257522   4.263   5.419  11.712  0.1103 -0.0887 -1.2127
12011TIP3   OH257523   5.061   4.990   3.915 -0.3178 -0.0513 -0.5279
12011TIP3    H157524   5.093   5.024   3.998  0.7709  3.1664 -2.2194
12011TIP3    H257525   4.983   4.939   3.939  0.3547  0.2667  2.5077
12012TIP3   OH257526   3.502   5.900   5.294 -0.0385 -0.4032  0.1687
12012TIP3    H157527   3.551   5.977   5.264 -1.8176  0.9506  0.6537
12012TIP3    H257528   3.520   5.895   5.388 -0.3921 -0.2140  0.2487
12013TIP3   OH257529   2.469   6.431  12.412  1.3063 -0.7845 -0.4894
12013TIP3    H157530   2.447   6.433  12.318  0.9543 -1.3018 -0.4201
12013TIP3    H257531   2.391   6.395  12.454  1.5237 -0.7011 -0.0133
12014TIP3   OH257532   5.840   5.664   2.782 -0.0185 -0.0868 -0.3853
12014TIP3    H157533   5.848   5.574   2.752 -0.2491  0.0384 -0.8404
12014TIP3    H257534   5.745   5.677   2.793  0.0698 -0.1576  0.4937
12015TIP3   OH257535   5.401   3.304  17.162 -0.0128 -0.0163 -0.0242
12015TIP3    H157536   5.497   3.303  17.164  0.0982  0.1776 -2.8790
12015TIP3    H257537   5.376   3.213  17.145 -0.4043 -0.2579  1.7408
12016TIP3   OH257538   1.007   3.184  11.699 -0.0543  0.1717  0.1485
12016TIP3    H157539   1.065   3.243  11.651 -2.6658  1.2491 -1.8061
12016TIP3    H257540   0.950   3.243  11.750 -0.1353 -0.8166  1.2268
12017TIP3   OH257541   0.258   1.215   3.792 -0.0465  0.3027 -0.1569
12017TIP3    H157542   0.217   1.171   3.718  0.0774 -0.5352  0.2627
12017TIP3    H257543   0.220   1.173   3.869 -1.1544  2.0743  0.2749
12018TIP3   OH257544   1.616   3.343  11.258  0.3713 -0.0218  0.2477
12018TIP3    H157545   1.579   3.401  11.325 -0.4089  0.8395 -0.8978
12018TIP3    H257546   1.561   3.358  11.181 -0.9197 -3.5592  0.3874
12019TIP3   OH257547   0.791   6.469   4.392  0.0623  0.3511  0.4444
12019TIP3    H157548   0.846   6.516   4.455 -1.9183  1.5025  1.3648
12019TIP3    H257549   0.731   6.417   4.446  0.2425 -0.9047 -0.5394
12020TIP3   OH257550   0.798   1.894  14.527 -0.2917  0.7375  0.1713
12020TIP3    H157551   0.705   1.913  14.515 -0.6450 -0.8494  0.1819
12020TIP3    H257552   0.806   1.870  14.619  0.1911  1.1673  0.2468
12021TIP3   OH257553   4.430   0.377   1.090 -0.8717 -0.0377 -0.1758
12021TIP3    H157554   4.509   0.336   1.056 -1.0800 -0.0851 -0.6055
12021TIP3    H257555   4.360   0.344   1.034 -1.1874  0.0444  0.1712
12022TIP3   OH257556   0.554   5.108  17.093  0.2562 -0.5828  0.2472
12022TIP3    H157557   0.561   5.170  17.020  0.6196 -1.0585 -0.1269
12022TIP3    H257558   0.644   5.085  17.113  0.1065 -1.2349  0.1778
12023TIP3   OH257559   6.272   0.920  11.046 -0.2650 -0.9345  0.3482
12023TIP3    H157560   6.223   0.891  10.970 -0.2590 -2.2307  0.8330
12023TIP3    H257561   6.242   0.864  11.117  0.6345 -0.5661  1.0274
12024TIP3   OH257562   3.099   2.003  13.469 -0.0481 -0.0386 -0.5508
12024TIP3    H157563   3.028   2.017  13.406 -0.5775 -2.7783 -0.6174
12024TIP3    H257564   3.126   2.092  13.494 -3.3078  1.1050 -0.7396
12025TIP3   OH257565   3.942   4.354  14.806 -0.4060 -0.0187 -0.9486
12025TIP3    H157566   3.905   4.267  14.792  0.4194 -0.1362 -2.5732
12025TIP3    H257567   3.889   4.411  14.750 -2.3031  0.9058  1.6948
12026TIP3   OH257568   5.840   6.597   1.138  0.0705  0.4009  0.5700
12026TIP3    H157569   5.921   6.644   1.120  1.0929 -1.6248 -0.3301
12026TIP3    H257570   5.798   6.587   1.053 -1.3150  1.7233  1.0719
12027TIP3   OH257571   0.906   5.244   3.792  0.1432  0.2720  0.2158
12027TIP3    H157572   0.986   5.287   3.820  1.1752 -0.0025 -2.1948
12027TIP3    H257573   0.929   5.151   3.785 -0.2719  0.2352 -0.8045
12028TIP3   OH257574   5.457   5.368   0.070 -0.0924  0.0955  0.3415
12028TIP3    H157575   5.532   5.428   0.079  0.2709 -0.3956  0.6265
12028TIP3    H257576   5.380   5.425   0.078  0.2388  0.7804 -1.1097
12029TIP3   OH257577   1.900   0.388   1.495 -0.1360  0.2236 -0.1572
12029TIP3    H157578   1.900   0.481   1.518 -1.3889  0.3911 -0.7856
12029TIP3    H257579   1.992   0.368   1.478  0.1975  1.2451  0.4058
12030TIP3   OH257580   6.042   1.153  13.638 -0.0296 -0.1127  0.0394
12030TIP3    H157581   6.077   1.069  13.667  0.4146  0.3463  0.8406
12030TIP3    H257582   5.993   1.132  13.558  0.9742 -0.9624 -0.3633
12031TIP3   OH257583   1.793   0.860  13.322  0.3373  0.0540 -0.0317
12031TIP3    H157584   1.801   0.864  13.417  1.2567 -0.3823 -0.0852
12031TIP3    H257585   1.869   0.909  13.289 -0.4468  0.9378 -0.5361
12032TIP3   OH257586   2.496   3.092  16.680  0.4346 -0.2102  0.2428
12032TIP3    H157587   2.580   3.118  16.643  0.7304 -0.1188  0.9750
12032TIP3    H257588   2.463   3.172  16.723  0.3774 -0.4802  0.7054
12033TIP3   OH257589   0.830   4.410  11.118  0.3429 -0.4054 -0.5964
12033TIP3    H157590   0.898   4.344  11.106  0.0976 -0.7116 -0.3304
12033TIP3    H257591   0.838   4.437  11.210 -0.0040 -0.5699 -0.5147
12034TIP3   OH257592   3.318   1.817   1.243  0.1787 -0.3113  0.2318
12034TIP3    H157593   3.362   1.736   1.218 -1.1296 -0.6166 -1.1454
12034TIP3    H257594   3.281   1.799   1.329  3.1910  0.1386  1.6826
12035TIP3   OH257595   4.116   5.292   4.737  0.2038  0.2802  0.2190
12035TIP3    H157596   4.141   5.252   4.819 -1.4233 -0.2374  0.4860
12035TIP3    H257597   4.087   5.219   4.681  1.9054  0.5474 -1.0535
12036TIP3   OH257598   3.866   0.969   4.358  0.0495  0.8569  0.8534
12036TIP3    H157599   3.851   1.052   4.403 -2.5285  2.5323 -2.9072
12036TIP3    H257600   3.779   0.928   4.356  0.3916  0.2244 -1.4015
12037TIP3   OH257601   4.689   1.192  11.552  0.3587 -0.1844  0.3652
12037TIP3    H157602   4.757   1.252  11.522 -1.0051  0.7614 -0.9479
12037TIP3    H257603   4.641   1.241  11.619 -2.2740  1.1993 -2.4062
12038TIP3   OH257604   0.630   2.826   0.054  0.2136 -0.1923  0.0501
12038TIP3    H157605   0.540   2.860   0.052  0.1031 -0.5111 -0.4461
12038TIP3    H257606   0.649   2.803  -0.037  1.2978  1.1658 -0.0805
12039TIP3   OH257607   6.235   3.758   1.986  0.0470 -0.2284  0.0333
12039TIP3    H157608   6.168   3.689   1.977 -0.8104  0.4518  1.1101
12039TIP3    H257609   6.313   3.720   1.945 -1.1912 -0.7480 -1.9467
12040TIP3   OH257610   6.601   2.533  11.457 -0.8416  0.1188 -0.3081
12040TIP3    H157611   6.647   2.554  11.376  0.1020 -0.5051  0.0621
12040TIP3    H257612   6.622   2.604  11.517 -0.7375  0.0704 -0.2877
12041TIP3   OH257613   2.351   4.516  17.199 -0.1081  0.1695  0.1672
12041TIP3    H157614   2.401   4.511  17.281  0.1188 -0.8713 -0.0293
12041TIP3    H257615   2.392   4.452  17.142 -0.3236  0.8389 -0.7388
12042TIP3   OH257616   3.236   1.405   0.975  0.1950 -0.1014  0.1773
12042TIP3    H157617   3.163   1.418   1.036  0.8371 -1.1914  1.2013
12042TIP3    H257618   3.225   1.474   0.909 -1.7930 -0.2818  0.2889
12043TIP3   OH257619   4.626   5.694  16.710  0.1460  0.6679  0.4511
12043TIP3    H157620   4.671   5.754  16.770  0.7208  0.3599  0.3292
12043TIP3    H257621   4.696   5.645  16.668 -0.2998  0.2892  0.1493
12044TIP3   OH257622   5.324   2.679  14.514 -0.0066 -0.0012  0.1429
12044TIP3    H157623   5.368   2.617  14.455 -1.0452  0.0208 -0.6585
12044TIP3    H257624   5.321   2.635  14.598 -0.7935 -1.0702 -0.4389
12045TIP3   OH257625   2.987   2.404   6.470 -0.7703  0.0503  0.1901
12045TIP3    H157626   3.068   2.408   6.419  0.6396 -1.3261  2.2315
12045TIP3    H257627   2.964   2.495   6.486  0.9777  0.4614  0.4793
12046TIP3   OH257628   5.762   1.711  11.222 -0.0913  0.3859 -0.4314
12046TIP3    H157629   5.856   1.709  11.238  0.0204  0.5197 -1.0683
12046TIP3    H257630   5.746   1.797  11.183 -0.7068  0.9655  1.0708
12047TIP3   OH257631   0.535   4.476  12.830 -0.1728  0.5891 -0.1667
12047TIP3    H157632   0.569   4.557  12.793 -0.1177  0.6540  0.0238
12047TIP3    H257633   0.569   4.407  12.773  0.1509  0.6653 -0.0696
12048TIP3   OH257634   5.692   6.022   1.250  0.3486 -0.2296 -0.4512
12048TIP3    H157635   5.689   5.933   1.286 -0.7670  0.1833  0.5200
12048TIP3    H257636   5.765   6.064   1.296  0.5132 -0.4705 -0.4928
12049TIP3   OH257637   2.838   5.125   0.088 -0.2059 -0.8453 -0.4828
12049TIP3    H157638   2.840   5.082   0.174 -1.5057 -0.9156 -0.4759
12049TIP3    H257639   2.928   5.116   0.055  0.0651 -1.6743  0.4427
12050TIP3   OH257640   3.873   0.199   1.631  0.1060  0.3311  0.1494
12050TIP3    H157641   3.817   0.276   1.643 -1.7895 -0.7691 -1.3214
12050TIP3    H257642   3.836   0.155   1.555  0.9403 -2.2174  1.1762
12051TIP3   OH257643   6.025   4.725  12.082 -0.0005 -0.2194  0.4579
12051TIP3    H157644   6.032   4.805  12.134  1.1992  0.3700 -0.5904
12051TIP3    H257645   6.115   4.704  12.058 -0.2412 -2.1947  1.1463
12052TIP3   OH257646   4.669   4.151  12.852 -0.0132 -0.1844 -0.1495
12052TIP3    H157647   4.651   4.170  12.944 -1.1748 -0.6923 -0.2690
12052TIP3    H257648   4.763   4.169  12.842 -0.2235  1.5489  0.7190
12053TIP3   OH257649   6.565   0.606  12.720 -0.4587  0.3347  0.0059
12053TIP3    H157650   6.559   0.537  12.786 -0.1180  0.3009  0.0061
12053TIP3    H257651   6.657   0.605  12.694 -0.6001  0.3201 -0.5019
12054TIP3   OH257652   2.245   0.719  14.657  0.3424  0.2134 -0.2898
12054TIP3    H157653   2.161   0.748  14.622 -0.5541 -3.3856 -1.3602
12054TIP3    H257654   2.309   0.745  14.590 -0.6136 -1.5070 -1.8999
12055TIP3   OH257655   3.233   4.308   3.871 -0.3258  0.0057 -0.4541
12055TIP3    H157656   3.263   4.267   3.952 -0.8338  2.3685  1.0064
12055TIP3    H257657   3.265   4.252   3.801  0.2484 -2.0061  1.3900
12056TIP3   OH257658   1.937   1.738  17.098 -0.0177  0.5844  0.2937
12056TIP3    H157659   1.913   1.798  17.028  3.6882  2.2841  0.3584
12056TIP3    H257660   1.944   1.653  17.056  1.9724  1.5472 -1.4204
12057TIP3   OH257661   0.003   2.576  10.873 -0.4422  0.1659 -0.0487
12057TIP3    H157662   0.016   2.528  10.791 -3.0516 -1.3198  0.3268
12057TIP3    H257663  -0.092   2.572  10.887 -0.4539  3.5895  1.1489
12058TIP3   OH257664   3.590   3.875  14.562  0.1583  0.1754 -0.2075
12058TIP3    H157665   3.603   3.814  14.489  0.5143  0.0128 -0.0105
12058TIP3    H257666   3.621   3.959  14.530 -0.1956  0.2243 -0.4301
12059TIP3   OH257667   6.062   1.533   3.659  0.0362  0.0012 -0.0447
12059TIP3    H157668   6.053   1.438   3.657 -1.6012  0.1480 -0.4450
12059TIP3    H257669   6.111   1.554   3.580 -0.6983 -0.4124 -0.6172
12060TIP3   OH257670   3.470   0.340   4.130  0.8703  0.4928 -0.3072
12060TIP3    H157671   3.406   0.411   4.143  0.2750 -0.1162  0.1079
12060TIP3    H257672   3.553   0.378   4.160  0.2103  0.3869  1.7654
12061TIP3   OH257673   0.820   5.327   6.026 -0.0114 -0.3053  0.7382
12061TIP3    H157674   0.910   5.312   6.056  0.0216  0.1482  0.8663
12061TIP3    H257675   0.782   5.387   6.091 -0.1112  0.2436  0.1836
12062TIP3   OH257676   6.735   3.231   5.403 -0.1055 -0.4297  0.1973
12062TIP3    H157677   6.770   3.198   5.486 -1.1315 -1.2661  0.3139
12062TIP3    H257678   6.640   3.216   5.410 -0.2360 -0.1548 -0.9691
12063TIP3   OH257679   5.138   0.529  16.321  0.0700  0.2722  0.4015
12063TIP3    H157680   5.126   0.578  16.239 -1.9517 -1.6170 -0.4913
12063TIP3    H257681   5.055   0.484  16.334  0.9372 -0.7549  2.6577
12064TIP3   OH257682   3.563   5.202   0.143  0.1666  0.1636 -0.0343
12064TIP3    H157683   3.623   5.202   0.068  0.0785 -0.1366 -0.1070
12064TIP3    H257684   3.617   5.228   0.217  0.7775 -1.6446  0.1910
12065TIP3   OH257685   6.474   4.661   2.414 -0.0437  0.4908 -0.6781
12065TIP3    H157686   6.441   4.573   2.428  2.0135 -0.1727  0.1831
12065TIP3    H257687   6.415   4.699   2.348 -2.2198 -0.7610  0.5013
12066TIP3   OH257688   4.886   3.268   4.740 -0.3231  0.0067  0.7269
12066TIP3    H157689   4.948   3.334   4.770  1.6076 -1.5729  0.3488
12066TIP3    H257690   4.833   3.249   4.817 -0.0846  1.1062  1.1759
12067TIP3   OH257691   0.240   5.097   1.655  0.3957  0.0821 -0.1445
12067TIP3    H157692   0.170   5.127   1.597  0.7524 -1.3107 -1.3212
12067TIP3    H257693   0.196   5.080   1.739 -0.5333 -0.0732 -0.6600
12068TIP3   OH257694   0.859   5.910  14.346  0.0389  0.5556  0.1683
12068TIP3    H157695   0.944   5.888  14.309  0.2482 -0.8470  1.4351
12068TIP3    H257696   0.876   5.986  14.402  0.1076  1.3880 -0.9656
12069TIP3   OH257697   1.476   6.045   2.724  0.4408  0.9471 -0.0225
12069TIP3    H157698   1.464   6.140   2.725 -1.4579  0.7193  0.5693
12069TIP3    H257699   1.440   6.017   2.641 -0.0029  0.6194  0.2815
12070TIP3   OH257700   3.018   2.072  11.461 -0.3859 -0.4524  0.1568
12070TIP3    H157701   3.081   2.000  11.469  0.0450 -0.2043 -0.9037
12070TIP3    H257702   2.945   2.035  11.413 -1.6845 -1.1278  2.5890
12071TIP3   OH257703   6.509   5.194   4.700  0.7687  0.0056 -0.4016
12071TIP3    H157704   6.436   5.132   4.693  0.2089  0.6921 -0.6731
12071TIP3    H257705   6.470   5.280   4.683  1.3214  0.5779  1.1828
12072TIP3   OH257706   0.435   1.775   2.055  0.6232  0.5440 -0.1399
12072TIP3    H157707   0.493   1.756   2.128  0.4651  0.9518  0.0935
12072TIP3    H257708   0.434   1.695   2.003  1.1642  0.4371  0.0135
12073TIP3   OH257709   4.316   6.635   4.916  0.3739  0.3135 -0.2605
12073TIP3    H157710   4.264   6.579   4.974 -0.3414  0.0510 -1.1572
12073TIP3    H257711   4.407   6.616   4.939  0.1058 -0.0377  0.5400
12074TIP3   OH257712   4.436   2.887   4.488  0.3870 -0.5641  0.0844
12074TIP3    H157713   4.402   2.854   4.572  1.8564  1.0624  1.3456
12074TIP3    H257714   4.360   2.888   4.431 -0.9522 -0.3442  1.8222
12075TIP3   OH257715   1.060   0.805  16.856  0.2237 -0.0793  0.1372
12075TIP3    H157716   1.117   0.860  16.802  0.1119 -0.3723 -0.2899
12075TIP3    H257717   1.052   0.852  16.939  1.7915 -0.4811  0.5114
12076TIP3   OH257718   4.674   1.586   0.286 -0.5346  0.6582  0.2241
12076TIP3    H157719   4.766   1.561   0.288 -0.6644  0.1560  0.1601
12076TIP3    H257720   4.627   1.505   0.306 -0.9374  1.0589  0.9274
12077TIP3   OH257721   3.345   6.602  14.111 -0.2391 -0.6102 -0.0997
12077TIP3    H157722   3.326   6.518  14.068  0.3663 -0.4930 -0.6021
12077TIP3    H257723   3.265   6.623  14.158 -0.6969 -1.0416 -0.6791
12078TIP3   OH257724   4.114   2.842  15.624 -0.0371  0.1939  0.5713
12078TIP3    H157725   4.156   2.928  15.619 -1.0479  0.6791  0.4841
12078TIP3    H257726   4.069   2.832  15.540 -1.9650  0.6265  1.5303
12079TIP3   OH257727   0.876   5.767  15.396  0.4261 -0.0742  0.6656
12079TIP3    H157728   0.959   5.766  15.347  0.3316 -0.0465  0.5074
12079TIP3    H257729   0.815   5.719  15.340 -0.0631  1.1958  0.1082
12080TIP3   OH257730   5.402   0.167  17.235  0.1027  0.3319 -0.6178
12080TIP3    H157731   5.356   0.098  17.284 -2.5647  1.7809 -0.9614
12080TIP3    H257732   5.338   0.239  17.231  2.2383  2.2077 -1.6560
12081TIP3   OH257733   4.271   0.397   5.470  0.1910  0.6204  0.3914
12081TIP3    H157734   4.310   0.437   5.393 -0.3034 -1.0672 -0.7588
12081TIP3    H257735   4.208   0.334   5.436 -0.0538 -0.1450  2.1749
12082TIP3   OH257736   6.684   3.517  14.190  0.4257 -0.2622  0.0184
12082TIP3    H157737   6.702   3.423  14.186 -0.2344 -0.4775  1.5310
12082TIP3    H257738   6.601   3.528  14.144 -0.0898 -0.6046  0.8542
12083TIP3   OH257739   2.895   5.516   3.675 -0.0914  0.2339 -0.6230
12083TIP3    H157740   2.928   5.536   3.587 -0.2374  3.1832 -0.0684
12083TIP3    H257741   2.947   5.572   3.732 -0.5499 -1.0775  1.1073
12084TIP3   OH257742   5.395   3.505   6.080 -0.0862  0.1103 -0.5199
12084TIP3    H157743   5.451   3.524   6.156  1.4621 -3.2965 -0.6825
12084TIP3    H257744   5.331   3.443   6.113 -1.2625  0.8902 -1.3192
12085TIP3   OH257745   3.584   4.918   4.830  0.1501  0.4816 -0.2129
12085TIP3    H157746   3.546   4.942   4.914 -1.4252  0.3310 -0.8672
12085TIP3    H257747   3.659   4.977   4.820 -0.5800  1.5604  0.5812
12086TIP3   OH257748   2.329   3.240  11.091  0.3604 -0.0712  0.1295
12086TIP3    H157749   2.336   3.217  11.184  0.2659  0.3034  0.2311
12086TIP3    H257750   2.363   3.163  11.045 -1.0621 -0.9006  0.4237
12087TIP3   OH257751   1.168   1.581   4.385  0.4984  0.3403 -0.2252
12087TIP3    H157752   1.084   1.625   4.372 -0.7453 -2.0490 -0.6373
12087TIP3    H257753   1.145   1.497   4.425  2.4035 -1.5324 -2.8526
12088TIP3   OH257754   5.370   2.840  10.487  0.7742 -0.3249 -0.1590
12088TIP3    H157755   5.416   2.924  10.497  0.2711 -0.3185  2.6520
12088TIP3    H257756   5.432   2.775  10.519  0.5128 -0.8270 -0.6755
12089TIP3   OH257757   6.477   2.161  14.405 -0.0257  0.3069  0.2342
12089TIP3    H157758   6.386   2.168  14.434  0.1950  0.8391  0.7963
12089TIP3    H257759   6.488   2.233  14.342 -0.3312 -0.4796 -0.7325
12090TIP3   OH257760   6.486   6.555  14.305  0.5964 -0.2251  0.1296
12090TIP3    H157761   6.452   6.533  14.391  0.7103 -1.9442 -0.2470
12090TIP3    H257762   6.519   6.645  14.314 -1.3294  0.3936  1.2691
12091TIP3   OH257763   3.507   5.497  16.528  0.0770 -0.4134 -0.3165
12091TIP3    H157764   3.445   5.526  16.462  0.0953  0.9429  0.2507
12091TIP3    H257765   3.572   5.446  16.478 -0.3969 -0.1698 -1.2049
12092TIP3   OH257766   5.243   5.885  16.497 -0.4821  0.0548 -0.4647
12092TIP3    H157767   5.273   5.911  16.410  0.3333  1.6385  0.2475
12092TIP3    H257768   5.307   5.821  16.527 -0.1340  0.3291 -0.6147
12093TIP3   OH257769   3.655   3.895   1.507  0.4505  0.2496  0.1605
12093TIP3    H157770   3.597   3.877   1.580  0.8758  2.4605  1.1028
12093TIP3    H257771   3.605   3.952   1.449  1.3794  1.5934  0.6321
12094TIP3   OH257772   4.041   2.618   2.609 -0.3179 -0.2417  0.1164
12094TIP3    H157773   4.135   2.634   2.617 -0.4460  0.9803 -0.7250
12094TIP3    H257774   4.001   2.674   2.675 -0.5261  0.2305 -0.3975
12095TIP3   OH257775   1.383   4.409   3.132  0.0563  0.0685 -0.3154
12095TIP3    H157776   1.458   4.407   3.073 -0.7286 -1.0414 -1.2814
12095TIP3    H257777   1.331   4.485   3.102 -0.6717 -0.8721 -1.4803
12096TIP3   OH257778   5.902   5.542  11.299 -0.0218 -0.2902 -0.4539
12096TIP3    H157779   5.923   5.586  11.217  0.0861  0.5102  0.0006
12096TIP3    H257780   5.807   5.530  11.297 -0.5990  3.3540  1.0762
12097TIP3   OH257781   1.958   0.800  15.865  0.7152 -0.4598 -0.2503
12097TIP3    H157782   2.034   0.853  15.890  1.5986 -1.6525 -0.3450
12097TIP3    H257783   1.941   0.745  15.942  1.6300 -2.0824 -1.1698
12098TIP3   OH257784   0.484   2.089   1.772 -0.4032  0.2451  0.6088
12098TIP3    H157785   0.496   2.057   1.682 -1.6905  1.9440 -0.1843
12098TIP3    H257786   0.571   2.084   1.811  0.3527  0.3529 -1.0328
12099TIP3   OH257787   5.579   2.220  11.856 -0.2800  0.4268 -0.3942
12099TIP3    H157788   5.596   2.227  11.762  0.9830 -1.2888 -0.3039
12099TIP3    H257789   5.625   2.295  11.894 -1.5723  1.6749 -1.2054
12100TIP3   OH257790   5.062   5.890  11.408  0.1418 -0.4237 -0.2091
12100TIP3    H157791   5.138   5.835  11.387  0.6455  0.0690  0.2947
12100TIP3    H257792   5.026   5.916  11.324  0.5963 -0.5796 -0.4525
12101TIP3   OH257793   4.945   6.181  12.193 -0.2821 -0.6229 -0.0964
12101TIP3    H157794   4.996   6.260  12.213 -0.1732 -0.3564 -1.3785
12101TIP3    H257795   4.854   6.210  12.200 -0.2420 -0.2676 -0.9842
12102TIP3   OH257796   3.632   2.578   2.064  0.8487  0.2371 -0.1442
12102TIP3    H157797   3.684   2.513   2.016  0.1177 -0.7681  0.4209
12102TIP3    H257798   3.580   2.621   1.996 -0.2864 -1.2744 -0.2478
12103TIP3   OH257799   6.590   3.533   1.024 -0.1407 -0.0269 -0.3755
12103TIP3    H157800   6.611   3.442   1.006  1.4953 -0.2640  2.3684
12103TIP3    H257801   6.672   3.581   1.010 -0.7848  0.9214 -1.0302
12104TIP3   OH257802   1.677   5.110  11.450 -0.0150  0.6180  0.1318
12104TIP3    H157803   1.741   5.040  11.436 -1.1414 -0.3749 -0.1017
12104TIP3    H257804   1.730   5.188  11.464  1.2449  0.0040 -1.1007
12105TIP3   OH257805   2.729   5.877  14.159 -0.0622 -0.2380  0.4839
12105TIP3    H157806   2.730   5.916  14.071 -0.4922 -1.2991 -0.0034
12105TIP3    H257807   2.728   5.952  14.218 -1.2231  0.5029 -0.4399
12106TIP3   OH257808   4.370   4.165  12.165 -0.3591 -0.1736 -1.3309
12106TIP3    H157809   4.392   4.197  12.078  1.2007 -1.2135 -1.3351
12106TIP3    H257810   4.454   4.166  12.212 -1.0100 -0.5865 -0.1574
12107TIP3   OH257811   3.497   2.588   4.706  0.1017 -0.6401 -0.4190
12107TIP3    H157812   3.556   2.551   4.640  0.9105 -0.6133  0.2844
12107TIP3    H257813   3.484   2.517   4.769  2.7364  0.6537  1.6634
12108TIP3   OH257814   1.839   4.902   5.811 -0.1773  0.1535 -0.4999
12108TIP3    H157815   1.743   4.895   5.811 -0.1741 -0.0781  1.0503
12108TIP3    H257816   1.861   4.930   5.722 -1.7173  0.6441 -0.7457
12109TIP3   OH257817   2.641   3.469   0.135 -0.2449 -0.0310 -0.2939
12109TIP3    H157818   2.653   3.492   0.043 -1.1541  1.6058 -0.0289
12109TIP3    H257819   2.725   3.433   0.163  0.1975 -0.0320 -1.6215
12110TIP3   OH257820   6.666   4.396   2.023 -0.2768  1.1026 -0.1725
12110TIP3    H157821   6.587   4.342   2.021 -0.2823  1.0105  1.4646
12110TIP3    H257822   6.674   4.431   1.934 -0.3138 -1.5363 -1.2648
12111TIP3   OH257823   0.361   2.464   1.378 -0.4854  0.1473 -0.2525
12111TIP3    H157824   0.447   2.505   1.372  0.3056 -1.3384  0.5050
12111TIP3    H257825   0.380   2.370   1.384 -2.1143 -0.1374  0.8561
12112TIP3   OH257826   4.927   4.137  17.223 -0.3605  0.2087 -0.2197
12112TIP3    H157827   4.889   4.146  17.136 -1.6084  2.2304  0.5226
12112TIP3    H257828   4.907   4.219  17.268  2.4280  0.2162  1.1606
12113TIP3   OH257829   3.517   6.542  15.830  0.1217  0.2950  0.3982
12113TIP3    H157830   3.591   6.548  15.890  0.9423  1.3754 -0.6895
12113TIP3    H257831   3.541   6.473  15.769  0.5150  1.0553 -0.3189
12114TIP3   OH257832   2.529   1.440  13.406  0.7555  0.4557 -0.4609
12114TIP3    H157833   2.601   1.492  13.369  1.0720 -0.6735 -1.4420
12114TIP3    H257834   2.568   1.356  13.427  0.1840  0.5211  0.9292
12115TIP3   OH257835   4.478   4.950  14.103 -0.6685  0.5121 -0.1952
12115TIP3    H157836   4.502   5.026  14.155 -0.8209 -2.1572  4.0360
12115TIP3    H257837   4.562   4.907  14.084 -0.6879  0.9945 -1.3979
12116TIP3   OH257838   0.041   0.446   2.839  0.2755 -0.3913 -0.1810
12116TIP3    H157839   0.068   0.431   2.930 -0.1717  0.5892  0.1200
12116TIP3    H257840   0.045   0.360   2.798  2.0327 -0.5830  0.3561
12117TIP3   OH257841   1.677   5.028   3.541 -0.0103  0.0239  0.1200
12117TIP3    H157842   1.682   5.000   3.450  1.6056  1.4993 -0.2858
12117TIP3    H257843   1.718   4.957   3.591  2.2557  0.7328 -0.6815
12118TIP3   OH257844   1.471   2.171   1.332  0.4171 -0.4194  0.2511
12118TIP3    H157845   1.509   2.091   1.367 -1.5769 -1.8692 -0.8229
12118TIP3    H257846   1.377   2.154   1.328  0.0556  1.6333 -0.8426
12119TIP3   OH257847   1.309   6.806   1.503  0.6246  0.1520 -0.8888
12119TIP3    H157848   1.329   6.889   1.460 -3.5463  0.8082 -1.8182
12119TIP3    H257849   1.255   6.830   1.579  1.3567 -1.5593  0.2159
12120TIP3   OH257850   3.657   6.628   2.264 -0.0977 -0.6973 -0.4083
12120TIP3    H157851   3.714   6.551   2.256  1.3646 -0.0292  2.8911
12120TIP3    H257852   3.637   6.634   2.357 -0.4487  2.7667 -0.6465
12121TIP3   OH257853   1.764   6.223  10.647  0.4440  0.5128 -0.1458
12121TIP3    H157854   1.849   6.242  10.607  1.4764  0.7561  2.0709
12121TIP3    H257855   1.726   6.155  10.591  2.5228 -0.2896 -0.6375
12122TIP3   OH257856   1.693   1.121  15.481  0.2970 -0.2163  0.1760
12122TIP3    H157857   1.780   1.108  15.444  0.3458 -0.3702  0.3456
12122TIP3    H257858   1.642   1.047  15.448 -0.1004  0.5313 -0.9353
12123TIP3   OH257859   1.627   5.084  14.094 -0.0003 -0.2113 -0.4614
12123TIP3    H157860   1.573   5.046  14.163 -1.5871 -1.3696 -2.2845
12123TIP3    H257861   1.597   5.174  14.087 -2.0814 -0.9710 -1.7685
12124TIP3   OH257862   6.650   5.192   5.195 -0.3762 -0.1474  0.2284
12124TIP3    H157863   6.620   5.262   5.137 -1.0928 -0.0066  0.7522
12124TIP3    H257864   6.570   5.160   5.237  0.1949  0.1789  1.6010
12125TIP3   OH257865   3.390   0.458  15.078 -0.0067 -0.0528 -0.1156
12125TIP3    H157866   3.306   0.504  15.070 -1.2051 -2.1573  0.0004
12125TIP3    H257867   3.436   0.478  14.997 -1.1451  0.1261 -0.7304
12126TIP3   OH257868   4.793   0.496  16.720 -0.1083 -0.1673  0.5404
12126TIP3    H157869   4.705   0.507  16.756 -0.3579 -0.5550  0.0503
12126TIP3    H257870   4.834   0.582  16.731 -0.8163  0.2404  0.0379
12127TIP3   OH257871   3.846   5.606   0.939 -0.3980 -0.2676  0.1177
12127TIP3    H157872   3.825   5.604   1.033 -1.1470  1.7603  0.0242
12127TIP3    H257873   3.790   5.539   0.901  1.5650 -2.7285  1.3940
12128TIP3   OH257874   5.939   2.133   2.978 -0.5247  0.5108  0.1260
12128TIP3    H157875   6.034   2.128   2.968 -0.4607  0.0471  0.8739
12128TIP3    H257876   5.925   2.143   3.073 -1.2446 -0.2230  0.1078
12129TIP3   OH257877   1.744   3.789   3.999 -0.5127  0.3749  0.3222
12129TIP3    H157878   1.657   3.820   3.972 -0.9047 -1.1627 -0.2251
12129TIP3    H257879   1.779   3.860   4.054 -0.7559  2.4382 -2.1094
12130TIP3   OH257880   1.015   0.113  14.068  0.8029  0.3226  0.3528
12130TIP3    H157881   0.942   0.174  14.055  1.0360  0.5565  0.1272
12130TIP3    H257882   1.074   0.160  14.127  0.9705  0.3033  0.2009
12131TIP3   OH257883   2.774   5.325  14.987 -0.1159 -0.0025 -0.4274
12131TIP3    H157884   2.708   5.330  14.918  0.0698 -0.3674 -0.6329
12131TIP3    H257885   2.847   5.278  14.947  0.8786  1.7333 -0.6874
12132TIP3   OH257886   4.719   0.976  16.873  0.0565  0.5115  0.0759
12132TIP3    H157887   4.805   0.973  16.831  0.9038  1.8909  1.6632
12132TIP3    H257888   4.660   0.936  16.809  2.0307 -1.3598 -0.6542
12133TIP3   OH257889   3.536   3.046   1.729 -0.6215 -0.4387 -0.7946
12133TIP3    H157890   3.622   3.085   1.739 -0.0046 -1.7517 -0.7893
12133TIP3    H257891   3.554   2.958   1.695 -2.1372  0.5653 -4.4076
12134TIP3   OH257892   1.670   5.803   1.368  0.9657 -0.9795 -0.2174
12134TIP3    H157893   1.721   5.863   1.312  0.1305  0.9678  1.0382
12134TIP3    H257894   1.584   5.798   1.326 -0.1336  1.6387  1.5787
12135TIP3   OH257895   2.775   2.150   0.655  0.1669  0.6848 -0.0665
12135TIP3    H157896   2.853   2.097   0.640 -0.2020  0.0504  0.2073
12135TIP3    H257897   2.768   2.206   0.577 -0.3504 -0.8277 -1.1397
12136TIP3   OH257898   2.347   4.623  13.004  0.3388  0.6345 -0.0127
12136TIP3    H157899   2.316   4.535  13.024 -1.5734  1.7539  2.1515
12136TIP3    H257900   2.426   4.609  12.952 -0.1922 -2.3389 -0.1127
12137TIP3   OH257901   3.703   5.444   2.295  0.0682  0.6358  0.1122
12137TIP3    H157902   3.783   5.419   2.340  0.5567  0.3454 -0.9090
12137TIP3    H257903   3.732   5.477   2.210 -0.8839  0.6545 -0.2144
12138TIP3   OH257904   5.808   3.002  12.035 -0.0269 -0.7227 -0.0288
12138TIP3    H157905   5.812   3.095  12.013 -0.2670 -0.3818  1.3387
12138TIP3    H257906   5.900   2.976  12.045  0.0602 -0.7526 -0.8519
12139TIP3   OH257907   2.915   3.442  11.842 -0.2294  0.7167  0.0568
12139TIP3    H157908   2.862   3.429  11.920 -0.8970 -1.7499 -0.7605
12139TIP3    H257909   2.933   3.536  11.840 -2.1386  1.1489  1.9081
12140TIP3   OH257910   1.583   2.540   3.956 -0.3751 -0.4730 -0.5984
12140TIP3    H157911   1.593   2.457   3.909  1.0354 -1.6067  1.6310
12140TIP3    H257912   1.650   2.537   4.025 -1.7225  1.5896  0.8497
12141TIP3   OH257913   4.102   3.489  16.176  0.3988  0.0822 -0.5082
12141TIP3    H157914   4.103   3.511  16.269 -0.8766  0.7120 -0.6235
12141TIP3    H257915   4.009   3.472  16.157  0.3973  1.6448 -2.0317
12142TIP3   OH257916   1.124   6.067   4.550  0.0212 -0.5810 -0.0949
12142TIP3    H157917   1.202   6.058   4.605  0.5445  0.0677 -0.7203
12142TIP3    H257918   1.083   5.981   4.553  1.9963 -1.6033 -1.6118
12143TIP3   OH257919   2.515   0.527   2.709  0.6848 -0.1261 -0.6320
12143TIP3    H157920   2.605   0.547   2.734  0.7867 -1.5803  0.2439
12143TIP3    H257921   2.511   0.431   2.711 -1.1500 -0.0397  0.2621
12144TIP3   OH257922   0.430   0.028   2.083  0.3607  0.6745 -0.4491
12144TIP3    H157923   0.405   0.058   1.996  1.1865  0.9006 -0.6115
12144TIP3    H257924   0.359  -0.030   2.110  0.0374  0.7116 -1.2154
12145TIP3   OH257925   3.094   2.686  12.706 -0.5936 -0.4480 -0.2372
12145TIP3    H157926   3.071   2.626  12.635  1.1054 -0.3259 -0.8914
12145TIP3    H257927   3.138   2.759  12.663 -0.8188  0.3097  0.7893
12146TIP3   OH257928   0.569   1.958  12.010 -0.2566 -0.1191  0.2517
12146TIP3    H157929   0.501   2.025  12.018 -0.9618 -0.5579 -1.7992
12146TIP3    H257930   0.547   1.911  11.929  2.9037  0.2009 -0.8360
12147TIP3   OH257931   4.359   0.916   3.713  0.0848  0.5046  0.1997
12147TIP3    H157932   4.411   0.845   3.752  0.6211  0.2947 -0.8726
12147TIP3    H257933   4.424   0.980   3.685 -0.2250  0.2237 -1.1870
12148TIP3   OH257934   5.477   5.985   5.168  0.4088 -0.9154 -0.1417
12148TIP3    H157935   5.432   6.025   5.242 -1.6608 -3.2073 -0.0713
12148TIP3    H257936   5.545   5.930   5.208 -0.1482 -1.4774  0.0581
12149TIP3   OH257937   4.635   6.652  11.444 -0.8761 -0.0413  0.0218
12149TIP3    H157938   4.572   6.656  11.516 -0.8860 -2.5189  0.1764
12149TIP3    H257939   4.714   6.692  11.480 -0.9422 -1.0854  1.3823
12150TIP3   OH257940   6.289   5.105  12.290  0.2137  0.4518 -0.6174
12150TIP3    H157941   6.311   5.122  12.382  3.1430  0.6110 -1.3003
12150TIP3    H257942   6.202   5.065  12.293  1.0573 -1.3306  2.3978
12151TIP3   OH257943   3.616   4.321  16.739 -0.0389  0.2304 -0.3067
12151TIP3    H157944   3.602   4.285  16.651 -2.4181 -4.2400  1.6867
12151TIP3    H257945   3.703   4.291  16.764 -0.9011 -1.9355  0.2532
12152TIP3   OH257946   4.095   3.438  13.666 -0.1259  0.0818 -0.3758
12152TIP3    H157947   4.084   3.533  13.670  0.4199  0.2498 -2.1165
12152TIP3    H257948   4.071   3.415  13.576  0.2587 -1.3552 -0.1336
12153TIP3   OH257949   5.232   3.589  12.693 -0.4256  0.1406  0.1786
12153TIP3    H157950   5.144   3.575  12.728 -0.4680  0.7191  0.3191
12153TIP3    H257951   5.256   3.676  12.725 -0.4644  0.6796 -1.1934
12154TIP3   OH257952   5.283   2.119  13.846  0.1269 -0.4304 -0.3976
12154TIP3    H157953   5.253   2.031  13.822  1.5570 -0.9858 -0.2298
12154TIP3    H257954   5.268   2.172  13.769  1.5790 -1.4257 -1.4048
12155TIP3   OH257955   0.060   6.248   3.258 -0.0093 -0.0785  0.0589
12155TIP3    H157956   0.092   6.158   3.250  0.7939  0.0827  1.2856
12155TIP3    H257957   0.083   6.289   3.175  0.1407 -0.8476 -0.2821
12156TIP3   OH257958   0.267   6.700  15.607 -0.3952  0.5430 -0.0277
12156TIP3    H157959   0.226   6.783  15.634 -0.6574  1.8247 -3.9589
12156TIP3    H257960   0.195   6.649  15.571 -0.0980 -1.1528  1.7132
12157TIP3   OH257961   2.749   0.385  15.871 -0.1358 -0.3679  0.6361
12157TIP3    H157962   2.795   0.467  15.855 -0.8451 -0.3420 -1.3665
12157TIP3    H257963   2.819   0.319  15.875  0.2792  0.0457  0.2660
12158TIP3   OH257964   0.249   6.562  11.896  0.6323  0.4857 -0.4376
12158TIP3    H157965   0.249   6.574  11.801  1.4549 -1.1758 -0.6651
12158TIP3    H257966   0.174   6.505  11.912  0.6094  0.6068 -0.1202
12159TIP3   OH257967   5.047   5.842  14.267 -0.1040  0.3424  0.1581
12159TIP3    H157968   5.063   5.918  14.211  0.8915 -0.5374 -0.7605
12159TIP3    H257969   5.133   5.820  14.303  0.1689 -2.1563 -1.9150
12160TIP3   OH257970   0.873   2.023   5.372  0.3174 -0.4596 -0.1668
12160TIP3    H157971   0.887   2.016   5.466  1.6174 -0.4667 -0.3488
12160TIP3    H257972   0.792   2.073   5.363  2.4169  3.3948  0.9501
12161TIP3   OH257973   2.112   6.085  11.414  0.3607 -0.0131 -0.3901
12161TIP3    H157974   2.129   6.178  11.397 -0.2884 -0.1592 -1.9317
12161TIP3    H257975   2.133   6.042  11.331  2.4208 -1.4848  0.8476
12162TIP3   OH257976   4.377   0.062   0.419  0.0103  0.0963 -0.0154
12162TIP3    H157977   4.455   0.099   0.460  1.0133 -0.1459 -1.6317
12162TIP3    H257978   4.364   0.116   0.340 -1.7215  0.4135  0.4631
12163TIP3   OH257979   0.742   4.640  12.284  0.1595 -0.3024  0.2205
12163TIP3    H157980   0.739   4.645  12.188 -0.4253  0.0321  0.2542
12163TIP3    H257981   0.694   4.717  12.313  1.7850  0.5210  0.7979
12164TIP3   OH257982   0.105   5.643   5.031  0.1085 -0.9487 -0.5573
12164TIP3    H157983   0.059   5.700   4.969  0.3434  0.2961  0.4096
12164TIP3    H257984   0.154   5.703   5.088 -1.0667 -2.0202  1.6302
12165TIP3   OH257985   6.068   0.009  13.229  0.6919 -0.0627 -0.0831
12165TIP3    H157986   6.066   0.040  13.320 -1.0043  0.0631 -0.1492
12165TIP3    H257987   6.142  -0.051  13.226  1.5592  0.9309  1.0542
12166TIP3   OH257988   1.161   5.770   2.936 -0.2515 -0.3944 -0.4188
12166TIP3    H157989   1.151   5.861   2.966  1.5827 -0.0621 -0.7444
12166TIP3    H257990   1.093   5.759   2.870 -1.8905  0.0548  1.1764
12167TIP3   OH257991   0.647   5.162   1.946 -0.2110  0.4191  0.2896
12167TIP3    H157992   0.684   5.114   1.872 -2.0084  1.5993 -1.4296
12167TIP3    H257993   0.652   5.101   2.020  1.7420 -0.7234 -0.7649
12168TIP3   OH257994   6.175   2.390   0.610 -1.2523  0.1088 -0.3224
12168TIP3    H157995   6.265   2.358   0.619 -1.3281 -0.0402 -0.1084
12168TIP3    H257996   6.168   2.460   0.674 -1.1681  0.3867 -0.6124
12169TIP3   OH257997   4.982   0.718   4.762  0.0223 -0.1016  0.3123
12169TIP3    H157998   4.937   0.788   4.810 -0.3484 -0.2691  0.2122
12169TIP3    H257999   4.997   0.755   4.675 -0.0026 -0.0762  0.3188
12170TIP3   OH258000   4.275   1.003   4.185 -0.1689  0.3778 -0.0191
12170TIP3    H158001   4.262   1.098   4.192  0.1721  0.3029  1.7148
12170TIP3    H258002   4.332   0.993   4.108 -0.1196  1.5825 -0.1542
12171TIP3   OH258003   5.637   5.250   4.319  0.2296 -0.1862 -0.2692
12171TIP3    H158004   5.732   5.238   4.328  0.3627  0.9991  0.0707
12171TIP3    H258005   5.627   5.345   4.308 -1.1122  0.0074  2.3629
12172TIP3   OH258006   2.342   6.434   1.485 -0.0797  0.3914 -0.0268
12172TIP3    H158007   2.348   6.363   1.421  2.1561 -0.2906  0.8711
12172TIP3    H258008   2.346   6.390   1.570  0.0573  1.5037  0.5556
12173TIP3   OH258009   3.861   4.211  12.523  0.4679 -0.2398  0.0838
12173TIP3    H158010   3.945   4.234  12.561  1.6045 -0.7179 -2.0741
12173TIP3    H258011   3.873   4.222  12.429 -1.3211 -2.0660 -0.3979
12174TIP3   OH258012   1.862   5.978   0.793 -0.1696  0.8133 -0.8023
12174TIP3    H158013   1.957   5.983   0.800 -0.2166  0.1270  0.5161
12174TIP3    H258014   1.834   6.068   0.776  0.8271  0.7639 -2.7788
12175TIP3   OH258015   0.196   3.316   5.197 -0.1549 -0.3771  0.2183
12175TIP3    H158016   0.245   3.309   5.279  1.6367  0.3412 -0.7614
12175TIP3    H258017   0.193   3.227   5.163  0.0023 -0.5138  0.5605
12176TIP3   OH258018   6.297   5.670  11.979  0.2277  0.2493  0.1687
12176TIP3    H158019   6.350   5.746  11.955 -0.0013  0.8003  1.3656
12176TIP3    H258020   6.324   5.601  11.918  2.0450  0.6376  0.5045
12177TIP3   OH258021   1.318   3.334   4.199  0.3229  0.1302  0.2737
12177TIP3    H158022   1.256   3.387   4.149 -1.9039 -0.8557  1.8769
12177TIP3    H258023   1.263   3.289   4.263  2.7329 -0.8256  1.7030
12178TIP3   OH258024   5.707   6.191  13.630  0.1315 -0.9369 -0.0329
12178TIP3    H158025   5.713   6.141  13.549  4.7009 -2.2622  0.9443
12178TIP3    H258026   5.709   6.283  13.603 -0.7944 -1.3544 -1.5242
12179TIP3   OH258027   3.863   0.625   1.577  0.1628  0.3227  0.1624
12179TIP3    H158028   3.888   0.662   1.493  0.6241  0.1087  0.2054
12179TIP3    H258029   3.864   0.530   1.563 -0.2523  0.3022  0.2682
12180TIP3   OH258030   0.210   2.208  16.956  0.4188  0.4364  0.3811
12180TIP3    H158031   0.266   2.275  16.994 -1.7900  2.1146  0.7616
12180TIP3    H258032   0.224   2.216  16.861  2.0338 -0.2778  0.5403
12181TIP3   OH258033   5.174   2.262  12.070  0.0840 -0.2740  0.3143
12181TIP3    H158034   5.179   2.355  12.094 -0.8578  0.0487 -0.6955
12181TIP3    H258035   5.086   2.251  12.035  0.7472 -1.1856 -1.1176
12182TIP3   OH258036   1.830   5.782  13.561  0.3971 -0.1452 -0.0242
12182TIP3    H158037   1.789   5.696  13.567 -0.5459  0.2795 -0.3328
12182TIP3    H258038   1.841   5.797  13.467 -1.4439  0.9986 -0.0876
12183TIP3   OH258039   5.163   6.470  15.063 -0.6799 -0.0835 -0.3191
12183TIP3    H158040   5.163   6.444  15.155 -1.8043  0.9596 -0.0060
12183TIP3    H258041   5.138   6.562  15.064  2.5520  0.8494 -1.4587
12184TIP3   OH258042   2.941   0.394   0.866 -0.3985 -0.3893  0.1605
12184TIP3    H158043   2.896   0.315   0.896  0.0179 -0.4575  0.6145
12184TIP3    H258044   2.891   0.466   0.905 -1.2404 -0.4082 -0.8989
12185TIP3   OH258045   5.236   0.378  12.301 -1.2813  0.7936 -0.7147
12185TIP3    H158046   5.229   0.474  12.302  0.1921  0.9500  2.2297
12185TIP3    H258047   5.329   0.361  12.287 -1.4773 -0.1913 -0.8269
12186TIP3   OH258048   4.311   2.161   6.046  0.0461  0.9116 -0.1234
12186TIP3    H158049   4.223   2.177   6.079  0.8760  1.2476  2.0819
12186TIP3    H258050   4.312   2.068   6.022 -0.6609  0.6795  0.7153
12187TIP3   OH258051   1.120   4.717   0.120 -0.4234 -0.8553  0.2424
12187TIP3    H158052   1.068   4.785   0.162 -0.2519  1.2888 -2.8488
12187TIP3    H258053   1.056   4.651   0.093 -1.1275  0.1088 -0.4721
12188TIP3   OH258054   2.694   6.423  15.221  0.1685 -0.2627 -0.0300
12188TIP3    H158055   2.704   6.516  15.244  2.2222 -0.2821 -0.8027
12188TIP3    H258056   2.702   6.377  15.304 -2.0709  0.3050  0.5407
12189TIP3   OH258057   5.232   0.444  13.866 -1.1446  0.2131 -0.9082
12189TIP3    H158058   5.142   0.417  13.881  0.0530 -2.5187  2.0321
12189TIP3    H258059   5.270   0.373  13.812 -0.4992  0.8308 -1.2779
12190TIP3   OH258060   3.285   4.212  16.945  0.1007 -0.2595  0.1100
12190TIP3    H158061   3.340   4.290  16.955 -0.2283  0.2185 -1.6753
12190TIP3    H258062   3.216   4.223  17.010  0.6184  0.4320  0.5571
12191TIP3   OH258063   1.033   1.809  12.533  0.0123 -0.2537  0.2893
12191TIP3    H158064   1.086   1.767  12.465  1.0975  1.4529  0.0767
12191TIP3    H258065   0.996   1.887  12.491  0.3280  0.5688  1.5336
12192TIP3   OH258066   5.184   6.517   0.707  0.0083 -0.0931 -0.2927
12192TIP3    H158067   5.213   6.587   0.649  1.6732 -0.1352  0.4507
12192TIP3    H258068   5.215   6.437   0.664  1.8577 -0.0802  0.9698
12193TIP3   OH258069   1.119   1.880  15.484 -0.1032  0.4376 -0.2468
12193TIP3    H158070   1.182   1.896  15.413 -1.2965  1.7696 -1.0095
12193TIP3    H258071   1.092   1.789  15.471 -1.2150  1.0312 -2.2344
12194TIP3   OH258072   3.715   3.492   2.873  0.2783  0.0589 -0.6838
12194TIP3    H158073   3.686   3.534   2.954  1.6347 -0.5894  0.1508
12194TIP3    H258074   3.804   3.525   2.860 -0.4282  1.2995 -2.7098
12195TIP3   OH258075   0.676   5.024   4.186  0.2199 -0.3894  0.2472
12195TIP3    H158076   0.612   5.088   4.156  1.2746 -0.0209 -1.2776
12195TIP3    H258077   0.715   4.989   4.106  2.6840  0.1669  1.1493
12196TIP3   OH258078   1.019   2.660   1.269  0.3097 -0.3398 -0.3516
12196TIP3    H158079   0.973   2.601   1.329  1.2154 -0.5231  0.1739
12196TIP3    H258080   1.080   2.604   1.222  2.8979  0.5147  1.8643
12197TIP3   OH258081   5.019   0.599  12.543  0.2254  0.0418 -0.0765
12197TIP3    H158082   5.104   0.590  12.585  0.0361 -0.4372  0.2106
12197TIP3    H258083   5.030   0.671  12.481 -0.0098  1.9634  2.0679
12198TIP3   OH258084   4.960   4.902   3.017 -0.5883 -0.7662 -0.1538
12198TIP3    H158085   4.945   4.921   2.924  0.6563 -0.6548 -0.3465
12198TIP3    H258086   4.922   4.978   3.063 -1.7312 -1.1001 -0.5257
12199TIP3   OH258087   1.964   2.217  12.691  0.2240  0.0860  0.0275
12199TIP3    H158088   1.909   2.180  12.760  1.4433 -2.4200 -0.2807
12199TIP3    H258089   1.993   2.301  12.725 -0.2328 -0.5417  2.0216
12200TIP3   OH258090   2.594   3.130   4.289  0.1564 -0.1293 -0.3979
12200TIP3    H158091   2.535   3.083   4.347  1.4582 -1.6272 -0.2587
12200TIP3    H258092   2.559   3.219   4.285 -1.9751 -0.9460 -0.1578
12201TIP3   OH258093   6.787   0.523  14.948  0.1496  0.1060 -0.0473
12201TIP3    H158094   6.765   0.464  14.876  0.1157  1.5214 -1.2114
12201TIP3    H258095   6.864   0.571  14.918 -0.3242  1.2569  0.5340
12202TIP3   OH258096   4.516   6.559   1.527  0.1723 -0.8837 -0.2523
12202TIP3    H158097   4.530   6.593   1.615  0.3962 -1.2401 -0.1517
12202TIP3    H258098   4.522   6.637   1.470 -1.3004 -0.4517  0.1711
12203TIP3   OH258099   5.830   2.659   4.481 -0.6163  0.5845 -0.0592
12203TIP3    H158100   5.836   2.736   4.425 -0.4647  1.0332  0.5628
12203TIP3    H258101   5.921   2.635   4.498 -0.6597 -0.1067 -0.7461
12204TIP3   OH258102   2.658   4.601   0.559  0.6983  0.1197  0.0074
12204TIP3    H158103   2.737   4.647   0.588  0.4434  0.6898 -0.2009
12204TIP3    H258104   2.586   4.660   0.583  0.1851 -1.1919  1.8413
12205TIP3   OH258105   6.458   3.972  16.154 -0.6216  0.0841 -0.5140
12205TIP3    H158106   6.429   3.963  16.064 -1.1886  0.8509 -0.4214
12205TIP3    H258107   6.378   3.964  16.206 -0.4085  0.3869 -0.1334
12206TIP3   OH258108   4.074   1.158  14.990  0.2262 -0.3517  0.1105
12206TIP3    H158109   4.159   1.129  14.958  1.0978 -0.8550  2.7270
12206TIP3    H258110   4.018   1.159  14.913  2.4105 -0.7282 -1.5245
12207TIP3   OH258111   1.189   1.448   5.276 -0.4840 -0.2715  0.2791
12207TIP3    H158112   1.211   1.541   5.270 -0.4363 -0.3082 -0.1210
12207TIP3    H258113   1.095   1.447   5.295 -0.5782 -0.1501 -0.1807
12208TIP3   OH258114   2.261   0.214   6.143  0.0711 -0.3820 -0.5815
12208TIP3    H158115   2.199   0.286   6.131  0.0810 -0.5354 -1.5676
12208TIP3    H258116   2.267   0.204   6.238  0.6352  1.4114 -0.4013
12209TIP3   OH258117   0.974   1.955   1.480 -0.2140 -0.5017 -0.2593
12209TIP3    H158118   0.910   1.906   1.428 -1.2166  0.0518  0.4574
12209TIP3    H258119   0.929   2.036   1.503 -0.2984 -1.3414  2.6996
12210TIP3   OH258120   3.039   2.311   2.162 -0.2645  0.1749 -0.1557
12210TIP3    H158121   3.041   2.228   2.115 -0.4303  0.3602 -0.4886
12210TIP3    H258122   2.972   2.299   2.229 -0.4195  0.1045 -0.3235
12211TIP3   OH258123   5.415   2.285  13.550  0.3021 -0.3179  0.2962
12211TIP3    H158124   5.464   2.204  13.548 -1.0265 -1.1266 -0.6624
12211TIP3    H258125   5.478   2.351  13.577  1.8086 -1.3845 -0.5254
12212TIP3   OH258126   5.780   6.259   0.476  0.1632  0.0236 -0.6301
12212TIP3    H158127   5.796   6.310   0.396 -0.2759 -0.4411 -1.0141
12212TIP3    H258128   5.718   6.192   0.449  1.7936 -1.5913 -0.4602
12213TIP3   OH258129   5.877   1.323   3.694 -0.4938 -0.1705  0.6842
12213TIP3    H158130   5.872   1.372   3.776  1.2678 -0.8802  1.2399
12213TIP3    H258131   5.786   1.308   3.669 -1.0467 -0.2061  2.6729
12214TIP3   OH258132   2.136   3.931   0.261 -0.4168  0.4236  0.4483
12214TIP3    H158133   2.041   3.918   0.264 -0.6987  0.5912 -4.2796
12214TIP3    H258134   2.147   4.025   0.252  0.1717  0.3238  0.1536
12215TIP3   OH258135   3.580   0.450   0.414  0.3517 -0.0324 -0.2693
12215TIP3    H158136   3.639   0.480   0.345  2.2176 -0.0165  1.2872
12215TIP3    H258137   3.559   0.529   0.464 -1.7053  0.1095 -1.3091
12216TIP3   OH258138   4.630   3.499   4.765  0.1646  0.0077  0.3085
12216TIP3    H158139   4.630   3.439   4.839 -1.2599 -0.0577  0.2740
12216TIP3    H258140   4.608   3.584   4.803 -1.2007 -0.1425 -0.1037
12217TIP3   OH258141   0.195   2.299   2.382 -0.2643 -0.1498 -0.1383
12217TIP3    H158142   0.237   2.260   2.306 -1.4193 -0.5257 -0.5982
12217TIP3    H258143   0.241   2.262   2.457 -0.8594 -1.8280 -0.5928
12218TIP3   OH258144   3.311   1.822  17.265  0.4354 -0.3271 -0.1753
12218TIP3    H158145   3.353   1.904  17.291 -2.1783  0.6715  1.0701
12218TIP3    H258146   3.338   1.760  17.333 -0.2257  0.3659  0.7457
12219TIP3   OH258147   4.460   2.053   2.473 -0.3841  0.1337  0.7022
12219TIP3    H158148   4.482   1.964   2.502  0.6956  0.0065 -0.4480
12219TIP3    H258149   4.544   2.098   2.468 -0.6680  0.5159 -0.9898
12220TIP3   OH258150   0.485   5.646  13.124 -0.5800 -0.1092  0.2489
12220TIP3    H158151   0.505   5.734  13.092 -2.9820  0.4495  0.1869
12220TIP3    H258152   0.474   5.657  13.219 -0.5018 -0.4198  0.2958
12221TIP3   OH258153   0.253   6.146   4.188 -0.0106 -0.3863  0.2811
12221TIP3    H158154   0.211   6.214   4.241 -0.6465 -1.1607  0.7826
12221TIP3    H258155   0.343   6.144   4.218  0.7971  2.2210 -1.7234
12222TIP3   OH258156   2.193   1.993  13.295 -0.5861  0.7269  0.0327
12222TIP3    H158157   2.260   2.007  13.227 -0.5663 -0.2582 -0.1572
12222TIP3    H258158   2.209   2.063  13.359  0.9308  0.2351  0.2241
12223TIP3   OH258159   5.949   3.313   3.539  0.0407 -0.2862  0.2685
12223TIP3    H158160   5.862   3.278   3.556 -0.4516 -0.0112 -1.5685
12223TIP3    H258161   5.946   3.341   3.448  2.3312 -1.1041 -0.0937
12224TIP3   OH258162   4.460   2.217  12.772  0.4718  0.0530  0.3276
12224TIP3    H158163   4.523   2.286  12.796 -0.2806  0.6625  0.5604
12224TIP3    H258164   4.425   2.246  12.688 -1.1028  0.8439  1.2309
12225TIP3   OH258165   6.240   6.593  11.204  0.3663 -0.6242 -0.7029
12225TIP3    H158166   6.225   6.642  11.123  0.8413 -1.0099 -1.0322
12225TIP3    H258167   6.237   6.659  11.273  0.0227 -0.2804 -1.0418
12226TIP3   OH258168   5.574   3.290  13.929 -0.2064 -0.0509 -0.8318
12226TIP3    H158169   5.650   3.347  13.918 -1.2608  1.5200 -0.0414
12226TIP3    H258170   5.612   3.205  13.952  1.3147  0.7652 -0.2281
12227TIP3   OH258171   2.843   4.914   2.407 -0.0209  0.1252 -0.2051
12227TIP3    H158172   2.769   4.854   2.418  0.2905 -0.0291  1.0652
12227TIP3    H258173   2.830   4.981   2.474  1.2530 -0.1695  0.3470
12228TIP3   OH258174   5.466   0.062   3.610  0.6224 -0.0301  0.1627
12228TIP3    H158175   5.397   0.034   3.671 -1.0029 -2.4041 -2.6272
12228TIP3    H258176   5.451   0.156   3.599 -1.8320 -0.3779  0.1065
12229TIP3   OH258177   0.980   3.041  12.609  1.0196 -0.8402 -0.2376
12229TIP3    H158178   0.982   3.044  12.705  2.6463  1.5755 -0.3053
12229TIP3    H258179   0.991   2.949  12.588  1.4511 -1.3091  1.8869
12230TIP3   OH258180   1.915   0.496  12.635  0.4937 -0.5642  0.6050
12230TIP3    H158181   1.981   0.565  12.627  0.0257 -0.2275 -0.4302
12230TIP3    H258182   1.963   0.415  12.617  0.8843 -0.4347  1.0617
12231TIP3   OH258183   1.367   5.859  13.216 -0.2194 -0.4162  0.0118
12231TIP3    H158184   1.284   5.813  13.226 -0.3917 -0.3253 -0.9489
12231TIP3    H258185   1.428   5.792  13.186 -0.2134 -0.2476 -0.3529
12232TIP3   OH258186   3.444   6.505   0.433  0.0936 -0.6534 -0.8499
12232TIP3    H158187   3.500   6.492   0.510  0.7640 -1.4207 -1.4603
12232TIP3    H258188   3.479   6.583   0.391 -0.6602  0.1250 -0.0414
12233TIP3   OH258189   0.341   0.544   2.672 -0.2300 -0.1853  0.2214
12233TIP3    H158190   0.275   0.599   2.629 -0.2489  0.8603  1.5473
12233TIP3    H258191   0.423   0.568   2.629 -0.4222 -0.0811 -0.0958
12234TIP3   OH258192   1.849   6.332  14.142 -0.3477  0.0453 -0.2260
12234TIP3    H158193   1.832   6.242  14.170  2.5564  0.0339  1.7391
12234TIP3    H258194   1.943   6.344  14.158 -0.7957  3.5875  0.0061
12235TIP3   OH258195   5.471   4.451   5.608 -0.8263  0.3663  0.3463
12235TIP3    H158196   5.435   4.422   5.525  0.3231  2.0987 -0.7819
12235TIP3    H258197   5.433   4.392   5.673 -2.7802 -0.1497 -1.2397
12236TIP3   OH258198   6.325   2.589   2.086  0.4347  0.3293 -0.0085
12236TIP3    H158199   6.303   2.681   2.100  2.6662  0.7186  1.1568
12236TIP3    H258200   6.383   2.567   2.159  0.7960 -1.6968 -0.8751
12237TIP3   OH258201   3.340   1.783   0.922  0.7217  0.2077 -0.7016
12237TIP3    H158202   3.374   1.714   0.864 -0.4201 -1.2886  0.3737
12237TIP3    H258203   3.382   1.767   1.006 -0.1211  0.3423 -0.2432
12238TIP3   OH258204   1.249   4.976  12.147 -0.1076 -0.1227  0.2471
12238TIP3    H158205   1.317   4.916  12.114 -0.9104 -2.4136  2.5980
12238TIP3    H258206   1.298   5.046  12.191  0.7857 -0.3160 -0.4258
12239TIP3   OH258207   0.185   3.787  16.845 -0.2758  0.0695 -0.0165
12239TIP3    H158208   0.135   3.735  16.782 -0.0308  0.6020 -0.6574
12239TIP3    H258209   0.141   3.772  16.929 -1.2086  0.1321 -0.4876
12240TIP3   OH258210   4.033   3.520  13.409  0.3368 -0.0872 -0.0790
12240TIP3    H158211   4.029   3.428  13.383 -0.2538 -0.1841  0.3566
12240TIP3    H258212   4.019   3.569  13.328 -2.5885 -0.3822  0.2048
12241TIP3   OH258213   1.587   4.466   2.936  0.1433  0.2570 -0.4232
12241TIP3    H158214   1.649   4.538   2.922  0.2515  0.0303 -1.1310
12241TIP3    H258215   1.598   4.410   2.859 -0.5861 -0.0468 -0.3079
12242TIP3   OH258216   0.914   5.671   3.758  0.3238 -0.1639 -0.1329
12242TIP3    H158217   0.970   5.677   3.680 -1.2857 -1.0018 -1.3981
12242TIP3    H258218   0.830   5.707   3.730 -0.7096 -1.7943  0.7721
12243TIP3   OH258219   4.871   6.491   3.293 -0.0580 -0.9463  0.0198
12243TIP3    H158220   4.799   6.555   3.285 -0.1898 -1.1151 -0.1312
12243TIP3    H258221   4.827   6.406   3.296  0.1723 -1.0939 -0.7270
12244TIP3   OH258222   6.446   5.619  14.407  0.1640  0.0260  0.2483
12244TIP3    H158223   6.540   5.637  14.398 -0.1703  1.9580  0.4620
12244TIP3    H258224   6.442   5.541  14.463  1.6975 -1.7462 -2.0070
12245TIP3   OH258225   0.488   2.902  16.596  0.0947 -0.0920  0.0859
12245TIP3    H158226   0.418   2.951  16.639 -0.2289  0.2330 -0.8052
12245TIP3    H258227   0.444   2.855  16.525  0.3940 -1.7271  0.9770
12246TIP3   OH258228   3.652   0.378   1.631  0.2550  0.0426 -0.5079
12246TIP3    H158229   3.655   0.445   1.699 -1.0878 -0.8773  0.4670
12246TIP3    H258230   3.607   0.421   1.558 -0.5215  0.2294  0.0773
12247TIP3   OH258231   3.751   6.690   2.898 -0.0059  0.2489 -0.0602
12247TIP3    H158232   3.802   6.691   2.817  0.1808 -0.9448  0.0348
12247TIP3    H258233   3.667   6.653   2.874 -0.5592  1.4635 -0.0450
12248TIP3   OH258234   6.148   1.661   6.518 -0.0106 -0.0063 -0.0506
12248TIP3    H158235   6.167   1.617   6.601 -0.3555  0.6095  0.3613
12248TIP3    H258236   6.226   1.647   6.464 -0.4464 -1.8616 -0.2543
12249TIP3   OH258237   4.496   4.854   2.786  0.0471 -0.0800  0.0474
12249TIP3    H158238   4.492   4.938   2.831  1.4737 -0.3526  0.7177
12249TIP3    H258239   4.439   4.796   2.838 -1.6481  0.6897 -0.9303
12250TIP3   OH258240   1.321   3.467  11.913 -0.1040 -0.3828 -0.0626
12250TIP3    H158241   1.233   3.490  11.884 -0.1877 -1.1860 -0.4658
12250TIP3    H258242   1.344   3.390  11.860  1.5410  0.8905 -1.2766
12251TIP3   OH258243   5.300   6.412  17.164 -0.0912 -0.5944 -0.2964
12251TIP3    H158244   5.211   6.394  17.132 -0.6719 -0.6476  1.3128
12251TIP3    H258245   5.304   6.507  17.169 -0.2656 -0.6133  0.2062
12252TIP3   OH258246   1.436   5.899   0.194  0.0591  0.0902  0.4455
12252TIP3    H158247   1.427   5.843   0.271 -0.5001  2.2954  2.0490
12252TIP3    H258248   1.457   5.985   0.230 -1.2207  1.3834 -1.8217
12253TIP3   OH258249   1.065   3.457   1.065  0.5765 -0.6113 -0.3719
12253TIP3    H158250   1.111   3.486   1.144 -0.2542  0.1773 -0.1763
12253TIP3    H258251   1.129   3.402   1.019  1.0891 -1.0255  0.8161
12254TIP3   OH258252   2.342   0.443   0.228  0.7290  0.1484 -0.0069
12254TIP3    H158253   2.346   0.370   0.290 -0.8096  1.6167  1.8517
12254TIP3    H258254   2.433   0.472   0.220  1.2220 -1.3847 -0.0414
12255TIP3   OH258255   6.498   0.889   2.041 -0.1914 -0.1938 -0.5931
12255TIP3    H158256   6.556   0.857   2.109 -1.9752 -0.9370  0.5971
12255TIP3    H258257   6.502   0.823   1.972 -1.8829 -1.7560  0.7605
12256TIP3   OH258258   0.491   5.225   3.831 -0.0783 -0.6579 -0.2311
12256TIP3    H158259   0.501   5.165   3.757 -1.6445 -0.5125 -0.5662
12256TIP3    H258260   0.544   5.301   3.807  2.6489 -2.2417  0.5901
12257TIP3   OH258261   5.597   5.143  15.640 -0.5105 -0.5057  0.5079
12257TIP3    H158262   5.548   5.061  15.636 -1.6736  0.1658  0.8683
12257TIP3    H258263   5.573   5.181  15.725  0.2201  0.0791  0.4527
12258TIP3   OH258264   6.792   6.506  15.199  0.1548  0.3669 -0.1816
12258TIP3    H158265   6.838   6.486  15.280  0.1980  1.7286  0.1365
12258TIP3    H258266   6.757   6.594  15.212  0.1046  0.5692 -1.6093
12259TIP3   OH258267   5.304   6.383  11.974 -0.6683  0.0389 -0.1590
12259TIP3    H158268   5.387   6.390  12.020 -0.0249 -1.3097 -1.0678
12259TIP3    H258269   5.294   6.289  11.957 -2.8937  0.0554  0.8839
12260TIP3   OH258270   1.244   3.884   4.747  0.3676  0.3647  0.2678
12260TIP3    H158271   1.210   3.932   4.671  0.7151  1.3759  0.7341
12260TIP3    H258272   1.210   3.795   4.737  0.5206  0.4489 -1.1446
12261TIP3   OH258273   5.330   5.221  12.919 -0.7151  0.1433  0.3231
12261TIP3    H158274   5.365   5.239  13.006  2.0353 -0.1040 -0.6816
12261TIP3    H258275   5.371   5.138  12.893 -1.9929 -0.1089 -0.9329
12262TIP3   OH258276   1.164   0.358   4.548  0.2204 -0.4420  0.2832
12262TIP3    H158277   1.199   0.325   4.466 -2.0198 -0.3346 -0.7703
12262TIP3    H258278   1.234   0.345   4.612  2.0922 -0.2617 -1.6991
12263TIP3   OH258279   6.147   0.971   2.159  0.8984  0.3164 -0.8306
12263TIP3    H158280   6.189   0.959   2.244 -1.9166  0.6499  0.6826
12263TIP3    H258281   6.129   1.065   2.155 -2.3209 -0.1931 -0.0655
12264TIP3   OH258282   2.995   4.109  15.370  0.0711 -0.2773 -0.3426
12264TIP3    H158283   3.029   4.020  15.374 -0.6080 -0.5531 -0.8833
12264TIP3    H258284   3.028   4.150  15.451 -0.6638 -1.3778  0.5211
12265TIP3   OH258285   5.057   4.429  13.664  0.3492 -0.5700  0.1003
12265TIP3    H158286   5.123   4.465  13.605  0.4624 -0.0280  0.5516
12265TIP3    H258287   4.992   4.499  13.672  1.5169  0.2835  2.4804
12266TIP3   OH258288   6.441   0.749   0.211  0.7119 -0.0492 -0.4419
12266TIP3    H158289   6.422   0.816   0.276  1.9947 -0.0157 -0.0909
12266TIP3    H258290   6.355   0.716   0.184 -0.0183  2.8170 -1.7812
12267TIP3   OH258291   4.980   5.792  10.889  0.8467 -0.3036 -0.0273
12267TIP3    H158292   4.897   5.785  10.936  0.3259 -2.1474 -1.1829
12267TIP3    H258293   4.982   5.882  10.857 -0.6123 -0.1914  0.1594
12268TIP3   OH258294   4.789   3.803   5.739 -0.5471  0.7625 -0.3411
12268TIP3    H158295   4.736   3.724   5.753  1.2781 -0.5969 -0.8729
12268TIP3    H258296   4.748   3.847   5.665  0.1250 -1.2467 -1.9484
12269TIP3   OH258297   0.610   3.798  14.035 -0.3164 -0.1414  0.8484
12269TIP3    H158298   0.634   3.802  13.943 -0.7191 -1.0750  0.6988
12269TIP3    H258299   0.532   3.744  14.038 -0.7641  0.5310  1.6589
12270TIP3   OH258300   1.497   1.538   2.492  0.2091 -0.0244 -0.0014
12270TIP3    H158301   1.556   1.475   2.533  0.3999 -0.0554 -0.3166
12270TIP3    H258302   1.410   1.503   2.507  0.0495  1.5249  3.0366
12271TIP3   OH258303   3.992   5.692  15.420 -0.1710  0.2275  0.2193
12271TIP3    H158304   3.944   5.619  15.382 -0.9858 -0.2625  2.1230
12271TIP3    H258305   3.967   5.768  15.367 -0.2109 -0.6730 -1.0556
12272TIP3   OH258306   3.294   3.943  15.177 -0.3980 -0.0161 -0.0970
12272TIP3    H158307   3.323   3.907  15.262 -1.5469 -2.9626 -0.8837
12272TIP3    H258308   3.371   3.934  15.121 -0.4747 -0.6918 -0.1039
12273TIP3   OH258309   5.644   5.344  14.429  0.5116  0.1972  0.1745
12273TIP3    H158310   5.585   5.331  14.355 -0.8762  0.8920  1.1482
12273TIP3    H258311   5.727   5.305  14.401 -0.4381 -0.8868 -1.1582
12274TIP3   OH258312   0.610   4.284   1.026  0.1238  0.4153  0.5112
12274TIP3    H158313   0.635   4.372   0.998  1.4006 -0.1834 -0.2487
12274TIP3    H258314   0.531   4.297   1.079  1.0417  2.1538  1.4945
12275TIP3   OH258315   2.554   4.540  12.814  0.4061 -0.3693 -0.1703
12275TIP3    H158316   2.554   4.635  12.798  1.6540 -0.5653 -1.4784
12275TIP3    H258317   2.514   4.503  12.735  1.9205 -1.0514 -0.6413
12276TIP3   OH258318   0.624   0.257  14.931  0.2933 -0.6373  0.6161
12276TIP3    H158319   0.562   0.308  14.983 -0.8697 -1.5278  0.1275
12276TIP3    H258320   0.705   0.259  14.982  0.1359  1.2620  0.8455
12277TIP3   OH258321   0.528   1.906  16.992  0.1684 -0.0797 -0.1166
12277TIP3    H158322   0.565   1.841  17.052  0.1094  0.2808  0.3149
12277TIP3    H258323   0.520   1.860  16.909  0.3785 -0.5441  0.1200
12278TIP3   OH258324   4.615   5.328  10.536  0.1753 -0.2207 -0.0527
12278TIP3    H158325   4.679   5.259  10.524 -1.0119 -1.1304 -1.3880
12278TIP3    H258326   4.663   5.409  10.520  0.9968 -0.8894 -1.0301
12279TIP3   OH258327   1.706   3.078   1.684  0.0143  0.2669  0.0760
12279TIP3    H158328   1.729   3.081   1.777 -0.2149 -0.9996  0.1707
12279TIP3    H258329   1.773   3.024   1.644  0.6003  1.5066 -0.6531
12280TIP3   OH258330   4.836   4.210   4.595  0.2356  0.5092  0.0249
12280TIP3    H158331   4.770   4.213   4.525  0.2816 -0.2982 -0.0623
12280TIP3    H258332   4.818   4.287   4.649 -0.8171  0.2713  0.0293
12281TIP3   OH258333   6.663   2.918   4.916  0.1106  0.9929 -0.6632
12281TIP3    H158334   6.650   2.954   5.004  1.2687  0.4401 -0.2595
12281TIP3    H258335   6.644   2.825   4.925  1.4559  0.7010 -0.7023
12282TIP3   OH258336   6.438   6.076   0.889 -0.5385  0.2155  0.2029
12282TIP3    H158337   6.422   6.115   0.975 -1.6565  2.3113 -0.9317
12282TIP3    H258338   6.351   6.054   0.856 -0.1396 -0.2011 -0.5839
12283TIP3   OH258339   5.387   4.917  15.066 -0.0112 -0.2500  0.2130
12283TIP3    H158340   5.462   4.860  15.082 -0.1287 -0.3705  0.3247
12283TIP3    H258341   5.426   5.002  15.045  0.1596 -0.3554  0.1026
12284TIP3   OH258342   4.843   5.491  10.542  0.0961  0.5578 -0.5781
12284TIP3    H158343   4.814   5.576  10.574  0.5658  0.1462  0.9848
12284TIP3    H258344   4.919   5.511  10.487 -1.1207  1.3337 -1.9826
12285TIP3   OH258345   3.855   3.475  11.534 -0.2996  0.6320  0.3745
12285TIP3    H158346   3.874   3.553  11.586 -0.0847  0.8440 -0.0233
12285TIP3    H258347   3.825   3.411  11.598  2.9718 -0.1443  1.2048
12286TIP3   OH258348   4.958   4.498  14.547 -0.4953  0.2328 -0.0802
12286TIP3    H158349   4.903   4.444  14.491  1.6167  0.0619 -2.0862
12286TIP3    H258350   4.898   4.537  14.610 -2.8096 -0.3310 -1.8796
12287TIP3   OH258351   3.369   4.674  12.597 -0.6818  0.0117  0.1243
12287TIP3    H158352   3.300   4.703  12.537 -0.8545 -1.1905 -0.2735
12287TIP3    H258353   3.447   4.667  12.543 -0.3336  0.9481  0.4867
12288TIP3   OH258354   4.727   1.997   2.715  0.6866  0.1883  0.1020
12288TIP3    H158355   4.668   1.928   2.746 -0.4637  0.2565 -1.9221
12288TIP3    H258356   4.794   2.003   2.784  0.1885 -2.1704  0.8419
12289TIP3   OH258357   0.116   4.593   5.522  0.6110 -0.2777 -0.3777
12289TIP3    H158358   0.148   4.667   5.471  0.4280 -0.3015 -0.5285
12289TIP3    H258359   0.182   4.524   5.509  0.3150 -0.4508 -0.9859
12290TIP3   OH258360   0.661   1.647  15.455 -0.2780  0.2628  0.4077
12290TIP3    H158361   0.661   1.636  15.360  0.6094 -2.4685  0.6847
12290TIP3    H258362   0.619   1.568  15.488 -1.7627  1.7844  2.2576
12291TIP3   OH258363   3.381   3.878   5.234  0.4946  0.3885 -0.6049
12291TIP3    H158364   3.326   3.831   5.298  1.5387  0.2876  0.2358
12291TIP3    H258365   3.351   3.847   5.149 -0.7839  0.3677 -0.1692
12292TIP3   OH258366   0.420   2.900  13.741  0.6653 -0.0036  0.0908
12292TIP3    H158367   0.358   2.852  13.796  0.1740 -1.3936 -1.6345
12292TIP3    H258368   0.492   2.922  13.800 -0.9055  0.5816  1.8352
12293TIP3   OH258369   2.091   0.642  13.786 -0.5651  0.2219 -0.1757
12293TIP3    H158370   2.161   0.647  13.720 -1.1947 -0.6744 -0.9113
12293TIP3    H258371   2.043   0.724  13.776 -1.6475 -0.5959 -1.9548
12294TIP3   OH258372   5.889   3.689  16.914 -0.0091  0.0131  0.4045
12294TIP3    H158373   5.905   3.740  16.994 -1.0399 -0.4235  0.8962
12294TIP3    H258374   5.804   3.720  16.883  0.0933 -0.2797 -0.1791
12295TIP3   OH258375   3.073   2.422   1.478  0.5015 -1.1563 -0.4311
12295TIP3    H158376   3.010   2.459   1.417 -0.2560 -0.8843  0.4906
12295TIP3    H258377   3.020   2.395   1.554  1.3508 -1.9039 -0.0807
12296TIP3   OH258378   1.481   1.877   5.094  0.1714 -0.1376  0.3145
12296TIP3    H158379   1.450   1.866   5.184 -1.0976 -0.3561 -0.1402
12296TIP3    H258380   1.429   1.950   5.060  0.3785 -0.3007 -0.3533
12297TIP3   OH258381   5.698   3.767  12.643 -0.4151  0.1406  0.4036
12297TIP3    H158382   5.631   3.752  12.576 -0.1706  0.0835  0.1683
12297TIP3    H258383   5.766   3.816  12.598  0.2441 -0.8374  0.3117
12298TIP3   OH258384   6.366   1.653  15.747 -0.1326 -0.6039 -0.0782
12298TIP3    H158385   6.339   1.611  15.665 -1.7863 -1.6211  0.9489
12298TIP3    H258386   6.459   1.631  15.756  0.0844 -0.4111 -1.7064
12299TIP3   OH258387   1.822   6.258   4.860 -0.6402  0.2050  0.0368
12299TIP3    H158388   1.833   6.331   4.921  1.8376  0.5761 -0.7880
12299TIP3    H258389   1.831   6.179   4.914 -2.6272  0.4915  0.8112
12300TIP3   OH258390   3.937   0.606  11.473  0.3436 -0.2115  0.6345
12300TIP3    H158391   3.993   0.590  11.397 -0.1424 -0.2774  0.2898
12300TIP3    H258392   3.864   0.658  11.439  1.6195  2.3058  1.6235
12301TIP3   OH258393   6.456   1.472  12.143 -0.2387  0.0184  0.0078
12301TIP3    H158394   6.533   1.473  12.087 -0.5678  0.4020 -0.4384
12301TIP3    H258395   6.437   1.379  12.156 -0.6578 -0.0788 -1.2039
12302TIP3   OH258396   5.934   3.000  15.719  0.5253 -0.4557 -0.4801
12302TIP3    H158397   5.993   3.019  15.646 -1.8513  0.6994 -2.1291
12302TIP3    H258398   5.993   2.989  15.794  2.7899  1.7976 -1.8363
12303TIP3   OH258399   5.935   0.964  12.216  0.4610 -0.4729 -0.6060
12303TIP3    H158400   5.905   1.034  12.274 -0.4135 -0.4418 -1.0866
12303TIP3    H258401   5.993   1.009  12.154  0.6724 -0.3411 -0.3115
12304TIP3   OH258402   0.578   1.808  12.495  0.3275  0.2378  0.3061
12304TIP3    H158403   0.492   1.768  12.481  0.5937 -0.2951  0.2231
12304TIP3    H258404   0.637   1.735  12.510  0.7509  0.6130  0.4730
12305TIP3   OH258405   4.607   1.853   6.646  0.1306  0.4232  0.7514
12305TIP3    H158406   4.668   1.923   6.622 -0.1741  0.5052  0.2101
12305TIP3    H258407   4.599   1.799   6.567 -1.1460  0.8935  0.5456
12306TIP3   OH258408   1.979   4.537  13.174  0.2236  0.0746  0.5378
12306TIP3    H158409   2.056   4.486  13.149  0.9403  0.1623  2.4687
12306TIP3    H258410   1.919   4.472  13.211 -0.2597  0.1397 -0.1313
12307TIP3   OH258411   4.556   1.882   2.235 -0.1618  0.2356  0.0274
12307TIP3    H158412   4.584   1.842   2.318 -3.0385  1.6051  1.7503
12307TIP3    H258413   4.463   1.859   2.228  0.0834  0.0228 -2.9333
12308TIP3   OH258414   6.257   1.853   3.408  0.6320  0.1908 -0.0999
12308TIP3    H158415   6.179   1.805   3.379 -0.4642  0.4012  2.3738
12308TIP3    H258416   6.238   1.944   3.388  0.9062  0.0730 -0.9088
12309TIP3   OH258417   5.310   6.673  16.656 -0.3307 -0.2667 -0.3673
12309TIP3    H158418   5.270   6.760  16.661 -3.0865 -1.4027 -1.2154
12309TIP3    H258419   5.323   6.648  16.747 -0.2945  0.6871 -0.1024
12310TIP3   OH258420   1.249   4.416   4.700  0.4950 -0.7398 -0.0740
12310TIP3    H158421   1.169   4.454   4.663  0.2759 -1.9195 -0.8270
12310TIP3    H258422   1.219   4.337   4.746  0.9457 -0.0210  1.4660
12311TIP3   OH258423   2.442   6.713  12.653 -0.0754 -0.4625 -0.3877
12311TIP3    H158424   2.360   6.681  12.614 -0.3889  0.3322 -0.3721
12311TIP3    H258425   2.464   6.791  12.603 -0.9076  1.0421  1.5408
12312TIP3   OH258426   1.646   3.079   5.304  0.4392  0.2416 -0.3947
12312TIP3    H158427   1.700   2.999   5.305  0.2133  0.0213  4.1544
12312TIP3    H258428   1.562   3.050   5.268  0.0583 -1.8845  1.9989
12313TIP3   OH258429   3.884   3.473   4.576 -0.1916  0.0852 -0.4951
12313TIP3    H158430   3.931   3.476   4.659  0.7028 -0.7924 -0.9549
12313TIP3    H258431   3.886   3.563   4.544 -1.1122  0.5525  0.7425
12314TIP3   OH258432   3.931   0.160   0.267  0.4842 -0.1804 -0.5088
12314TIP3    H158433   4.019   0.125   0.254  0.9421  0.6822  0.1913
12314TIP3    H258434   3.922   0.167   0.362 -0.6441 -1.0046 -0.5367
12315TIP3   OH258435   1.287   6.573   5.358 -0.2871 -0.2510  0.0590
12315TIP3    H158436   1.382   6.560   5.363 -0.2444  0.2533  0.5923
12315TIP3    H258437   1.253   6.531   5.437 -0.3867  0.6809  0.5127
12316TIP3   OH258438   5.927   2.701   3.421 -0.2413 -0.1880  0.1318
12316TIP3    H158439   5.965   2.712   3.333 -1.5480 -0.2442 -0.4450
12316TIP3    H258440   5.982   2.756   3.477 -0.0556  0.7183 -0.9105
12317TIP3   OH258441   3.426   6.309   2.945  0.5949 -0.0633  0.1163
12317TIP3    H158442   3.511   6.341   2.975  1.3672 -0.2926 -1.7235
12317TIP3    H258443   3.428   6.215   2.965  0.0511  0.2403  1.6550
12318TIP3   OH258444   5.884   3.245  10.719  0.1640  0.5343 -0.1188
12318TIP3    H158445   5.911   3.194  10.642  0.1978 -2.0039  1.5234
12318TIP3    H258446   5.795   3.214  10.738  0.3151  0.8229  1.1102
12319TIP3   OH258447   0.835   1.407   4.621  0.0774 -0.1681  0.3515
12319TIP3    H158448   0.842   1.494   4.659  0.9943  0.3764 -1.0043
12319TIP3    H258449   0.747   1.403   4.584 -0.5768 -0.4583  1.9177
12320TIP3   OH258450   4.292   5.252  13.126  0.4227 -0.5109  0.0086
12320TIP3    H158451   4.301   5.161  13.096  2.2408 -0.1368 -0.7013
12320TIP3    H258452   4.212   5.253  13.178  0.4946 -2.5822  0.2154
12321TIP3   OH258453   5.202   4.440  12.196 -0.2259  0.1108  0.0286
12321TIP3    H158454   5.258   4.370  12.229 -0.9553  0.1365  1.3590
12321TIP3    H258455   5.120   4.397  12.173  0.6043 -0.0800 -2.7842
12322TIP3   OH258456   3.189   2.932  15.396  0.1035 -0.3579  0.0733
12322TIP3    H158457   3.115   2.872  15.384 -1.8322  1.8198  0.5944
12322TIP3    H258458   3.162   2.989  15.468  0.7818  2.6978 -1.9990
12323TIP3   OH258459   2.221   5.720   2.781  0.4713  0.1247  0.3358
12323TIP3    H158460   2.231   5.626   2.796 -1.4997 -0.3164 -0.7879
12323TIP3    H258461   2.140   5.727   2.730 -0.8786  2.6647  2.7299
12324TIP3   OH258462   0.990   4.317  17.160 -0.7241 -0.7911 -1.0006
12324TIP3    H158463   0.999   4.223  17.178  0.4917 -0.8059 -1.6136
12324TIP3    H258464   0.950   4.322  17.073  1.3881 -0.7839 -2.0177
12325TIP3   OH258465   3.065   4.219  13.797  0.2443  0.1654  0.1652
12325TIP3    H158466   3.057   4.207  13.703  0.0687  1.3074  0.0314
12325TIP3    H258467   3.113   4.301  13.808 -0.8338  0.6973  1.0622
12326TIP3   OH258468   5.457   6.389  16.915 -0.4280  0.0244  0.1527
12326TIP3    H158469   5.399   6.430  16.979 -0.0561  0.0936  0.4468
12326TIP3    H258470   5.432   6.296  16.915 -0.2693 -0.0175  0.5695
12327TIP3   OH258471   3.739   6.134   2.270  0.2410 -0.6600  0.0347
12327TIP3    H158472   3.651   6.157   2.299 -0.0756 -0.4517 -1.0512
12327TIP3    H258473   3.782   6.098   2.348 -0.0068  1.4665  1.1830
12328TIP3   OH258474   4.167   6.560   1.261 -0.4514 -0.0017  0.1910
12328TIP3    H158475   4.176   6.578   1.167  0.3510  0.7456  0.4064
12328TIP3    H258476   4.127   6.639   1.297 -2.7888 -1.1216  0.1563
12329TIP3   OH258477   4.725   1.406   2.995  0.4779  0.0369 -0.5905
12329TIP3    H158478   4.779   1.341   2.950 -0.3483 -1.0521  0.0044
12329TIP3    H258479   4.679   1.358   3.063 -1.7446  0.8303 -1.4752
12330TIP3   OH258480   6.076   0.507  14.714  0.5736  0.5912  0.1811
12330TIP3    H158481   6.084   0.582  14.655 -0.2253  2.9544  2.9630
12330TIP3    H258482   6.147   0.520  14.778  0.6150 -1.1978  0.5074
12331TIP3   OH258483   4.131   5.194   3.718  0.5308 -0.1687 -0.3678
12331TIP3    H158484   4.223   5.210   3.740  0.6754 -1.8022  0.3248
12331TIP3    H258485   4.082   5.233   3.791  0.7296 -0.2587 -0.1851
12332TIP3   OH258486   4.995   4.542   2.440 -0.3175  0.1400  0.2781
12332TIP3    H158487   5.040   4.462   2.468 -2.4033 -1.5400 -1.0109
12332TIP3    H258488   4.905   4.532   2.471 -1.1576  0.9545 -1.7900
12333TIP3   OH258489   6.024   3.758  14.352 -0.2274 -0.4472 -0.0269
12333TIP3    H158490   5.963   3.738  14.282  1.1808  0.2884 -1.4903
12333TIP3    H258491   5.986   3.835  14.395 -0.1851  0.2167 -1.1468
12334TIP3   OH258492   2.084   5.224   5.535  0.1989  0.4909  0.0604
12334TIP3    H158493   2.120   5.189   5.454  0.7280  1.0546  0.0442
12334TIP3    H258494   2.065   5.148   5.589  0.6319  0.1518 -0.2673
12335TIP3   OH258495   5.134   2.239  16.250  0.2716  0.1017  0.3546
12335TIP3    H158496   5.118   2.235  16.344 -1.0949 -1.2146  0.0792
12335TIP3    H258497   5.216   2.288  16.242 -0.9063  2.4477  2.0789
12336TIP3   OH258498   6.186   0.213   3.768 -0.2990  0.1071 -0.1518
12336TIP3    H158499   6.173   0.124   3.734 -0.9870 -0.3579  1.3063
12336TIP3    H258500   6.130   0.217   3.845  3.0342  0.3538  2.3406
12337TIP3   OH258501   2.197   6.119   1.293  0.0898 -0.4008  0.0830
12337TIP3    H158502   2.147   6.184   1.342  0.3975  1.5670 -2.1579
12337TIP3    H258503   2.281   6.162   1.275 -0.3771 -0.6846 -2.9980
12338TIP3   OH258504   5.916   6.759   4.790 -0.4445 -0.1119 -0.3766
12338TIP3    H158505   5.921   6.760   4.885 -2.6034  2.8795 -0.2262
12338TIP3    H258506   5.991   6.810   4.761 -2.0973  2.6158 -0.0474
12339TIP3   OH258507   1.894   2.521   2.209  0.5680 -0.7941  0.0471
12339TIP3    H158508   1.821   2.505   2.148 -0.0388 -1.4241  0.9364
12339TIP3    H258509   1.968   2.477   2.169  0.1247 -1.3701 -0.1421
12340TIP3   OH258510   1.970   5.724   1.559 -0.1749 -0.0658 -0.6789
12340TIP3    H158511   2.018   5.740   1.478  1.1646 -2.1953 -0.3534
12340TIP3    H258512   2.039   5.716   1.626 -0.9829 -2.4740 -0.0809
12341TIP3   OH258513   4.147   2.118   0.392 -0.3107  0.1431  0.4226
12341TIP3    H158514   4.075   2.076   0.439 -0.3238  0.0299  0.3014
12341TIP3    H258515   4.110   2.143   0.308  0.0262 -0.7233  0.0026
12342TIP3   OH258516   0.273   5.816  14.820  0.8200  0.0735  0.2018
12342TIP3    H158517   0.290   5.733  14.775  1.8272  0.2302  0.2820
12342TIP3    H258518   0.357   5.862  14.817  0.2726  1.0771  0.1876
12343TIP3   OH258519   1.063   2.045  16.349  0.3732  0.4537 -0.1239
12343TIP3    H158520   1.107   1.984  16.408  0.3949  2.2104  1.7044
12343TIP3    H258521   0.972   2.015  16.347  0.1986  0.8465  1.4260
12344TIP3   OH258522   3.089   6.213   3.549 -0.2755  0.7194 -0.0365
12344TIP3    H158523   3.014   6.212   3.608 -0.5615  1.4057 -0.3846
12344TIP3    H258524   3.151   6.151   3.587 -1.6487 -1.0146 -0.5514
12345TIP3   OH258525   1.889   0.206   5.042 -0.3470  0.5164  0.2759
12345TIP3    H158526   1.900   0.149   5.119 -1.6721  0.4528  0.4258
12345TIP3    H258527   1.951   0.277   5.056 -0.5445  0.4750  1.3802
12346TIP3   OH258528   6.358   5.530  10.230  0.0871  0.3866  0.2765
12346TIP3    H158529   6.416   5.453  10.227  0.5395  0.7497 -0.4352
12346TIP3    H258530   6.292   5.507  10.295  1.0305 -0.0450  1.1072
12347TIP3   OH258531   3.411   4.122   0.197 -0.0601 -0.0082 -0.1788
12347TIP3    H158532   3.487   4.174   0.170  0.7170 -0.2677  1.4518
12347TIP3    H258533   3.375   4.088   0.115  0.2847  1.9050 -1.1502
12348TIP3   OH258534   0.475   5.656   4.993 -0.7360  0.0394 -0.2861
12348TIP3    H158535   0.465   5.655   4.898 -0.7331 -0.0027 -0.2861
12348TIP3    H258536   0.496   5.565   5.016 -0.6483  0.0680 -0.2543
12349TIP3   OH258537   0.284   3.399  11.599 -0.2744  0.0576  0.3301
12349TIP3    H158538   0.379   3.391  11.590 -0.1201  0.8944  1.1257
12349TIP3    H258539   0.251   3.394  11.509  0.3496 -2.1308  0.1770
12350TIP3   OH258540   4.691   1.281   6.413  0.1199 -0.1979 -0.2864
12350TIP3    H158541   4.636   1.219   6.461  0.9676 -1.0558 -0.4119
12350TIP3    H258542   4.777   1.240   6.411  0.9073  1.3693  0.3737
12351TIP3   OH258543   4.074   3.770   5.310 -0.5737 -0.4448  0.5146
12351TIP3    H158544   4.072   3.855   5.354 -1.1464 -0.6159  0.8226
12351TIP3    H258545   4.093   3.791   5.218 -0.8840  0.0293  0.5541
12352TIP3   OH258546   5.840   0.405   4.664 -0.4298 -0.1938 -0.3465
12352TIP3    H158547   5.841   0.389   4.759  0.9945 -0.5200 -0.4007
12352TIP3    H258548   5.830   0.499   4.656 -0.4589 -0.1525  0.1447
12353TIP3   OH258549   4.070   4.658   4.250  0.4125  0.3713  0.3324
12353TIP3    H158550   3.997   4.698   4.203  2.3470  2.1789 -1.2309
12353TIP3    H258551   4.110   4.600   4.186 -0.2862 -1.4572  1.5288
12354TIP3   OH258552   5.109   6.113  13.897  0.2117  0.0345 -0.4370
12354TIP3    H158553   5.184   6.064  13.932 -0.9719 -3.9895 -3.0889
12354TIP3    H258554   5.140   6.147  13.813 -0.2917  0.1540 -0.5746
12355TIP3   OH258555   0.378   1.663  15.526 -0.7977 -0.0949 -0.2687
12355TIP3    H158556   0.446   1.721  15.491  0.3306 -0.4432  1.3113
12355TIP3    H258557   0.380   1.586  15.469  0.3807 -0.2577 -0.0172
12356TIP3   OH258558   2.084   4.022  11.518 -0.3150  0.3339  0.2957
12356TIP3    H158559   2.081   3.991  11.609 -1.0647 -0.5910 -0.0338
12356TIP3    H258560   2.057   4.114  11.523 -1.1173  0.0707  0.9120
12357TIP3   OH258561   5.170   5.467  17.200  0.3857 -0.2693 -0.3957
12357TIP3    H158562   5.121   5.393  17.237  0.5505 -0.1142  0.1440
12357TIP3    H258563   5.155   5.538  17.262  0.8815 -0.0758 -0.4974
12358TIP3   OH258564   6.419   6.820   4.184 -0.0509  0.0302  0.5578
12358TIP3    H158565   6.479   6.755   4.221  1.2783  1.6550  1.3151
12358TIP3    H258566   6.391   6.782   4.101  1.1939 -1.2394  0.6987
12359TIP3   OH258567   4.743   0.968  14.839  0.2972 -0.8350 -0.2371
12359TIP3    H158568   4.802   1.005  14.774  0.3742 -1.9117 -0.8039
12359TIP3    H258569   4.736   1.035  14.907  1.8051 -0.5172 -0.3790
12360TIP3   OH258570   6.086   2.204   4.900  0.3125 -0.2902 -0.3388
12360TIP3    H158571   6.033   2.280   4.878 -0.7506 -1.1920 -0.9330
12360TIP3    H258572   6.141   2.189   4.823  0.4404 -0.1897 -0.2668
12361TIP3   OH258573   0.920   6.256  16.483  0.3162 -0.2632 -0.0907
12361TIP3    H158574   0.908   6.299  16.568  2.0917  0.6121 -0.2706
12361TIP3    H258575   1.004   6.287  16.452 -0.4417 -0.3834 -2.3235
12362TIP3   OH258576   4.576   1.208   5.224  0.3052  0.2510  0.3543
12362TIP3    H158577   4.626   1.282   5.189  0.6769  0.3115  1.0098
12362TIP3    H258578   4.638   1.162   5.282  0.1327 -0.6689 -0.1674
12363TIP3   OH258579   0.048   1.474  11.683  0.0451 -0.1322  0.0992
12363TIP3    H158580   0.113   1.535  11.649 -0.6820  1.6436  1.7829
12363TIP3    H258581  -0.020   1.530  11.721 -0.3759 -1.9974  2.1868
12364TIP3   OH258582   3.874   3.651  16.448 -0.0391 -0.0990 -0.7691
12364TIP3    H158583   3.957   3.612  16.477 -0.4593 -0.7484 -0.4284
12364TIP3    H258584   3.898   3.738  16.418  1.1222 -1.0514 -2.7373
12365TIP3   OH258585   5.731   3.878  13.464  0.3221  0.3816 -0.1470
12365TIP3    H158586   5.677   3.802  13.486  0.9622 -0.1401 -0.3462
12365TIP3    H258587   5.700   3.905  13.378 -0.8465  1.2083  0.5257
12366TIP3   OH258588   5.773   0.755  16.676 -0.4878 -0.5859  0.4710
12366TIP3    H158589   5.726   0.788  16.753 -0.2813  1.4550 -0.2633
12366TIP3    H258590   5.706   0.746  16.609 -0.1185  0.7560 -0.0846
12367TIP3   OH258591   0.611   2.043  13.093  0.3670  0.6495  0.3686
12367TIP3    H158592   0.583   2.062  13.004 -0.5606 -1.1568  0.2484
12367TIP3    H258593   0.654   1.958  13.087 -0.6927 -0.0184  1.8186
12368TIP3   OH258594   4.804   3.296   4.208  0.0420  0.3733  0.5825
12368TIP3    H158595   4.748   3.374   4.209 -1.1515 -0.3991 -1.6985
12368TIP3    H258596   4.790   3.254   4.293 -1.8782  0.8725  0.5265
12369TIP3   OH258597   1.152   6.366  15.474  0.4482  0.0437  0.6980
12369TIP3    H158598   1.171   6.412  15.556 -1.0246 -0.4475  1.3372
12369TIP3    H258599   1.165   6.273  15.495  0.0644 -0.0828  0.3864
12370TIP3   OH258600   0.493   3.205   1.702 -0.2646 -0.0516  0.0677
12370TIP3    H158601   0.450   3.156   1.633 -0.6623 -0.5486  0.6623
12370TIP3    H258602   0.422   3.249   1.748 -0.2285 -1.4583  1.5122
12371TIP3   OH258603   5.107   5.363   4.525 -0.0035  0.4617 -0.6850
12371TIP3    H158604   5.065   5.449   4.532 -1.3079 -0.1191 -1.1123
12371TIP3    H258605   5.125   5.337   4.615 -2.0026  0.0484 -0.3850
12372TIP3   OH258606   1.356   0.732   1.841  0.2309 -0.3041 -0.4027
12372TIP3    H158607   1.452   0.730   1.840  0.2565 -1.3268  2.1925
12372TIP3    H258608   1.331   0.655   1.891 -1.9487  0.4585 -0.2888
12373TIP3   OH258609   5.345   3.066  14.922 -1.0838 -0.3795 -0.0252
12373TIP3    H158610   5.301   3.096  15.002 -0.1312  1.7727 -0.2901
12373TIP3    H258611   5.275   3.029  14.869 -2.4196  2.0505  0.0074
12374TIP3   OH258612   1.753   3.553   2.422 -0.0969  0.6894 -0.0424
12374TIP3    H158613   1.700   3.518   2.350 -1.0261  0.0096  0.9687
12374TIP3    H258614   1.695   3.550   2.498  1.6060 -0.7090  1.2341
12375TIP3   OH258615   2.476   4.196   6.301 -0.6409 -0.4542  0.8173
12375TIP3    H158616   2.474   4.259   6.230 -0.1784 -1.7926 -0.4048
12375TIP3    H258617   2.565   4.161   6.300 -0.8833 -1.1147  1.5062
12376TIP3   OH258618   6.642   0.188   0.337  0.0726 -0.1480  0.0889
12376TIP3    H158619   6.644   0.231   0.251 -1.0467 -1.0348 -0.3994
12376TIP3    H258620   6.673   0.100   0.320  1.1808  0.0910  0.8582
12377TIP3   OH258621   5.683   6.104  10.591  0.7593  0.0518  0.1141
12377TIP3    H158622   5.614   6.156  10.549  1.0625 -1.8046 -2.8298
12377TIP3    H258623   5.765   6.137  10.553  1.0409 -1.6534 -0.8140
12378TIP3   OH258624   5.536   5.582  10.998  0.0225 -0.5098 -0.1307
12378TIP3    H158625   5.563   5.665  10.959 -0.1320 -0.6239 -0.4729
12378TIP3    H258626   5.586   5.515  10.950  1.2874 -0.5106  1.1343
12379TIP3   OH258627   4.076   1.454   6.014 -0.2831  0.2784  0.4187
12379TIP3    H158628   4.112   1.432   6.100  0.1149  1.5940  0.5941
12379TIP3    H258629   3.981   1.439   6.024 -0.0988 -0.7343  0.7099
12380TIP3   OH258630   5.133   0.681  11.542 -0.7081  0.3660 -0.0878
12380TIP3    H158631   5.054   0.714  11.499 -0.9256 -1.3575 -1.0727
12380TIP3    H258632   5.171   0.758  11.583 -2.2588  1.4580 -0.6114
12381TIP3   OH258633   5.391   5.313   1.537 -1.1729  0.3093  0.2885
12381TIP3    H158634   5.364   5.401   1.512  0.4202  0.8985  0.5554
12381TIP3    H258635   5.341   5.294   1.617  0.0504  1.8457  1.4521
12382TIP3   OH258636   2.447   1.733  15.748  0.2925  0.6745  0.1715
12382TIP3    H158637   2.418   1.645  15.726 -2.2776  1.3963  0.5247
12382TIP3    H258638   2.487   1.767  15.668  1.8800 -1.0024  0.2240
12383TIP3   OH258639   5.527   1.558  13.875 -0.2803 -0.6512  0.0627
12383TIP3    H158640   5.510   1.490  13.809  0.0681 -0.5865 -0.0964
12383TIP3    H258641   5.582   1.622  13.829 -1.2596  0.1374 -0.0293
12384TIP3   OH258642   4.016   3.708   3.075  0.1006 -0.1704 -0.3434
12384TIP3    H158643   4.104   3.745   3.062 -0.5556  1.1072 -1.3511
12384TIP3    H258644   3.993   3.672   2.989 -1.3370  1.7193 -0.7821
12385TIP3   OH258645   3.290   1.015   1.222 -0.0157 -0.2971 -0.1670
12385TIP3    H158646   3.216   1.029   1.163  0.1915  0.3086 -0.2874
12385TIP3    H258647   3.269   1.070   1.298  0.1441 -0.3951 -0.0532
12386TIP3   OH258648   2.337   4.371   6.138  0.4329  0.1504  0.0655
12386TIP3    H158649   2.246   4.378   6.169  0.4320  0.6999 -0.0588
12386TIP3    H258650   2.379   4.450   6.170  1.0287 -0.3938  0.6340
12387TIP3   OH258651   1.481   2.823   6.158 -0.0591 -0.2873  0.9207
12387TIP3    H158652   1.547   2.789   6.219  0.8663  0.4494  0.3442
12387TIP3    H258653   1.402   2.830   6.211  0.6699  0.1136  1.9786
12388TIP3   OH258654   2.504   5.133   0.605  0.1387 -0.3124 -0.2856
12388TIP3    H158655   2.473   5.049   0.637  0.7963  0.2008  1.7581
12388TIP3    H258656   2.431   5.193   0.618  0.5866  0.0146  0.8091
12389TIP3   OH258657   1.975   2.817   3.425 -0.6442  0.5918 -0.3147
12389TIP3    H158658   2.016   2.885   3.479  0.1537 -0.4292  0.3849
12389TIP3    H258659   2.017   2.825   3.340 -1.0092  1.3849 -0.4265
12390TIP3   OH258660   0.510   0.417   0.155 -0.1790  0.0471  0.1829
12390TIP3    H158661   0.498   0.356   0.083  0.8117 -0.3965  0.3794
12390TIP3    H258662   0.437   0.398   0.214  0.9762 -2.0872  1.0189
12391TIP3   OH258663   2.018   3.622  16.603  0.2465  0.2589  0.2495
12391TIP3    H158664   2.032   3.623  16.508  0.9501 -0.2296  0.3541
12391TIP3    H258665   1.925   3.646  16.613  0.0516 -0.1326 -0.5780
12392TIP3   OH258666   2.785   0.087   3.768  0.0748 -0.2995  0.1572
12392TIP3    H158667   2.745   0.067   3.683 -0.0117 -0.9879  0.3508
12392TIP3    H258668   2.793   0.001   3.810 -0.2988  0.0836  1.0201
12393TIP3   OH258669   3.654   1.481  11.633 -0.3785  0.2100  0.8200
12393TIP3    H158670   3.629   1.460  11.543  1.8919 -0.2897  0.2735
12393TIP3    H258671   3.668   1.575  11.632 -0.9748  0.2992  0.8054
12394TIP3   OH258672   0.517   3.596   0.919  0.1382 -0.2811 -0.1854
12394TIP3    H158673   0.611   3.615   0.921  0.1535 -0.4384  0.4447
12394TIP3    H258674   0.494   3.577   1.009 -0.4324 -0.5901 -0.3957
12395TIP3   OH258675   5.985   6.089  11.348 -0.3163  0.3411  0.1291
12395TIP3    H158676   6.027   6.169  11.317  3.1265 -1.2764  0.3133
12395TIP3    H258677   5.898   6.090  11.308 -0.1816  3.8841 -0.2525
12396TIP3   OH258678   6.062   0.231  12.434  0.0685 -0.4792 -0.0196
12396TIP3    H158679   6.001   0.197  12.499 -0.1258 -0.7312 -0.3301
12396TIP3    H258680   6.041   0.183  12.354  2.8815 -2.9939  0.6646
12397TIP3   OH258681   1.523   2.467  15.881 -0.2570  0.5769  0.0967
12397TIP3    H158682   1.485   2.379  15.877 -0.0222  0.5243 -1.7098
12397TIP3    H258683   1.612   2.455  15.847 -0.2829  1.5427 -0.3173
12398TIP3   OH258684   6.415   0.036   6.488  0.5794  0.3377  0.1297
12398TIP3    H158685   6.395  -0.055   6.467  0.4085  0.2490  0.6562
12398TIP3    H258686   6.482   0.061   6.425 -1.7640  0.9072 -2.2137
12399TIP3   OH258687   5.416   4.432  15.713  0.1496  0.0005  0.0977
12399TIP3    H158688   5.392   4.401  15.626 -0.7956 -0.4802  0.5255
12399TIP3    H258689   5.495   4.383  15.735  3.4041  3.7485 -2.5504
12400TIP3   OH258690   6.239   6.432   2.836  0.0118  0.3177  0.7182
12400TIP3    H158691   6.308   6.467   2.892  0.6319  0.6073 -0.2021
12400TIP3    H258692   6.258   6.468   2.749 -1.1264  0.1600  0.3915
12401TIP3   OH258693   5.905   0.861  11.373 -0.0859 -0.0597  0.0749
12401TIP3    H158694   5.876   0.770  11.366 -1.1972  0.2566  0.4900
12401TIP3    H258695   5.901   0.894  11.283  0.8084 -0.5648 -0.1535
12402TIP3   OH258696   4.545   4.850   5.596  0.1920  0.2410 -0.2745
12402TIP3    H158697   4.631   4.831   5.633 -0.1699 -0.0790  0.4384
12402TIP3    H258698   4.562   4.891   5.512  1.0372 -0.1845 -0.3127
12403TIP3   OH258699   1.997   2.396  16.437 -0.4608 -0.4319  0.1321
12403TIP3    H158700   1.919   2.375  16.488 -0.8344  0.2764 -0.1425
12403TIP3    H258701   2.005   2.324  16.375 -0.3510 -0.9918  0.7846
12404TIP3   OH258702   0.938   5.582   2.932 -0.2407 -0.3122  0.0257
12404TIP3    H158703   0.992   5.638   2.988 -1.6250  2.4158 -1.2481
12404TIP3    H258704   0.890   5.526   2.993 -0.5785  1.5323  1.4894
12405TIP3   OH258705   1.465   1.700  14.492 -0.2101 -0.0001 -0.7799
12405TIP3    H158706   1.546   1.737  14.529  0.8179 -2.6979 -0.2364
12405TIP3    H258707   1.495   1.649  14.416 -1.7468  1.3103 -2.2899
12406TIP3   OH258708   6.278   2.651  16.107 -0.0151 -0.4886  0.2133
12406TIP3    H158709   6.258   2.564  16.073 -0.3536 -1.3547  2.5014
12406TIP3    H258710   6.198   2.677  16.154  0.3858  0.6822  0.2612
12407TIP3   OH258711   3.025   0.532  12.588 -0.1036 -0.3506  0.3705
12407TIP3    H158712   3.101   0.496  12.634  0.6321  0.4031 -0.2279
12407TIP3    H258713   3.063   0.582  12.516 -1.2447 -1.5473 -1.0801
12408TIP3   OH258714   6.695   6.118   1.933 -0.1174 -0.1721  0.0263
12408TIP3    H158715   6.781   6.095   1.896 -0.7896 -1.0211 -1.0298
12408TIP3    H258716   6.634   6.105   1.861 -1.0071  1.5076  0.4506
12409TIP3   OH258717   5.865   2.674  15.176 -0.0565 -0.1613  0.0706
12409TIP3    H158718   5.775   2.676  15.209  0.1025 -0.3363  0.5338
12409TIP3    H258719   5.872   2.589  15.131  0.1904 -0.6329  0.9761
12410TIP3   OH258720   6.074   0.449  11.165  0.1398  0.3868  0.2080
12410TIP3    H158721   6.103   0.402  11.087  0.8401  0.3728  0.4780
12410TIP3    H258722   6.091   0.388  11.237 -0.2977  0.4858  0.4003
12411TIP3   OH258723   4.447   2.979  10.935 -0.0366  0.1424 -0.2820
12411TIP3    H158724   4.394   2.954  10.860  0.2715  1.7598 -1.0416
12411TIP3    H258725   4.527   3.016  10.897  0.9596 -0.7700  0.8455
12412TIP3   OH258726   4.766   0.331   0.489 -0.5272  0.4211  0.1371
12412TIP3    H158727   4.739   0.249   0.529  0.6674  0.6647  1.5068
12412TIP3    H258728   4.862   0.328   0.492 -0.4819  2.4937  1.5376
12413TIP3   OH258729   3.269   6.407  16.305  0.1564  0.3584 -0.1591
12413TIP3    H158730   3.282   6.382  16.214  0.5321  0.6572 -0.1868
12413TIP3    H258731   3.311   6.492  16.313  1.6259 -0.4376  0.7176
12414TIP3   OH258732   3.791   0.516   0.232 -0.5955 -0.6007  0.5161
12414TIP3    H158733   3.863   0.478   0.282  0.2781 -1.3013 -1.2199
12414TIP3    H258734   3.832   0.548   0.151 -1.6304  2.3377  1.0985
12415TIP3   OH258735   1.608   0.550   3.989 -0.6588 -0.4040 -0.2530
12415TIP3    H158736   1.613   0.462   4.027 -1.6136 -0.6243 -0.6168
12415TIP3    H258737   1.614   0.536   3.894  2.1302  0.1772 -0.1850
12416TIP3   OH258738   4.725   3.027  15.287 -0.0494 -0.0754  0.2666
12416TIP3    H158739   4.638   2.995  15.263  0.6926 -1.9353  0.0436
12416TIP3    H258740   4.753   3.079  15.212  0.3991 -2.1923 -1.0617
12417TIP3   OH258741   0.271   3.365   1.751 -0.3726 -0.5153 -0.0152
12417TIP3    H158742   0.251   3.342   1.842  0.6694 -0.3913  0.2513
12417TIP3    H258743   0.254   3.459   1.746  1.4361 -0.1428  0.5771
12418TIP3   OH258744   2.810   2.423  13.200 -0.4950  0.0273 -0.6102
12418TIP3    H158745   2.858   2.448  13.280 -0.8759  2.5156 -1.1227
12418TIP3    H258746   2.854   2.343  13.170 -0.9784 -1.5739  2.6264
12419TIP3   OH258747   0.639   4.310  11.965  0.3617 -0.1641  0.4757
12419TIP3    H158748   0.718   4.361  11.984  0.4810 -1.0606  2.6129
12419TIP3    H258749   0.592   4.306  12.049 -1.6537 -0.1740 -0.6129
12420TIP3   OH258750   4.076   2.672   3.195  0.2973  0.2785  0.2663
12420TIP3    H158751   4.060   2.733   3.267  0.0420  0.9930 -0.3779
12420TIP3    H258752   4.146   2.712   3.144 -1.2858  1.1178 -1.3383
12421TIP3   OH258753   5.340   3.779   5.930  0.0724 -0.3469 -0.4004
12421TIP3    H158754   5.349   3.833   5.851 -0.4882 -1.2674 -1.1027
12421TIP3    H258755   5.430   3.752   5.951  0.3158  0.5922 -0.2329
12422TIP3   OH258756   5.908   6.331  17.082  1.1476  0.0339  0.0069
12422TIP3    H158757   5.999   6.339  17.114  1.4555 -0.4342 -0.7518
12422TIP3    H258758   5.913   6.357  16.990  0.4108  0.5378  0.1091
12423TIP3   OH258759   2.958   3.288   2.203 -0.4647  0.4319 -0.5684
12423TIP3    H158760   2.864   3.296   2.217 -0.3846  1.7061 -0.7606
12423TIP3    H258761   2.998   3.349   2.265  0.2474 -0.1670 -0.4221
12424TIP3   OH258762   6.644   0.796  13.572  0.0808 -0.1961 -0.6303
12424TIP3    H158763   6.619   0.707  13.546  1.0069 -1.1183  1.5001
12424TIP3    H258764   6.738   0.799  13.556  0.2244  0.0506  0.2424
12425TIP3   OH258765   4.580   4.027   2.600 -0.1860  0.3776 -0.1484
12425TIP3    H158766   4.538   3.945   2.574  1.2206 -0.3672 -0.1304
12425TIP3    H258767   4.521   4.096   2.569 -1.4909 -0.6397  0.0337
12426TIP3   OH258768   5.147   6.611  11.256 -0.4854  0.2264  0.3738
12426TIP3    H158769   5.131   6.541  11.318 -1.6260 -0.5853 -0.8104
12426TIP3    H258770   5.184   6.567  11.179  0.5125  1.1553  0.3143
12427TIP3   OH258771   0.479   0.809   5.098  0.3547 -0.8446  0.7483
12427TIP3    H158772   0.517   0.828   5.183 -3.9213  1.5579  2.3056
12427TIP3    H258773   0.433   0.726   5.109 -1.1120  0.0016  1.1692
12428TIP3   OH258774   0.739   4.070  10.747 -0.7391  0.3686 -0.3643
12428TIP3    H158775   0.720   4.163  10.761  0.7620  0.7099 -0.4876
12428TIP3    H258776   0.809   4.050  10.810 -0.7751 -0.5776 -0.6145
12429TIP3   OH258777   6.464   5.605  17.079 -0.5810 -0.1324 -0.4969
12429TIP3    H158778   6.433   5.527  17.033 -0.4116 -0.4220 -0.1120
12429TIP3    H258779   6.557   5.589  17.093 -0.8216 -0.4399  0.7615
12430TIP3   OH258780   6.029   1.551   2.401 -0.1450  0.5391  0.3133
12430TIP3    H158781   6.006   1.641   2.425  0.3645  1.2152 -1.6469
12430TIP3    H258782   5.945   1.506   2.395 -0.4703  1.1441  0.2839
12431TIP3   OH258783   1.922   1.600   1.289  0.4172  0.0923  0.0406
12431TIP3    H158784   1.936   1.619   1.381  0.0746  0.1922  0.0705
12431TIP3    H258785   1.961   1.513   1.276 -1.5218 -0.9252  0.7789
12432TIP3   OH258786   2.600   3.740   3.098  0.1150  0.1797 -0.4315
12432TIP3    H158787   2.658   3.671   3.132 -0.4203 -1.1312 -2.0772
12432TIP3    H258788   2.512   3.708   3.115 -0.1552  1.8067  1.3481
12433TIP3   OH258789   0.018   4.582   0.905 -1.1685 -0.0976  0.0292
12433TIP3    H158790   0.028   4.614   0.816 -0.2297 -1.3916 -0.3467
12433TIP3    H258791  -0.071   4.607   0.930 -2.2563 -1.7157 -2.0836
12434TIP3   OH258792   2.774   3.931   5.278  0.6706  0.2994  0.0531
12434TIP3    H158793   2.863   3.931   5.313  0.1719 -0.9336  1.3575
12434TIP3    H258794   2.722   3.885   5.344 -0.8731  0.7148 -0.8531
12435TIP3   OH258795   2.310   4.486   5.140 -0.5354 -0.5784 -0.0048
12435TIP3    H158796   2.246   4.416   5.149  0.6489 -1.6068  0.5129
12435TIP3    H258797   2.383   4.446   5.093  0.1971  0.2737  0.3929
12436TIP3   OH258798   6.327   4.754  12.066  0.0576 -0.3063 -0.2632
12436TIP3    H158799   6.395   4.821  12.080 -1.5687  1.8057 -2.0286
12436TIP3    H258800   6.370   4.672  12.089  2.9317  1.0571 -0.4139
12437TIP3   OH258801   4.417   5.614   0.379 -0.5744  0.2407  0.7341
12437TIP3    H158802   4.502   5.639   0.414 -0.8394  1.0996  0.7704
12437TIP3    H258803   4.418   5.643   0.288 -0.8845  0.3827  0.7746
12438TIP3   OH258804   1.210   1.111   2.276  0.2720 -0.0925 -0.1409
12438TIP3    H158805   1.304   1.120   2.258  0.1877 -0.4985 -0.8306
12438TIP3    H258806   1.169   1.117   2.189 -0.3752  0.5158  0.2022
12439TIP3   OH258807   0.047   1.036  10.848  0.4511 -0.3339 -0.2517
12439TIP3    H158808   0.075   0.976  10.917 -0.3960 -0.0416  0.3564
12439TIP3    H258809   0.128   1.059  10.802  1.0041 -0.6718  0.5372
12440TIP3   OH258810   1.479   0.992  15.818 -0.4382  0.2081 -0.1236
12440TIP3    H158811   1.548   1.058  15.805 -1.3232  1.3050  0.6554
12440TIP3    H258812   1.398   1.043  15.821 -1.2749 -1.0799 -1.0061
12441TIP3   OH258813   1.797   2.031  11.395  0.3309 -0.0469  0.1831
12441TIP3    H158814   1.708   2.002  11.375 -0.2726  1.2913  0.8690
12441TIP3    H258815   1.791   2.069  11.483  1.2669  1.3561 -0.3453
12442TIP3   OH258816   0.629   4.710   1.423 -0.0902 -0.2149  0.5464
12442TIP3    H158817   0.534   4.714   1.423 -0.0743  0.1964  0.7441
12442TIP3    H258818   0.652   4.671   1.338 -0.3800  0.9394 -0.0703
12443TIP3   OH258819   2.641   1.335  14.937 -0.2556 -0.1638 -0.1980
12443TIP3    H158820   2.574   1.278  14.897  0.9482 -0.5016 -1.7694
12443TIP3    H258821   2.713   1.276  14.957 -0.5794  0.1273  1.8992
12444TIP3   OH258822   4.299   0.637   1.187  0.0234 -0.3749  0.1940
12444TIP3    H158823   4.325   0.703   1.123 -1.7033  1.9662  1.7843
12444TIP3    H258824   4.212   0.608   1.158 -0.1064 -0.4159  0.6109
12445TIP3   OH258825   3.147   0.672  12.377 -0.2765  0.0547 -0.8575
12445TIP3    H158826   3.127   0.635  12.291 -0.0484  1.9453 -1.7476
12445TIP3    H258827   3.173   0.762  12.359  2.4089 -0.2939  0.9418
12446TIP3   OH258828   1.380   0.617   2.645 -0.2233  0.0514  0.5333
12446TIP3    H158829   1.420   0.547   2.594 -0.9754 -0.5446  0.7537
12446TIP3    H258830   1.369   0.579   2.732 -0.5926  0.4602  0.6644
12447TIP3   OH258831   1.729   2.738   6.360  0.2626  0.5351  0.1642
12447TIP3    H158832   1.785   2.806   6.398  0.0656  1.3514 -0.9843
12447TIP3    H258833   1.790   2.668   6.336  0.9059  1.6483 -1.6065
12448TIP3   OH258834   6.285   5.746  12.894  0.3217  0.1590 -0.2006
12448TIP3    H158835   6.310   5.655  12.911  0.3581 -0.1991 -2.0773
12448TIP3    H258836   6.200   5.755  12.935 -0.7817 -1.4580 -2.0348
12449TIP3   OH258837   3.030   1.601   0.881  0.1053 -0.0869  0.0078
12449TIP3    H158838   2.996   1.518   0.848  0.5018  0.4839 -1.9050
12449TIP3    H258839   3.097   1.626   0.818 -0.4522  1.9876  0.2024
12450TIP3   OH258840   2.169   2.952  12.179 -0.3572 -0.3127  0.1056
12450TIP3    H158841   2.075   2.947  12.196 -0.2136 -0.7644  0.8054
12450TIP3    H258842   2.178   3.020  12.113 -1.4313 -2.0846 -1.9182
12451TIP3   OH258843   4.923   3.015   0.377 -0.0411  0.0777  0.3119
12451TIP3    H158844   4.936   3.067   0.297 -0.4787  0.9149  0.7735
12451TIP3    H258845   4.831   3.030   0.400 -0.4031 -1.5779 -0.0009
12452TIP3   OH258846   4.486   5.330  15.214  0.0427 -0.3970 -0.1119
12452TIP3    H158847   4.468   5.291  15.128 -0.0659 -0.0896 -0.2286
12452TIP3    H258848   4.421   5.292  15.272 -1.5407  1.3513 -0.7105
12453TIP3   OH258849   0.825   4.132   4.445 -0.0686 -0.4074  0.8591
12453TIP3    H158850   0.796   4.073   4.375  1.6647  0.7304 -0.8830
12453TIP3    H258851   0.763   4.117   4.516 -2.1246 -1.3514 -1.0549
12454TIP3   OH258852   3.261   0.667  13.398 -0.7557 -0.6566 -0.6929
12454TIP3    H158853   3.272   0.579  13.434 -0.0437 -0.6267 -0.8331
12454TIP3    H258854   3.282   0.726  13.471 -0.0130 -0.5994 -0.9478
12455TIP3   OH258855   1.934   5.129   5.974  0.3675 -0.5489 -0.2137
12455TIP3    H158856   1.939   5.063   5.904  0.6290 -0.2032 -0.5237
12455TIP3    H258857   1.957   5.212   5.931  0.2227 -0.2827  0.2135
12456TIP3   OH258858   1.195   5.445  14.833  0.5268 -0.5439  0.1757
12456TIP3    H158859   1.106   5.442  14.868  0.3286  0.1331 -0.2499
12456TIP3    H258860   1.249   5.473  14.907 -0.0185  1.7717 -0.2610
12457TIP3   OH258861   3.171   2.328   2.872 -0.3201 -0.2348  0.1443
12457TIP3    H158862   3.173   2.254   2.811  1.3870 -0.9160  1.0073
12457TIP3    H258863   3.220   2.397   2.827 -1.0383  0.0478 -0.2210
12458TIP3   OH258864   0.341   6.387  11.435 -0.1346 -0.2141  0.0021
12458TIP3    H158865   0.404   6.415  11.369 -0.5201 -0.2724 -0.3984
12458TIP3    H258866   0.329   6.293  11.418 -0.1841 -0.2453  0.1990
12459TIP3   OH258867   5.377   0.089  14.549  0.7341  0.3409  0.2207
12459TIP3    H158868   5.312   0.104  14.619 -1.5303 -2.4905 -1.1719
12459TIP3    H258869   5.352   0.150  14.480 -0.4109 -0.6397 -0.2539
12460TIP3   OH258870   5.784   4.322  16.178  0.2323  0.6468 -0.1425
12460TIP3    H158871   5.771   4.229  16.161  2.4152  0.2393  0.2536
12460TIP3    H258872   5.741   4.338  16.262 -1.8794  0.4657 -1.1535
12461TIP3   OH258873   0.271   3.685   6.173 -0.4242 -0.1016 -0.2582
12461TIP3    H158874   0.297   3.593   6.165 -0.8927 -0.1511 -1.2096
12461TIP3    H258875   0.178   3.686   6.155 -0.2793  0.6653 -0.9892
12462TIP3   OH258876   5.140   5.155  13.530  0.2267 -0.4169  0.8087
12462TIP3    H158877   5.092   5.216  13.585  0.7450 -0.6545  1.5350
12462TIP3    H258878   5.228   5.151  13.570  0.1597 -1.7239  0.8464
12463TIP3   OH258879   2.039   4.485  11.650  0.2815 -0.3960  0.6150
12463TIP3    H158880   2.009   4.465  11.561 -0.1833 -2.1062  1.1317
12463TIP3    H258881   2.133   4.499  11.641  0.2764 -0.8108 -0.1130
12464TIP3   OH258882   6.496   5.632   3.814  0.1381 -0.8569 -0.0427
12464TIP3    H158883   6.586   5.604   3.833  1.0249  0.8096 -1.6332
12464TIP3    H258884   6.460   5.653   3.900  0.7329 -3.0203  0.7756
12465TIP3   OH258885   5.073   3.921  15.078  0.2087 -0.5254  0.3412
12465TIP3    H158886   5.161   3.953  15.098  0.6141 -1.9768  1.0001
12465TIP3    H258887   5.015   3.975  15.131  0.6664  0.7011 -0.3983
12466TIP3   OH258888   1.638   1.224  11.169 -0.0567 -0.3974 -0.5058
12466TIP3    H158889   1.661   1.218  11.076  0.7247 -1.5746 -0.2325
12466TIP3    H258890   1.696   1.163  11.213  0.9848  1.6669  1.0363
12467TIP3   OH258891   0.591   2.435  12.893  0.0829  0.0206  0.1170
12467TIP3    H158892   0.551   2.433  12.806  0.9248  1.2547 -0.3132
12467TIP3    H258893   0.663   2.373  12.888 -0.8488 -1.1043  0.4385
12468TIP3   OH258894   1.628   0.139  13.690  0.0067 -0.2146  0.0174
12468TIP3    H158895   1.612   0.108  13.601 -1.8771  1.2519 -0.1822
12468TIP3    H258896   1.719   0.114  13.709  0.2018 -1.1130 -2.0581
12469TIP3   OH258897   5.376   4.105   3.066 -0.4293  0.4850 -0.0264
12469TIP3    H158898   5.353   4.117   3.158 -0.0114  1.3985 -0.0329
12469TIP3    H258899   5.328   4.027   3.039  0.9153 -0.9411  1.4957
12470TIP3   OH258900   2.951   3.072   5.783 -0.7261 -0.0257  1.0381
12470TIP3    H158901   2.941   2.980   5.760 -1.1008  0.4441 -0.7577
12470TIP3    H258902   3.030   3.075   5.837 -0.7259 -1.3866  1.1241
12471TIP3   OH258903   1.091   4.780   4.866 -0.5312 -0.8864 -0.6173
12471TIP3    H158904   1.117   4.715   4.931 -0.0644 -0.9538 -0.8659
12471TIP3    H258905   1.080   4.730   4.785  3.1714 -0.1882 -1.6370
12472TIP3   OH258906   6.768   3.626  14.404 -0.3163 -0.0329 -0.3036
12472TIP3    H158907   6.735   3.587  14.323 -0.0390  0.8038 -0.8235
12472TIP3    H258908   6.709   3.699  14.421  0.4352  0.6147 -0.4762
12473TIP3   OH258909   3.415   5.213  15.374  0.4145 -0.0210  0.1482
12473TIP3    H158910   3.451   5.282  15.431  0.3277  0.0193  0.1541
12473TIP3    H258911   3.364   5.158  15.433 -2.3932  1.8750 -0.4136
12474TIP3   OH258912   4.454   4.452  10.607  0.1824 -0.7671  0.0703
12474TIP3    H158913   4.364   4.421  10.600  0.4305 -1.3278 -0.7505
12474TIP3    H258914   4.449   4.546  10.587 -0.3301 -0.6303  0.8357
12475TIP3   OH258915   3.658   1.581  13.101  0.4970  0.0009 -0.1116
12475TIP3    H158916   3.610   1.567  13.183 -0.4793 -0.7921 -0.8034
12475TIP3    H258917   3.747   1.551  13.119  0.7019  1.2505  1.1087
12476TIP3   OH258918   4.756   4.478  10.727 -0.0320 -0.4888  0.1270
12476TIP3    H158919   4.783   4.568  10.749 -1.8306  0.2706 -0.6410
12476TIP3    H258920   4.679   4.490  10.671  0.7418 -2.4925 -1.4168
12477TIP3   OH258921   1.194   4.415  11.373  0.2039 -0.5272  0.1153
12477TIP3    H158922   1.283   4.393  11.346  0.0669 -2.2482  1.0482
12477TIP3    H258923   1.196   4.510  11.386  2.7924 -0.9396  3.3612
12478TIP3   OH258924   6.254   0.730  16.692 -0.0230  0.1979 -0.6394
12478TIP3    H158925   6.329   0.786  16.679  1.0825 -0.7934  1.1716
12478TIP3    H258926   6.273   0.651  16.641  0.0277  0.0795 -0.4367
12479TIP3   OH258927   4.074   4.595  12.919  0.0417 -0.3494  0.2727
12479TIP3    H158928   4.006   4.559  12.863  0.8298 -1.1821 -0.1611
12479TIP3    H258929   4.154   4.587  12.868  0.7899 -1.2128  1.5323
12480TIP3   OH258930   4.287   0.974  13.881  0.1223  0.9116  0.3700
12480TIP3    H158931   4.341   0.952  13.804  0.9577 -0.6972  1.3781
12480TIP3    H258932   4.201   0.938  13.860 -0.2249  2.3044 -0.6779
12481TIP3   OH258933   5.275   5.825   5.255  0.0058 -0.7703 -0.7238
12481TIP3    H158934   5.180   5.816   5.264 -0.1961  0.0764 -1.9043
12481TIP3    H258935   5.287   5.870   5.171  1.4370 -0.6067 -0.4420
12482TIP3   OH258936   2.974   2.760  14.274 -0.0617  0.0993 -0.0393
12482TIP3    H158937   2.914   2.688  14.295  0.4887 -0.1056  0.8422
12482TIP3    H258938   3.045   2.718  14.225 -1.7060  0.6834 -3.1135
12483TIP3   OH258939   1.920   6.598   1.610 -0.2852  0.0423 -0.7307
12483TIP3    H158940   1.856   6.597   1.681  0.3171  1.1788 -0.1554
12483TIP3    H258941   1.984   6.532   1.634 -1.4774 -1.4585 -1.5571
12484TIP3   OH258942   4.908   5.604  14.294 -0.0719  0.6324 -0.5169
12484TIP3    H158943   4.925   5.590  14.387 -0.1291 -0.6434 -0.6890
12484TIP3    H258944   4.944   5.691  14.276  1.7454  0.0576  0.2494
12485TIP3   OH258945   5.149   6.711   3.456 -0.5512 -0.6467  0.7435
12485TIP3    H158946   5.126   6.755   3.537  0.5753 -1.4797  1.5492
12485TIP3    H258947   5.092   6.634   3.454  0.8623 -1.7584  1.8389
12486TIP3   OH258948   3.028   3.459   4.537  0.0946  0.2622  0.5727
12486TIP3    H158949   3.025   3.547   4.576 -0.6948  0.7278 -0.5358
12486TIP3    H258950   2.955   3.412   4.577  0.7002  0.0022  1.3954
12487TIP3   OH258951   2.467   0.881   6.349  0.2018 -0.3961  0.2372
12487TIP3    H158952   2.374   0.856   6.353  0.0637 -0.0228 -0.7344
12487TIP3    H258953   2.505   0.841   6.428 -1.2716  1.5100  1.9592
12488TIP3   OH258954   1.432   6.450   3.243  0.5394 -0.8101 -0.0715
12488TIP3    H158955   1.457   6.539   3.219  0.6005 -0.1748  2.2396
12488TIP3    H258956   1.481   6.394   3.183  2.4805  0.6238  0.1413
12489TIP3   OH258957   4.222   5.158  16.239  0.6266 -0.5517  0.3343
12489TIP3    H158958   4.133   5.174  16.268  0.1936  0.5872 -1.5535
12489TIP3    H258959   4.248   5.078  16.285 -1.6839 -1.4142  0.1948
12490TIP3   OH258960   2.962   4.388  11.671  0.1932 -0.6239  0.8334
12490TIP3    H158961   3.045   4.368  11.627 -0.2826 -1.0738  0.1278
12490TIP3    H258962   2.913   4.306  11.667 -0.1698 -0.4382  1.5092
12491TIP3   OH258963   5.596   3.837  16.435  0.9258  0.2163 -0.4296
12491TIP3    H158964   5.668   3.867  16.491  1.5766 -0.7198 -0.7437
12491TIP3    H258965   5.518   3.878  16.472  1.4601  0.2511  0.6770
12492TIP3   OH258966   4.134   6.441  12.679  0.7043  0.0983  0.1011
12492TIP3    H158967   4.079   6.447  12.602 -0.5617  1.2594  1.0670
12492TIP3    H258968   4.099   6.508  12.739  1.6212 -0.8085  1.6898
12493TIP3   OH258969   1.389   0.863   0.547  0.3881 -0.7285 -0.1064
12493TIP3    H158970   1.370   0.951   0.580 -3.2729 -0.6812 -2.0460
12493TIP3    H258971   1.439   0.821   0.617  0.9497  2.4232  1.4537
12494TIP3   OH258972   4.079   1.590  14.859  0.4123 -0.1800 -0.1490
12494TIP3    H158973   4.160   1.638  14.841  0.3247  0.0094 -0.0334
12494TIP3    H258974   4.088   1.560  14.949  0.5055 -0.4573 -0.2485
12495TIP3   OH258975   3.652   4.472   3.869 -0.1341 -0.2881  0.8406
12495TIP3    H158976   3.625   4.381   3.859 -0.1635 -0.2539  0.5928
12495TIP3    H258977   3.712   4.472   3.943  2.0953 -1.0036 -0.9002
12496TIP3   OH258978   5.365   1.465  13.219  0.5956  0.4477  0.4642
12496TIP3    H158979   5.300   1.431  13.281  0.4289 -1.1785 -0.5817
12496TIP3    H258980   5.399   1.387  13.175  3.6648  1.2111  1.3714
12497TIP3   OH258981   6.026   2.007  17.048 -0.0565 -0.2005 -0.9884
12497TIP3    H158982   5.963   1.942  17.018 -0.4949 -0.4961  0.5496
12497TIP3    H258983   6.112   1.968  17.030 -0.3085 -1.6119  0.7662
12498TIP3   OH258984   4.555   5.105  12.477  0.1532  0.1922  0.3453
12498TIP3    H158985   4.595   5.022  12.503 -1.0358 -0.7845 -0.8863
12498TIP3    H258986   4.508   5.134  12.556 -1.2893 -1.4519  0.1187
12499TIP3   OH258987   4.049   3.826  14.289 -0.1628 -0.4593 -0.6885
12499TIP3    H158988   4.080   3.894  14.229  1.2745 -1.4226 -1.0936
12499TIP3    H258989   4.130   3.784  14.321 -0.9983 -1.6980 -0.1503
12500TIP3   OH258990   5.656   4.533   3.442  0.3977 -0.2200  0.2174
12500TIP3    H158991   5.670   4.444   3.475  2.8755  0.3499  0.8342
12500TIP3    H258992   5.638   4.522   3.349 -0.8437 -1.4677  0.5964
12501TIP3   OH258993   6.440   2.929   4.735 -0.1285  0.1922  0.2185
12501TIP3    H158994   6.405   3.016   4.717 -0.2849  0.0323 -0.2582
12501TIP3    H258995   6.517   2.945   4.789  0.1834  0.6670 -0.3572
12502TIP3   OH258996   4.839   4.773  11.836 -0.0181  0.1331 -0.1313
12502TIP3    H158997   4.890   4.818  11.768 -0.3639  0.9215  0.1272
12502TIP3    H258998   4.882   4.798  11.918  1.2844 -1.9677 -0.1330
12503TIP3   OH258999   0.407   2.496   4.599  0.3573  0.6706  0.5595
12503TIP3    H159000   0.445   2.572   4.555  0.7258  0.1189 -0.0944
12503TIP3    H259001   0.483   2.439   4.616 -0.1723 -0.5037 -0.8756
12504TIP3   OH259002   4.248   0.366  13.516  0.0894 -0.1220 -0.4083
12504TIP3    H159003   4.212   0.344  13.430 -1.2908 -0.8589  0.3268
12504TIP3    H259004   4.195   0.440  13.546  1.3513  0.9036 -0.6920
12505TIP3   OH259005   6.019   3.181  13.890 -0.1164  1.0026 -0.1043
12505TIP3    H159006   6.057   3.171  13.977  0.0763  1.7307 -0.1032
12505TIP3    H259007   5.978   3.096  13.872  1.4916  0.1935 -0.1017
12506TIP3   OH259008   4.081   5.353  15.910 -0.1784  0.3153  0.0047
12506TIP3    H159009   4.102   5.423  15.848  1.9663  1.0156  1.4508
12506TIP3    H259010   4.085   5.273  15.858  0.5445  0.9885 -1.0000
12507TIP3   OH259011   6.457   6.650  16.047  0.3847 -0.4382  0.4310
12507TIP3    H159012   6.500   6.602  15.976 -0.6815 -1.0878  0.2162
12507TIP3    H259013   6.451   6.740  16.015  0.0342 -0.7026 -0.2586
12508TIP3   OH259014   3.049   5.975   6.431 -0.8919  0.2579  0.2581
12508TIP3    H159015   3.126   5.919   6.423 -0.3937  0.9006  0.5697
12508TIP3    H259016   3.061   6.043   6.365 -1.5100 -0.0051 -0.1328
12509TIP3   OH259017   3.342   5.179   0.544 -0.5731  0.2699  0.3357
12509TIP3    H159018   3.364   5.159   0.453 -1.2088  0.0323  0.2321
12509TIP3    H259019   3.296   5.263   0.540 -0.1022  0.5344  0.4984
12510TIP3   OH259020   5.491   6.406   5.011  0.0927  0.0503 -0.1966
12510TIP3    H159021   5.442   6.325   5.021  0.6291 -0.1925  0.5136
12510TIP3    H259022   5.583   6.379   5.006  0.3425  0.6783  0.9053
12511TIP3   OH259023   5.403   5.212  13.657 -0.6039  0.1479  0.5581
12511TIP3    H159024   5.440   5.297  13.633 -0.3219  0.2162  1.2211
12511TIP3    H259025   5.432   5.153  13.588 -1.1564  0.6787 -0.1339
12512TIP3   OH259026   6.471   4.670  11.009  0.0900 -0.4959  0.5815
12512TIP3    H159027   6.376   4.666  11.008  0.0506  0.1335 -1.4215
12512TIP3    H259028   6.496   4.664  10.917  1.9216  0.5884  0.9817
12513TIP3   OH259029   2.173   1.245  13.413  0.5561 -0.2292 -0.0860
12513TIP3    H159030   2.265   1.256  13.388  0.5138 -0.7576 -0.4901
12513TIP3    H259031   2.124   1.271  13.334  0.3913 -0.9432 -0.2224
12514TIP3   OH259032   2.574   3.513  17.158  0.2175 -0.0229  0.2007
12514TIP3    H159033   2.591   3.503  17.064 -1.6466 -1.4611 -0.0194
12514TIP3    H259034   2.508   3.582  17.163  0.0699 -0.1801  0.4290
12515TIP3   OH259035   5.948   0.365  15.385 -0.4733 -0.2763  0.3321
12515TIP3    H159036   5.914   0.279  15.361 -3.2528  0.4295  1.5297
12515TIP3    H259037   5.871   0.423  15.381  0.9083  1.7126  1.6623
12516TIP3   OH259038   2.189   1.431   5.558 -0.6276 -0.3683  0.0172
12516TIP3    H159039   2.244   1.424   5.636 -0.6983 -1.7446 -0.0490
12516TIP3    H259040   2.250   1.424   5.485 -0.7001 -0.2266 -0.0573
12517TIP3   OH259041   1.430   0.336   5.818  0.1024 -0.6584  0.3524
12517TIP3    H159042   1.405   0.266   5.878  1.9884 -0.6417  1.2070
12517TIP3    H259043   1.526   0.337   5.821  0.1232  1.6761  0.0416
12518TIP3   OH259044   6.149   1.673  16.180  0.2157  0.1400 -0.4447
12518TIP3    H159045   6.162   1.619  16.257  0.7174 -0.0404 -0.6565
12518TIP3    H259046   6.237   1.694  16.149  0.0423  1.4213 -0.1310
12519TIP3   OH259047   2.024   1.935  12.128 -0.5014  1.0138 -0.4038
12519TIP3    H159048   2.028   1.892  12.214 -1.1059 -0.6423 -1.1781
12519TIP3    H259049   2.048   1.866  12.066  0.2906  2.2954 -1.5532
12520TIP3   OH259050   4.200   6.272  15.922 -0.0375  0.6228 -0.5030
12520TIP3    H159051   4.136   6.205  15.941  0.4088  0.2423 -0.3346
12520TIP3    H259052   4.278   6.247  15.972 -0.1915  1.7986  0.3668
12521TIP3   OH259053   2.565   3.664  14.015 -0.4736  0.1948 -0.1469
12521TIP3    H159054   2.539   3.573  14.010  0.2351 -0.0520  0.4993
12521TIP3    H259055   2.563   3.685  14.108 -1.5555  1.1169 -0.3654
12522TIP3   OH259056   1.382   3.754  14.906 -0.0740 -0.3510  0.1285
12522TIP3    H159057   1.345   3.804  14.979 -0.9138 -1.3560  0.4011
12522TIP3    H259058   1.319   3.763  14.835 -0.7480 -1.8571  0.5116
12523TIP3   OH259059   5.218   1.237   1.603 -0.0211  0.1417  0.1746
12523TIP3    H159060   5.265   1.196   1.530  1.5102  0.4536  0.9811
12523TIP3    H259061   5.173   1.165   1.646  0.2111 -0.2500 -0.2392
12524TIP3   OH259062   2.052   5.114   3.369 -0.0899 -0.1215  0.0928
12524TIP3    H159063   2.050   5.191   3.426 -1.7399 -0.4194  0.4735
12524TIP3    H259064   1.959   5.094   3.353  0.3183 -1.8134 -0.2740
12525TIP3   OH259065   2.025   5.187  14.076  0.2880  0.3286  0.1960
12525TIP3    H159066   2.005   5.256  14.138 -0.8334  0.9759 -0.8788
12525TIP3    H259067   1.984   5.214  13.994  0.7086 -1.1019 -0.5178
12526TIP3   OH259068   3.585   3.612   4.334  0.4881 -0.0441  0.6910
12526TIP3    H159069   3.600   3.523   4.367 -0.0527 -0.6950 -0.7709
12526TIP3    H259070   3.498   3.635   4.366 -0.7773 -1.3573 -1.6748
12527TIP3   OH259071   5.348   0.974   0.128  0.4697 -0.1898 -0.4006
12527TIP3    H159072   5.414   0.906   0.119  1.0966  0.4679 -0.9003
12527TIP3    H259073   5.381   1.030   0.198  0.6706  0.3741 -0.9318
12528TIP3   OH259074   2.033   5.014  14.648  0.3914 -0.1082  0.3590
12528TIP3    H159075   2.113   5.046  14.606  1.0681 -1.1936  0.8102
12528TIP3    H259076   2.064   4.957  14.719 -0.7370  1.1552  1.9225
12529TIP3   OH259077   4.817   2.870   5.047  0.3752  0.0065 -0.0863
12529TIP3    H159078   4.899   2.910   5.076  0.8866 -1.9957  1.3461
12529TIP3    H259079   4.749   2.914   5.098  0.7445  0.4651  0.0072
12530TIP3   OH259080   4.152   4.052   2.843  0.0739 -0.0774 -0.3345
12530TIP3    H159081   4.243   4.081   2.834 -1.1536  3.6718 -1.8607
12530TIP3    H259082   4.124   4.085   2.929 -0.0190 -0.7312 -0.1107
12531TIP3   OH259083   3.293   2.845   1.149 -0.2966  0.5858  0.3340
12531TIP3    H159084   3.358   2.886   1.206  0.5605  0.0278 -0.2265
12531TIP3    H259085   3.340   2.772   1.109 -0.9533  0.8359 -0.9070
12532TIP3   OH259086   3.917   5.921   6.079 -0.0589  0.1577  0.3863
12532TIP3    H159087   3.856   5.923   6.152 -0.7393 -1.4345 -0.1218
12532TIP3    H259088   3.911   5.832   6.044  2.7150 -0.1273  0.4710
12533TIP3   OH259089   4.218   2.694   1.665 -0.4439  0.7780 -0.0523
12533TIP3    H159090   4.149   2.628   1.673 -0.5114  0.7891 -0.5517
12533TIP3    H259091   4.240   2.694   1.572  0.3542  0.6423  0.1324
12534TIP3   OH259092   1.844   5.871   5.167  0.4996  0.4525  0.4474
12534TIP3    H159093   1.936   5.850   5.183  0.4957  0.6563  0.7449
12534TIP3    H259094   1.796   5.825   5.236  0.1073 -2.1210 -1.4889
12535TIP3   OH259095   5.907   2.275   1.404 -0.3764 -0.1702 -0.4279
12535TIP3    H159096   5.920   2.181   1.414 -0.0820 -0.0853  0.0150
12535TIP3    H259097   5.917   2.292   1.311 -1.7247 -0.7757 -0.6942
12536TIP3   OH259098   3.040   3.847   1.662 -0.5778 -0.7035  0.6454
12536TIP3    H159099   2.965   3.798   1.628 -0.8135 -0.0669  0.2409
12536TIP3    H259100   3.034   3.838   1.757 -1.4683 -0.2089  0.6401
12537TIP3   OH259101   1.477   3.530  13.821  0.2993  0.1407 -0.6768
12537TIP3    H159102   1.423   3.536  13.743  0.1558  0.2290 -0.5714
12537TIP3    H259103   1.428   3.578  13.888  0.2687 -0.2068 -0.4478
12538TIP3   OH259104   2.956   2.817   3.365 -0.2754 -0.0117  0.0848
12538TIP3    H159105   2.914   2.784   3.286  0.1758  1.2431 -0.7031
12538TIP3    H259106   3.046   2.785   3.360 -0.1931  0.2301 -0.0178
12539TIP3   OH259107   0.444   0.362   5.049  0.0235  0.1399  0.8008
12539TIP3    H159108   0.527   0.322   5.023  0.1015  0.8706 -0.0879
12539TIP3    H259109   0.398   0.376   4.966 -1.8711 -2.1426  1.4098
12540TIP3   OH259110   5.799   3.373  14.390  0.7530  0.1823  0.0683
12540TIP3    H159111   5.819   3.424  14.312 -0.6633 -0.6173 -0.8437
12540TIP3    H259112   5.718   3.411  14.424  0.5520 -0.4227  0.2808
12541TIP3   OH259113   1.220   0.088  13.511 -0.1222  0.4543  0.4760
12541TIP3    H159114   1.296   0.074  13.454 -0.7180  1.1237 -0.5055
12541TIP3    H259115   1.236   0.032  13.587  0.5299 -0.7264 -0.5061
12542TIP3   OH259116   4.384   0.119   4.402 -0.3107 -0.2756 -0.5352
12542TIP3    H159117   4.435   0.197   4.382  1.0476 -0.4483  2.0331
12542TIP3    H259118   4.304   0.151   4.443 -0.5062 -0.1470 -1.0265
12543TIP3   OH259119   0.302   5.136   4.006  0.0790 -0.3581  0.2301
12543TIP3    H159120   0.362   5.162   3.937 -0.1762 -1.3328 -0.3775
12543TIP3    H259121   0.229   5.093   3.959 -0.4214 -0.4093  1.0457
12544TIP3   OH259122   1.149   6.386  14.380 -0.2442 -0.1759 -0.3482
12544TIP3    H159123   1.209   6.397  14.306 -0.1610 -3.4317 -0.8110
12544TIP3    H259124   1.153   6.470  14.427  3.9385 -0.0154 -0.8805
12545TIP3   OH259125   1.732   0.294   2.284  0.0017  0.3891 -0.3585
12545TIP3    H159126   1.729   0.207   2.325  0.3054  0.6325  0.1909
12545TIP3    H259127   1.782   0.347   2.345 -2.5960  1.6987  0.7417
12546TIP3   OH259128   1.055   3.643  14.490 -0.1737  0.1276  0.3113
12546TIP3    H159129   0.961   3.658  14.494 -0.2209  0.1818 -0.8266
12546TIP3    H259130   1.084   3.690  14.411  0.7153 -0.3489  0.3445
12547TIP3   OH259131   1.530   3.514   5.371  0.1674  0.2460 -0.3318
12547TIP3    H159132   1.599   3.512   5.305 -0.4776  4.5714 -1.2710
12547TIP3    H259133   1.466   3.450   5.340  1.3785 -0.1255 -2.1390
12548TIP3   OH259134   3.009   0.031  15.149 -0.0711 -0.1029  0.3048
12548TIP3    H159135   2.960   0.075  15.219  0.0486 -0.5999  0.7014
12548TIP3    H259136   3.039  -0.051  15.188 -1.5407 -1.2255 -0.8905
12549TIP3   OH259137   4.633   4.864   3.861 -0.0988  0.8562 -0.1167
12549TIP3    H159138   4.582   4.825   3.790  0.1950 -0.4484  0.3853
12549TIP3    H259139   4.576   4.931   3.898 -1.3111 -0.3265  0.1922
12550TIP3   OH259140   4.158   5.635   4.279 -0.2074  0.0638  0.4945
12550TIP3    H159141   4.192   5.666   4.196  0.2859 -0.7969  0.3641
12550TIP3    H259142   4.124   5.547   4.260 -0.7291  0.1429  1.0419
12551TIP3   OH259143   0.440   1.516   1.956 -0.3574 -0.3668  0.5027
12551TIP3    H159144   0.483   1.450   1.902 -0.2126 -0.2629  0.4866
12551TIP3    H259145   0.377   1.558   1.897 -0.0951 -0.1539  0.3714
12552TIP3   OH259146   6.195   0.288   5.956  0.2918 -0.5080  0.1911
12552TIP3    H159147   6.216   0.214   6.013  2.5261 -0.3078 -0.2960
12552TIP3    H259148   6.279   0.332   5.942 -1.2240  2.9772  1.5992
12553TIP3   OH259149   1.539   0.118   5.539 -0.0626  0.8398 -0.6099
12553TIP3    H159150   1.593   0.151   5.611 -0.9754  0.7751  0.1275
12553TIP3    H259151   1.488   0.047   5.579  0.4473 -0.1532 -1.6779
12554TIP3   OH259152   6.637   2.181   2.461 -0.3994  0.1320 -0.1346
12554TIP3    H159153   6.547   2.188   2.428 -0.9333 -1.0179  1.0250
12554TIP3    H259154   6.688   2.155   2.385 -1.3034 -0.6253 -0.4973
12555TIP3   OH259155   3.776   1.507  15.984  0.2305 -0.6228 -0.1911
12555TIP3    H159156   3.813   1.423  15.958 -1.5800 -1.1332 -1.1409
12555TIP3    H259157   3.823   1.530  16.065  0.3164 -2.8131  0.4066
12556TIP3   OH259158   2.164   2.478   2.072  0.2114  0.4553 -0.1304
12556TIP3    H159159   2.236   2.418   2.051 -0.4100 -0.4608  0.3016
12556TIP3    H259160   2.179   2.503   2.163  0.9689  1.6818 -0.5782
12557TIP3   OH259161   5.031   4.331   1.238 -0.2070 -0.2801 -0.3558
12557TIP3    H159162   5.043   4.408   1.182 -0.0638 -1.8309 -2.5560
12557TIP3    H259163   5.096   4.268   1.205  0.1698 -1.0933  1.8688
12558TIP3   OH259164   3.470   3.326  11.786 -0.3960 -0.2499  0.3051
12558TIP3    H159165   3.562   3.328  11.759 -0.2594 -0.2941  0.7463
12558TIP3    H259166   3.429   3.264  11.726 -0.0938 -0.3738  0.2211
12559TIP3   OH259167   5.838   0.982   3.153  0.2556 -0.2494  0.2848
12559TIP3    H159168   5.786   0.951   3.227  0.5380 -1.5168 -0.0350
12559TIP3    H259169   5.839   0.908   3.092  0.6791  0.5123 -0.6283
12560TIP3   OH259170   5.929   1.421   3.424  0.2183  0.5799 -0.4356
12560TIP3    H159171   5.923   1.337   3.377  0.2192 -0.6776  1.7720
12560TIP3    H259172   5.899   1.402   3.512  1.5448  2.6014  0.4941
12561TIP3   OH259173   0.189   6.697   0.680  0.9273  0.3081  0.1022
12561TIP3    H159174   0.279   6.682   0.708  0.4904 -1.0236  0.8314
12561TIP3    H259175   0.172   6.629   0.616 -0.3291 -0.9726  1.7476
12562TIP3   OH259176   3.722   3.215   6.218 -0.1352 -0.1421 -0.0083
12562TIP3    H159177   3.725   3.304   6.184  0.4052 -0.0039  0.3911
12562TIP3    H259178   3.641   3.178   6.184  0.0582  0.2247 -0.8611
12563TIP3   OH259179   3.808   0.203  13.043  0.4771 -0.1249 -0.1079
12563TIP3    H159180   3.872   0.228  12.976  0.8901 -1.3223 -0.1731
12563TIP3    H259181   3.830   0.258  13.119 -0.0261  1.2702 -0.9676
12564TIP3   OH259182   4.359   4.182   2.279 -0.4970 -0.1739 -0.6134
12564TIP3    H159183   4.290   4.119   2.300 -0.3643 -0.0413  0.2481
12564TIP3    H259184   4.372   4.230   2.361 -1.6357  1.9752 -1.6448
12565TIP3   OH259185   4.215   5.487   1.182  0.5435 -0.6863  0.4106
12565TIP3    H159186   4.205   5.409   1.127 -0.8703 -0.3504  0.1652
12565TIP3    H259187   4.181   5.460   1.267 -0.9160 -0.0382  0.0439
12566TIP3   OH259188   0.090   3.555   2.760 -0.0972 -0.7716  0.2141
12566TIP3    H159189   0.152   3.564   2.832 -1.3376 -1.2691  1.3663
12566TIP3    H259190   0.077   3.460   2.751 -0.0534 -0.7102 -0.5842
12567TIP3   OH259191   4.054   0.971  16.499  0.1049 -0.0016 -0.0726
12567TIP3    H159192   4.026   1.005  16.414 -1.6265 -0.3749  0.3368
12567TIP3    H259193   4.109   0.896  16.478 -0.2227 -0.0255 -0.8647
12568TIP3   OH259194   2.096   5.854   1.361  0.0894  0.0104  0.2968
12568TIP3    H159195   2.066   5.824   1.276  1.8985  1.7215 -1.0077
12568TIP3    H259196   2.092   5.950   1.355  2.0843  0.1942  1.3931
12569TIP3   OH259197   1.381   3.632  14.216  0.0379 -0.1005 -0.0139
12569TIP3    H159198   1.440   3.644  14.291  0.1528 -0.4706 -0.0430
12569TIP3    H259199   1.434   3.656  14.140  0.0292 -0.0482 -0.0041
12570TIP3   OH259200   0.933   2.662  16.577 -0.6642  0.8073 -0.1088
12570TIP3    H159201   0.929   2.699  16.665  0.5187  2.5231 -0.7397
12570TIP3    H259202   0.853   2.694  16.534 -0.0188  2.0762 -0.4115
12571TIP3   OH259203   1.632   0.087  14.752  0.1560  0.2893 -0.2762
12571TIP3    H159204   1.636  -0.008  14.760  2.1706  0.4912  1.7959
12571TIP3    H259205   1.547   0.111  14.787 -0.2825 -0.7356 -0.6299
12572TIP3   OH259206   5.907   4.903   0.524 -0.2315 -0.0122  0.5320
12572TIP3    H159207   5.881   4.933   0.611  0.4430  0.3356  0.6205
12572TIP3    H259208   5.838   4.843   0.497 -0.8487  0.4955  0.9757
12573TIP3   OH259209   0.071   2.478   5.240 -0.0182  0.0255 -0.4704
12573TIP3    H159210   0.046   2.388   5.260 -1.4245  0.0435 -2.0417
12573TIP3    H259211  -0.012   2.526   5.238  0.4920  0.8591 -2.0755
12574TIP3   OH259212   2.102   4.314   3.680  0.4937 -0.0512  0.1951
12574TIP3    H159213   2.172   4.349   3.625  1.8647 -1.4212  1.0104
12574TIP3    H259214   2.067   4.240   3.631 -1.4288  1.5007 -0.8749
12575TIP3   OH259215   6.436   3.838   4.652 -0.2963  0.3237  0.0597
12575TIP3    H159216   6.437   3.758   4.600 -1.9810  0.0616  0.4190
12575TIP3    H259217   6.428   3.909   4.588  0.4727  0.1814 -0.2064
12576TIP3   OH259218   1.800   3.107  11.345 -0.3322  0.2669  0.3409
12576TIP3    H159219   1.720   3.064  11.315  0.5639 -0.9556 -0.3686
12576TIP3    H259220   1.785   3.200  11.331 -1.0526 -0.0669 -1.1775
12577TIP3   OH259221   6.453   5.061  13.264 -0.0869 -0.5191 -0.1614
12577TIP3    H159222   6.454   4.971  13.233 -0.6839 -1.3314  2.0976
12577TIP3    H259223   6.546   5.085  13.269  0.0626 -0.8821 -1.0903
12578TIP3   OH259224   2.105   0.745  14.127 -0.0934  0.3613 -0.7562
12578TIP3    H159225   2.015   0.713  14.118 -0.1236  0.5493 -1.1550
12578TIP3    H259226   2.096   0.840  14.137 -0.0941  0.1170  1.9614
12579TIP3   OH259227   5.309   6.002  13.735 -0.0992  0.3804  0.4271
12579TIP3    H159228   5.247   5.930  13.738 -0.6437  0.7418 -1.3533
12579TIP3    H259229   5.345   6.000  13.646  0.3423  1.8979  0.5464
12580TIP3   OH259230   3.942   2.441   4.948  0.4585 -0.6186  0.2732
12580TIP3    H159231   3.987   2.465   4.868 -1.9858  0.2390 -0.8879
12580TIP3    H259232   3.890   2.363   4.925 -1.1670  0.3187  0.6667
12581TIP3   OH259233   4.294   4.300   1.960  0.3574  0.0814 -0.1521
12581TIP3    H159234   4.280   4.358   2.034  2.6916  2.7243 -1.7035
12581TIP3    H259235   4.353   4.232   1.993 -1.3696 -0.6997  1.3294
12582TIP3   OH259236   1.090   1.121   5.844  0.6663 -0.0653  0.1237
12582TIP3    H159237   1.178   1.131   5.880  0.5368  1.7821 -0.0198
12582TIP3    H259238   1.095   1.161   5.757 -0.3338  0.0895  0.1366
12583TIP3   OH259239   2.912   5.969   2.507  0.0132  0.3852 -0.4042
12583TIP3    H159240   2.825   5.932   2.492 -0.0707  1.2581 -2.1274
12583TIP3    H259241   2.901   6.027   2.582 -0.9205  0.5694 -0.6810
12584TIP3   OH259242   3.662   5.141  17.180 -0.5471  0.8484  0.1046
12584TIP3    H159243   3.681   5.194  17.103  1.4099  0.8708  0.5775
12584TIP3    H259244   3.582   5.093  17.157 -0.9715  2.1782 -1.2448
12585TIP3   OH259245   1.776   5.560   1.449 -0.3564 -0.4034 -0.0986
12585TIP3    H159246   1.852   5.552   1.506 -0.9154 -1.5819  0.4869
12585TIP3    H259247   1.771   5.654   1.428  0.8380 -0.2243  0.4134
12586TIP3   OH259248   1.126   5.995   3.630  0.3501  0.3855 -0.4783
12586TIP3    H159249   1.203   5.941   3.646 -0.8191 -1.5503 -1.1099
12586TIP3    H259250   1.097   6.022   3.717 -1.3290 -3.3807  0.2669
12587TIP3   OH259251   0.523   5.684   3.295 -0.3582  0.2981 -0.0774
12587TIP3    H159252   0.603   5.681   3.243 -2.7430  0.5194 -3.9773
12587TIP3    H259253   0.506   5.592   3.317 -0.2526 -0.0276 -1.2887
12588TIP3   OH259254   5.190   4.533   6.120  0.1338 -0.1422 -0.3709
12588TIP3    H159255   5.261   4.489   6.167  0.1083 -0.2456 -0.4276
12588TIP3    H259256   5.125   4.464   6.107 -0.3099  0.1394  0.3544
12589TIP3   OH259257   1.746   4.010  12.496  0.1309 -0.0286  0.4594
12589TIP3    H159258   1.834   3.978  12.518  0.0728  0.0165  0.7634
12589TIP3    H259259   1.697   3.931  12.473  0.5811  0.0729 -0.8808
12590TIP3   OH259260   1.414   4.650   5.727  0.1460  0.1596  0.2492
12590TIP3    H159261   1.488   4.654   5.787 -1.3355  1.8470  2.0545
12590TIP3    H259262   1.358   4.581   5.762 -0.4422  0.7463  0.4670
12591TIP3   OH259263   4.133   6.800   3.666  0.1252 -0.3924 -0.2975
12591TIP3    H159264   4.121   6.895   3.669  3.6456  0.1068  0.6683
12591TIP3    H259265   4.096   6.774   3.582 -0.4541  1.9120 -0.8058
12592TIP3   OH259266   2.800   1.839  15.836  0.1597 -0.0345 -0.7263
12592TIP3    H159267   2.805   1.746  15.814  1.6510 -0.6279  1.8442
12592TIP3    H259268   2.724   1.847  15.893  0.8025  0.0601  0.1328
12593TIP3   OH259269   3.213   0.526  16.942 -0.1792 -0.4424  0.3026
12593TIP3    H159270   3.276   0.454  16.946  1.1212  0.6499 -0.2821
12593TIP3    H259271   3.218   0.558  16.853  1.1662  2.0684  1.2549
12594TIP3   OH259272   1.261   2.105   2.875 -0.4810 -0.7069 -0.3767
12594TIP3    H159273   1.324   2.113   2.803 -0.3593 -2.1085 -0.4301
12594TIP3    H259274   1.297   2.037   2.932  0.0251  1.2177  1.6518
12595TIP3   OH259275   3.922   4.765  14.380  0.3445  0.6591  0.3558
12595TIP3    H159276   3.831   4.766  14.349  0.0525  2.5385  1.2397
12595TIP3    H259277   3.955   4.852  14.359  1.6668  0.2931  0.8961
12596TIP3   OH259278   3.566   3.747   0.325  0.1286  0.6388 -0.3242
12596TIP3    H159279   3.519   3.796   0.392 -0.2948  1.6750 -1.3779
12596TIP3    H259280   3.540   3.656   0.341 -0.0209  0.8766  0.8697
12597TIP3   OH259281   3.960   0.698   1.336 -0.0484 -0.2131 -0.3896
12597TIP3    H159282   3.894   0.705   1.267  1.4270  0.1835 -1.7943
12597TIP3    H259283   4.009   0.619   1.315 -0.3662 -0.7713  0.9230
12598TIP3   OH259284   2.546   0.487  16.424  0.1815  0.4809  0.4281
12598TIP3    H159285   2.606   0.559  16.407 -0.2147  0.7995  0.3754
12598TIP3    H259286   2.467   0.509  16.374  1.0765 -1.3819 -1.8949
12599TIP3   OH259287   1.242   2.715   5.999 -0.1389 -0.0687 -0.4225
12599TIP3    H159288   1.150   2.739   5.985  0.4856  2.0799 -1.1772
12599TIP3    H259289   1.255   2.724   6.093 -0.5606  0.1709 -0.3856
12600TIP3   OH259290   3.356   5.778   4.862 -0.3913 -0.5745  0.1300
12600TIP3    H159291   3.438   5.827   4.867 -0.3908 -0.2528 -2.1848
12600TIP3    H259292   3.303   5.812   4.934  1.0039  0.1564  0.8379
12601TIP3   OH259293   2.977   3.547   4.113  0.2047 -0.2244 -0.2070
12601TIP3    H159294   2.956   3.455   4.128  0.8169 -0.1649  1.1532
12601TIP3    H259295   2.903   3.581   4.063 -1.1342 -0.9093  1.2506
12602TIP3   OH259296   4.109   0.259   3.679 -0.1301 -0.0909  0.0450
12602TIP3    H159297   4.041   0.262   3.746  1.0014  1.0368  1.1752
12602TIP3    H259298   4.069   0.300   3.602 -1.3261 -1.0956  0.1063
12603TIP3   OH259299   3.606   5.918   6.161  0.2533 -0.5880 -0.2555
12603TIP3    H159300   3.665   5.906   6.235  0.4270  0.7799 -0.1546
12603TIP3    H259301   3.544   5.845   6.167 -0.7111  0.3761  2.1697
12604TIP3   OH259302   0.557   5.056   2.311  0.0894 -0.0677  0.5575
12604TIP3    H159303   0.631   5.117   2.304  1.0588 -1.1571  1.0433
12604TIP3    H259304   0.552   5.015   2.225  0.1262 -0.0639  0.5531
12605TIP3   OH259305   4.284   2.451   6.369 -0.5942 -0.8626  0.1123
12605TIP3    H159306   4.250   2.390   6.434 -1.2834 -0.3148  0.2590
12605TIP3    H259307   4.211   2.467   6.310  0.0478 -1.4238 -0.8613
12606TIP3   OH259308   6.772   3.763   2.450  0.3060  0.1084  0.0794
12606TIP3    H159309   6.855   3.715   2.455  0.1715  0.0151  1.5314
12606TIP3    H259310   6.793   3.851   2.483  0.7125  1.3069 -3.2272
12607TIP3   OH259311   0.974   4.692   1.180 -0.1588 -0.2158  0.1737
12607TIP3    H159312   0.923   4.763   1.140 -3.4465 -1.8274  1.3164
12607TIP3    H259313   0.948   4.614   1.131  1.5260 -1.0338  0.5630
12608TIP3   OH259314   3.513   0.704   4.914  0.5112 -0.3977  0.6522
12608TIP3    H159315   3.462   0.723   4.993  0.8672 -1.6217  1.1790
12608TIP3    H259316   3.586   0.766   4.917 -0.9564  1.4154 -0.1398
12609TIP3   OH259317   2.576   0.583  14.746  0.3453  0.2710  0.4120
12609TIP3    H159318   2.568   0.489  14.766 -1.3735  0.2984 -0.0414
12609TIP3    H259319   2.523   0.626  14.813  1.0381  0.9140  0.5480
12610TIP3   OH259320   2.000   6.432  14.391  0.0001  0.3361  0.0249
12610TIP3    H159321   2.057   6.416  14.466  0.6042  0.5992 -0.3730
12610TIP3    H259322   2.014   6.524  14.369  0.8105 -0.0617 -1.1966
12611TIP3   OH259323   1.915   6.124  13.487 -0.2983 -0.0807  0.2484
12611TIP3    H159324   1.832   6.173  13.494  1.4160  2.5959  2.7918
12611TIP3    H259325   1.947   6.145  13.399 -1.0987  0.8964  0.1734
12612TIP3   OH259326   1.453   6.295   3.470  0.4601  0.1669 -0.1666
12612TIP3    H159327   1.386   6.231   3.448 -0.6435  0.6517  1.7083
12612TIP3    H259328   1.452   6.356   3.396 -1.0611  0.0756 -0.2370
12613TIP3   OH259329   5.372   5.461  11.923 -0.1439  0.4011  0.0802
12613TIP3    H159330   5.422   5.382  11.899 -0.8507  0.3413 -1.2256
12613TIP3    H259331   5.440   5.527  11.940  0.4140 -0.0300 -0.4333
12614TIP3   OH259332   1.971   1.641  15.056 -0.1340 -0.0360 -0.2123
12614TIP3    H159333   2.031   1.662  15.127 -0.7461 -1.8067  0.8668
12614TIP3    H259334   1.995   1.701  14.986  0.4682  1.7507  1.4847
12615TIP3   OH259335   3.494   4.376  16.981 -0.5184 -0.0677 -0.2054
12615TIP3    H159336   3.447   4.459  16.980 -2.4613 -1.1029  1.6830
12615TIP3    H259337   3.545   4.377  16.900  0.0211  3.2335  0.1174
12616TIP3   OH259338   3.173   5.637   3.944 -0.2072 -0.1770 -0.3886
12616TIP3    H159339   3.199   5.550   3.975  2.7174  0.7617 -0.0418
12616TIP3    H259340   3.139   5.682   4.021  1.8006  0.2295  0.2963
12617TIP3   OH259341   1.130   6.561   0.891 -0.6677 -0.0375  0.0936
12617TIP3    H159342   1.095   6.619   0.959 -1.4242  0.7148 -0.9256
12617TIP3    H259343   1.222   6.550   0.914 -0.6869  1.0079  0.6813
12618TIP3   OH259344   6.483   2.766  15.223 -0.2827 -0.3170 -0.1064
12618TIP3    H159345   6.446   2.727  15.303  0.5833 -0.2275  0.3368
12618TIP3    H259346   6.437   2.849  15.214  0.0309 -0.0600  0.6207
12619TIP3   OH259347   1.681   4.278   4.891 -0.1227  0.2704  0.4535
12619TIP3    H159348   1.603   4.222   4.886 -0.3917  0.5158  1.8431
12619TIP3    H259349   1.647   4.363   4.918  0.4905  0.7088 -0.1228
12620TIP3   OH259350   6.362   2.582   1.648  0.0355  0.5402 -0.3353
12620TIP3    H159351   6.397   2.654   1.595 -0.1087 -0.4349 -1.7883
12620TIP3    H259352   6.318   2.525   1.585 -0.8593 -0.2241  0.9602
12621TIP3   OH259353   5.067   0.285  10.714  0.4709  0.2887  0.0955
12621TIP3    H159354   5.089   0.196  10.742  1.5042  0.3396 -0.5476
12621TIP3    H259355   4.983   0.275  10.668  0.3113 -0.2644  0.4935
12622TIP3   OH259356   0.734   6.582  11.283 -0.6595  0.3886  0.6322
12622TIP3    H159357   0.648   6.541  11.277  0.2474 -1.5192  0.3218
12622TIP3    H259358   0.752   6.615  11.195 -0.5602 -0.2607  0.4121
12623TIP3   OH259359   1.396   6.631  12.225 -0.8133  0.2332  0.6287
12623TIP3    H159360   1.488   6.608  12.235 -0.3007  1.8193 -0.2078
12623TIP3    H259361   1.352   6.548  12.207  0.4267 -0.5537  1.1898
12624TIP3   OH259362   6.667   1.440  11.959 -0.4623  0.3677  0.2840
12624TIP3    H159363   6.654   1.472  11.870 -0.7205 -1.3352 -0.3221
12624TIP3    H259364   6.662   1.344  11.950  1.5204  0.0977  1.8044
12625TIP3   OH259365   3.121   2.723   0.020  0.1131  0.2375 -0.5828
12625TIP3    H159366   3.120   2.634  -0.014  1.0556  0.0735 -0.1905
12625TIP3    H259367   3.051   2.768  -0.028  0.8604 -0.2139 -2.1490
12626TIP3   OH259368   4.587   3.477   1.091 -0.2664 -0.2270 -0.0357
12626TIP3    H159369   4.625   3.559   1.059 -2.8759  0.4748 -1.5086
12626TIP3    H259370   4.656   3.412   1.076  1.2467  1.4033 -0.3568
12627TIP3   OH259371   2.229   2.748   1.005 -0.2726  0.3682 -0.0731
12627TIP3    H159372   2.177   2.771   1.082 -0.6844  2.5505 -0.9573
12627TIP3    H259373   2.180   2.677   0.963 -0.8890  0.2794  0.7871
12628TIP3   OH259374   5.507   2.971  15.956 -0.0895  0.1572 -0.5770
12628TIP3    H159375   5.597   2.941  15.941  0.2331  1.6625 -1.7341
12628TIP3    H259376   5.513   3.067  15.956 -1.5015  0.2695  0.5687
12629TIP3   OH259377   6.583   3.019  15.631 -0.1846  0.4177  0.5179
12629TIP3    H159378   6.508   3.050  15.580  0.4375 -0.4992 -0.9825
12629TIP3    H259379   6.579   2.924  15.624  0.1321  0.2972  1.8857
12630TIP3   OH259380   3.868   6.103   3.905 -0.2539  0.5138  0.2509
12630TIP3    H159381   3.883   6.012   3.878 -1.6780 -0.2165  1.8494
12630TIP3    H259382   3.948   6.149   3.879  0.5415 -1.2181 -0.4429
12631TIP3   OH259383   2.617   1.739  11.134 -1.1263 -0.1846 -0.0850
12631TIP3    H159384   2.646   1.760  11.045  1.1360 -0.1194  0.6327
12631TIP3    H259385   2.663   1.802  11.189 -0.5601 -1.8346  1.3688
12632TIP3   OH259386   0.181   6.240   3.946  0.3794 -0.5556 -0.7296
12632TIP3    H159387   0.273   6.240   3.920  1.1208 -0.1067  1.7037
12632TIP3    H259388   0.181   6.197   4.032 -1.4208  0.8899  0.0293
12633TIP3   OH259389   2.790   4.945  15.181 -0.0260  0.0590  0.4830
12633TIP3    H159390   2.767   4.855  15.160  1.3047  0.4209 -2.8791
12633TIP3    H259391   2.862   4.937  15.244  0.6141 -1.2560 -0.3862
12634TIP3   OH259392   3.331   6.110  17.276 -0.1328  0.0146 -0.1419
12634TIP3    H159393   3.403   6.056  17.308  0.6118  0.2841 -1.3624
12634TIP3    H259394   3.302   6.159  17.353  0.0822 -1.1131  0.6620
12635TIP3   OH259395   0.040   1.346   1.210 -0.7438  0.0503  0.3171
12635TIP3    H159396  -0.047   1.310   1.225 -0.8498 -0.6795 -1.7905
12635TIP3    H259397   0.034   1.437   1.236 -2.2835  0.1276 -0.2965
12636TIP3   OH259398   5.678   4.286   0.472  0.3069 -0.5414 -0.0125
12636TIP3    H159399   5.746   4.262   0.534  0.7290  0.5545 -0.0391
12636TIP3    H259400   5.599   4.296   0.526  0.7720  0.8603  0.4263
12637TIP3   OH259401   0.495   4.767  14.205  0.1565  0.1567  0.5918
12637TIP3    H159402   0.506   4.803  14.293 -1.9289 -0.4907  1.1468
12637TIP3    H259403   0.413   4.805  14.174  1.2935  1.0320 -1.4290
12638TIP3   OH259404   0.396   4.774   0.866 -0.0892  0.0443 -0.4898
12638TIP3    H159405   0.461   4.841   0.845  0.8498 -1.1556 -1.4993
12638TIP3    H259406   0.317   4.801   0.819 -0.2404  1.3401  0.4879
12639TIP3   OH259407   3.071   1.037  11.741  0.0663 -0.2814 -0.4604
12639TIP3    H159408   3.014   1.083  11.679 -0.3523  1.3969  1.1347
12639TIP3    H259409   3.160   1.054  11.708 -0.1814  0.1294 -0.9215
12640TIP3   OH259410   6.327   6.005  14.271  0.3796 -0.4710  0.1274
12640TIP3    H159411   6.315   6.098  14.287 -0.2752 -0.4008 -0.7608
12640TIP3    H259412   6.422   5.993  14.267  0.4594  0.1925 -0.0005
12641TIP3   OH259413   2.138   4.572  16.162  0.2780  0.1823  0.0575
12641TIP3    H159414   2.138   4.564  16.258 -1.8904 -1.3939 -0.0469
12641TIP3    H259415   2.193   4.499  16.133  1.5769  1.1224  0.1091
12642TIP3   OH259416   0.224   6.782  17.026 -0.4857  0.0129 -0.5697
12642TIP3    H159417   0.231   6.733  17.108 -0.5125 -0.8322 -1.0680
12642TIP3    H259418   0.308   6.827  17.017 -0.5957  0.3577  0.0677
12643TIP3   OH259419   0.319   1.992  17.127  0.0053  0.0584  0.2324
12643TIP3    H159420   0.394   1.955  17.081 -0.7499 -0.0299 -0.9721
12643TIP3    H259421   0.272   2.042  17.060 -1.2057 -0.1887  0.8753
12644TIP3   OH259422   0.728   1.792   3.695  0.3186  0.2334 -0.3530
12644TIP3    H159423   0.714   1.780   3.789 -3.3702  0.3760 -0.8135
12644TIP3    H259424   0.765   1.708   3.666  0.5773 -0.1622  1.0524
12645TIP3   OH259425   0.674   2.833   1.031 -0.7073  0.2994  0.0948
12645TIP3    H159426   0.651   2.926   1.032  0.2452  0.5411 -0.4323
12645TIP3    H259427   0.767   2.831   1.009 -0.8098 -0.7975 -0.2741
12646TIP3   OH259428   4.825   4.409  16.393 -0.1150  0.2156 -0.4146
12646TIP3    H159429   4.754   4.362  16.350 -0.0888  0.1131 -0.3483
12646TIP3    H259430   4.847   4.481  16.334 -0.5132  0.4552 -0.2746
12647TIP3   OH259431   6.721   4.843  11.898  0.2280  0.2307  0.3305
12647TIP3    H159432   6.777   4.853  11.821  1.3255 -1.6721  0.8532
12647TIP3    H259433   6.677   4.759  11.885  0.1846  0.0457  1.6297
12648TIP3   OH259434   1.570   2.857   1.874 -0.4921 -0.1735 -0.3992
12648TIP3    H159435   1.647   2.807   1.901 -0.1189  1.4841  1.7603
12648TIP3    H259436   1.579   2.866   1.779  1.2644 -1.1569 -0.3363
12649TIP3   OH259437   1.291   4.547   1.383 -0.4897  0.1184  0.3828
12649TIP3    H159438   1.291   4.497   1.301 -0.7713  0.1061  0.3895
12649TIP3    H259439   1.199   4.547   1.411 -0.7331  1.9059 -0.3801
12650TIP3   OH259440   5.984   4.895  14.339  0.2129  0.3329  0.5231
12650TIP3    H159441   5.966   4.816  14.390 -1.3226  1.1548  1.2894
12650TIP3    H259442   5.975   4.867  14.248  1.7986 -0.8679  0.7145
12651TIP3   OH259443   3.935   2.585   2.073 -0.0335  0.3078  0.3953
12651TIP3    H159444   3.936   2.576   2.168  0.2035  0.9164  0.4468
12651TIP3    H259445   3.995   2.517   2.042 -0.1392  0.0846  0.6749
12652TIP3   OH259446   3.354   6.100   5.778  0.1269  0.1754  0.4075
12652TIP3    H159447   3.353   6.101   5.682  0.1704 -2.8707  0.3169
12652TIP3    H259448   3.375   6.009   5.800  1.4111  1.1356  3.3192
12653TIP3   OH259449   1.617   4.508   2.445 -0.0207  0.0451 -0.4068
12653TIP3    H159450   1.615   4.467   2.359 -1.3873  3.1117 -1.8669
12653TIP3    H259451   1.530   4.493   2.481  0.1676 -0.1642 -0.0263
12654TIP3   OH259452   0.137   5.308   4.276 -0.1609 -0.0973 -0.2994
12654TIP3    H159453   0.194   5.383   4.298 -3.3878  2.0571  1.2024
12654TIP3    H259454   0.108   5.325   4.187  0.8412 -0.7067 -0.7375
12655TIP3   OH259455   3.546   4.775  12.051  0.5046  0.8023 -0.2342
12655TIP3    H159456   3.506   4.743  11.970  0.6555 -1.7735  0.6728
12655TIP3    H259457   3.639   4.755  12.042  0.7315  1.6661  0.0628
12656TIP3   OH259458   0.577   1.365  16.618  0.2184 -0.5726 -0.2585
12656TIP3    H159459   0.503   1.392  16.672  0.9263  1.7655 -0.3983
12656TIP3    H259460   0.552   1.279  16.584 -2.1900 -0.0650  0.1338
12657TIP3   OH259461   0.809   2.162   0.527 -0.0168 -0.7776 -0.0415
12657TIP3    H159462   0.818   2.157   0.432  1.5246 -0.6660  0.0883
12657TIP3    H259463   0.887   2.118   0.561 -0.4321 -0.6001  1.1704
12658TIP3   OH259464   4.445   6.156  13.622 -0.3385 -0.0158  0.3366
12658TIP3    H159465   4.515   6.097  13.652  0.6204  1.2048  0.5077
12658TIP3    H259466   4.462   6.167  13.529 -2.3580 -2.4811 -0.3926
12659TIP3   OH259467   4.348   0.441   3.295 -0.0127 -0.2080 -0.4083
12659TIP3    H159468   4.286   0.397   3.238  0.5960 -0.7990 -0.6190
12659TIP3    H259469   4.374   0.520   3.247 -0.2642 -0.1842 -0.5060
12660TIP3   OH259470   2.696   3.730   4.727  0.1532 -0.1820  0.5005
12660TIP3    H159471   2.676   3.816   4.764 -0.5712 -1.5056  3.2945
12660TIP3    H259472   2.610   3.691   4.710  0.4460 -1.1720  1.2342
12661TIP3   OH259473   1.032   5.241   6.219  0.0141  0.1619  0.0377
12661TIP3    H159474   1.100   5.180   6.248 -1.1149 -0.9725  0.3387
12661TIP3    H259475   0.961   5.229   6.283 -0.8809  0.5832 -0.8724
12662TIP3   OH259476   0.997   2.741   0.042  0.6681 -0.2792 -0.5461
12662TIP3    H159477   1.007   2.836   0.036 -1.7771 -0.0374 -1.4439
12662TIP3    H259478   1.025   2.709  -0.043  1.7183 -0.3983 -0.1614
12663TIP3   OH259479   3.862   5.844   0.802  0.5270 -0.0278 -0.1079
12663TIP3    H159480   3.860   5.929   0.844 -0.9199  0.5851 -1.3792
12663TIP3    H259481   3.859   5.781   0.874  2.0788  0.9816  0.8469
12664TIP3   OH259482   2.163   6.209  12.801 -0.3648  0.5926 -0.7933
12664TIP3    H159483   2.203   6.278  12.748  1.6818  1.5522  1.8913
12664TIP3    H259484   2.092   6.254  12.847  0.0100  0.5657 -0.1871
12665TIP3   OH259485   5.043   1.427   2.487 -0.0551 -0.2697  0.6682
12665TIP3    H159486   5.126   1.390   2.456  0.6337  0.3222  1.7463
12665TIP3    H259487   5.022   1.378   2.566 -0.6845 -0.3565  0.4478
12666TIP3   OH259488   1.460   2.186  15.848  0.0016  0.1065  0.2322
12666TIP3    H159489   1.384   2.166  15.793 -0.4456 -1.4150  1.3580
12666TIP3    H259490   1.533   2.144  15.802  0.2867  2.0386 -1.1400
12667TIP3   OH259491   2.880   2.774   1.602  0.4486  0.8487 -0.2904
12667TIP3    H159492   2.973   2.763   1.621  0.3253  1.3267  0.6071
12667TIP3    H259493   2.865   2.720   1.525  1.3417  0.2864 -0.0793
12668TIP3   OH259494   1.724   3.817   0.026  0.2167 -0.0950 -0.5359
12668TIP3    H159495   1.766   3.892  -0.017  0.8073 -0.5539 -0.7775
12668TIP3    H259496   1.789   3.747   0.018  0.0048 -0.3994  0.4200
12669TIP3   OH259497   1.493   5.010   5.334 -0.0519 -0.6006 -0.3043
12669TIP3    H159498   1.409   5.025   5.378  0.1341 -2.3928  0.7004
12669TIP3    H259499   1.492   5.070   5.260 -1.5620  0.5060  0.5792
12670TIP3   OH259500   4.500   2.105  16.426  0.0197 -0.0460 -0.5849
12670TIP3    H159501   4.561   2.055  16.371  0.7450  1.1041 -0.8610
12670TIP3    H259502   4.468   2.174  16.368 -0.7513 -0.0187 -0.1311
12671TIP3   OH259503   4.344   0.586   1.513  0.0466  0.0014 -0.6471
12671TIP3    H159504   4.296   0.518   1.561  1.4820  0.0217  0.8489
12671TIP3    H259505   4.295   0.666   1.531  0.3099 -0.0685  0.4162
12672TIP3   OH259506   6.396   4.160   5.512 -0.1130  0.1261 -0.2238
12672TIP3    H159507   6.350   4.233   5.553 -0.1025  0.7408 -1.2893
12672TIP3    H259508   6.392   4.090   5.577 -1.0224  0.7416  0.3973
12673TIP3   OH259509   5.265   0.365   1.045  0.5492  0.3401  0.2300
12673TIP3    H159510   5.227   0.452   1.040  0.2056  0.1455 -0.6303
12673TIP3    H259511   5.351   0.378   1.083  1.0923  1.2265 -1.2807
12674TIP3   OH259512   6.309   0.680   0.898  1.0451 -0.2275 -0.9293
12674TIP3    H159513   6.322   0.591   0.865 -0.6001 -1.3022  1.1864
12674TIP3    H259514   6.382   0.694   0.959 -0.0683 -1.1041  0.6360
12675TIP3   OH259515   6.189   5.121   1.470 -0.2349  0.1898 -0.1193
12675TIP3    H159516   6.244   5.185   1.425 -1.5332  1.4157  0.0002
12675TIP3    H259517   6.107   5.120   1.420 -0.2788 -1.2790 -0.0320
12676TIP3   OH259518   5.851   0.303  15.049 -0.0433  0.3353 -0.1590
12676TIP3    H159519   5.895   0.387  15.054  0.8159  0.0475 -2.1427
12676TIP3    H259520   5.846   0.272  15.139  1.6292  1.4948  0.3460
12677TIP3   OH259521   6.542   2.210   1.423 -0.1815  0.2171 -0.7516
12677TIP3    H159522   6.447   2.211   1.412 -0.4465  0.8681  1.3523
12677TIP3    H259523   6.560   2.131   1.473  0.1721  0.9871  0.3740
12678TIP3   OH259524   5.628   2.591  14.644 -0.1976 -0.2830 -0.0961
12678TIP3    H159525   5.552   2.648  14.657 -0.1921 -0.6551  1.7603
12678TIP3    H259526   5.693   2.647  14.601 -0.7688  0.6525  0.2330
12679TIP3   OH259527   4.937   4.865  16.933  0.0497  0.1598  0.3627
12679TIP3    H159528   5.004   4.836  16.996 -0.6001 -1.7229  0.2269
12679TIP3    H259529   4.854   4.834  16.971 -0.2513 -1.9954 -1.9340
12680TIP3   OH259530   4.422   3.320  12.508  0.6707  0.1447  0.5023
12680TIP3    H159531   4.341   3.321  12.559 -0.4242  0.1850 -1.1618
12680TIP3    H259532   4.478   3.385  12.550  0.1805 -0.5004  2.2023
12681TIP3   OH259533   5.119   6.707   1.713  0.0270 -0.0602  0.7119
12681TIP3    H159534   5.105   6.754   1.631 -1.8866 -0.6142  0.7015
12681TIP3    H259535   5.199   6.746   1.750 -0.5750  2.0145 -0.1161
12682TIP3   OH259536   5.170   4.209   4.565  0.4290 -0.9575  0.2205
12682TIP3    H159537   5.122   4.266   4.504  1.2253 -1.7784 -1.1981
12682TIP3    H259538   5.257   4.249   4.571  1.1028 -2.1763 -1.0491
12683TIP3   OH259539   3.120   0.461   3.367  0.3237 -0.4850  0.1695
12683TIP3    H159540   3.168   0.382   3.390 -0.2129 -0.8441  0.0540
12683TIP3    H259541   3.079   0.490   3.449 -0.1569 -0.7890  0.0377
12684TIP3   OH259542   1.075   4.623   4.625 -0.2910  0.3418 -0.0284
12684TIP3    H159543   1.141   4.654   4.563 -0.5128 -1.0043 -0.9405
12684TIP3    H259544   0.994   4.617   4.574 -0.9029  0.9673  0.8345
12685TIP3   OH259545   0.750   2.597  16.286 -0.6813  0.0740 -0.4680
12685TIP3    H159546   0.804   2.674  16.303 -3.2362  1.7489  0.5107
12685TIP3    H259547   0.808   2.536  16.242  2.3006  1.2915  1.5834
12686TIP3   OH259548   0.672   1.954   0.791  0.1132  0.4270 -0.0041
12686TIP3    H159549   0.616   1.991   0.723 -0.4294 -0.1415  0.1214
12686TIP3    H259550   0.702   1.871   0.754 -1.2555 -0.5297  0.9522
12687TIP3   OH259551   6.375   3.639  15.600  0.5311  0.4162 -0.0493
12687TIP3    H159552   6.412   3.722  15.630  3.7530 -1.2599  0.8495
12687TIP3    H259553   6.434   3.611  15.529 -3.2469  1.1620 -3.6910
12688TIP3   OH259554   4.403   1.479  14.699  0.1820  0.0268  0.3412
12688TIP3    H159555   4.490   1.438  14.693 -0.8430 -2.3179  0.9817
12688TIP3    H259556   4.344   1.407  14.717 -2.1030  1.4305 -1.2925
12689TIP3   OH259557   0.153   3.817   4.747 -0.3038 -0.2392 -0.0399
12689TIP3    H159558   0.101   3.842   4.671  1.2622  0.0631 -1.0488
12689TIP3    H259559   0.134   3.883   4.813 -0.4564  0.4076 -0.7345
12690TIP3   OH259560   1.516   0.545  15.766  0.2487 -0.2544 -0.6199
12690TIP3    H159561   1.439   0.601  15.777  0.2466 -0.1366 -1.2409
12690TIP3    H259562   1.589   0.606  15.753  0.6712 -0.3210  1.2733
12691TIP3   OH259563   1.041   2.036  13.304 -0.5519  0.3944 -0.0397
12691TIP3    H159564   1.062   2.059  13.395 -0.6410  0.2510  0.0163
12691TIP3    H259565   0.965   2.090  13.282 -1.6039 -0.8390  0.5302
12692TIP3   OH259566   3.280   4.604  15.907  0.4991 -0.5263 -0.4656
12692TIP3    H159567   3.302   4.673  15.844 -0.4584  0.6371  0.4525
12692TIP3    H259568   3.365   4.575  15.941  0.9064  0.2743 -0.7831
12693TIP3   OH259569   3.121   5.291   3.598 -0.1089 -0.4943  0.1948
12693TIP3    H159570   3.152   5.204   3.573 -0.3524 -1.2474  2.3496
12693TIP3    H259571   3.186   5.322   3.661 -0.9127  0.1655  0.7107
12694TIP3   OH259572   2.410   4.556   1.822 -0.0345  0.2684 -0.0459
12694TIP3    H159573   2.483   4.617   1.835  0.0428  0.0259  0.7173
12694TIP3    H259574   2.447   4.470   1.841 -0.6103  0.1864  0.7277
12695TIP3   OH259575   6.037   3.771   2.818  0.0237 -0.5533  0.8983
12695TIP3    H159576   6.093   3.808   2.886  2.2686  0.6355 -1.5382
12695TIP3    H259577   5.963   3.832   2.813  0.4498  0.0167  1.4247
12696TIP3   OH259578   0.258   5.689   1.001 -1.0292  0.4663 -0.5381
12696TIP3    H159579   0.208   5.664   1.079 -1.6189  0.3053 -0.9638
12696TIP3    H259580   0.207   5.653   0.928  0.3050 -0.6800 -0.9097
12697TIP3   OH259581   2.058   2.657   0.274  0.3131  0.4245 -0.3599
12697TIP3    H159582   2.057   2.657   0.178  0.2184 -0.7003 -0.3661
12697TIP3    H259583   1.999   2.727   0.298  0.4896  0.8457 -1.1317
12698TIP3   OH259584   0.182   0.702   4.073  0.0774  0.0835  0.1641
12698TIP3    H159585   0.089   0.704   4.098 -0.2674  1.0203 -1.1384
12698TIP3    H259586   0.191   0.622   4.022 -0.2974  0.6316 -0.7647
12699TIP3   OH259587   5.542   4.377  14.912  0.2404  0.9117 -0.3783
12699TIP3    H159588   5.602   4.419  14.974  0.8882 -2.4567  1.4022
12699TIP3    H259589   5.455   4.395  14.948  0.4882  1.0769  0.1492
12700TIP3   OH259590   3.516   0.624  11.458  0.2347  0.2156  0.0037
12700TIP3    H159591   3.576   0.692  11.426  0.7884 -0.3992 -0.2677
12700TIP3    H259592   3.573   0.558  11.498 -0.3541  0.2598  0.9289
12701TIP3   OH259593   5.165   1.649   5.296  0.0380 -0.0121 -0.3424
12701TIP3    H159594   5.145   1.570   5.346  0.1550 -1.0870 -1.9518
12701TIP3    H259595   5.141   1.627   5.206 -0.5528  2.0221 -0.7092
12702TIP3   OH259596   0.346   3.659  17.153 -0.5133  0.8708  0.4823
12702TIP3    H159597   0.409   3.636  17.086  0.7506  0.0507  1.9231
12702TIP3    H259598   0.273   3.598  17.139 -0.3675  0.8645 -0.2789
12703TIP3   OH259599   3.677   4.606  16.748  0.0351 -0.1683 -0.2288
12703TIP3    H159600   3.672   4.645  16.835  1.3330 -2.1095  0.7605
12703TIP3    H259601   3.593   4.561  16.737 -0.3802  0.6090 -0.2476
12704TIP3   OH259602   0.017   5.550  15.554  0.3506 -0.2421 -0.2458
12704TIP3    H159603  -0.063   5.603  15.558  0.1484 -0.4602 -1.1774
12704TIP3    H259604   0.083   5.603  15.598 -0.2228  0.0979  0.2252
12705TIP3   OH259605   0.755   3.096   4.184 -0.3262 -0.2440  0.1104
12705TIP3    H159606   0.793   3.009   4.185 -0.6297 -0.4335  4.0953
12705TIP3    H259607   0.683   3.092   4.247 -1.7821  2.3093 -1.2627
12706TIP3   OH259608   2.005   1.162  15.913 -0.1352 -0.4307  0.2878
12706TIP3    H159609   2.061   1.093  15.878  1.8639  1.9604 -1.3997
12706TIP3    H259610   2.050   1.190  15.993  1.1494  1.5195 -1.0904
12707TIP3   OH259611   2.745   4.662   3.898  0.0128  0.4449  0.0245
12707TIP3    H159612   2.724   4.570   3.915  2.9807 -0.2321  0.4635
12707TIP3    H259613   2.754   4.668   3.803  0.5213  0.0881  0.0454
12708TIP3   OH259614   1.895   4.905  12.867  0.3248 -0.0381 -0.2033
12708TIP3    H159615   1.989   4.889  12.871  0.5047  1.2110  1.1894
12708TIP3    H259616   1.858   4.853  12.938  0.1087  0.3051 -0.0595
12709TIP3   OH259617   5.377   0.035   0.822 -0.4495 -0.1083  0.2158
12709TIP3    H159618   5.348   0.052   0.912 -0.1961  0.2155  0.2392
12709TIP3    H259619   5.468   0.007   0.832 -0.4550 -0.1780  0.0677
12710TIP3   OH259620   0.854   2.002  15.248 -0.8925  0.1098  0.2218
12710TIP3    H159621   0.765   2.024  15.277 -0.1520  0.1376  2.5643
12710TIP3    H259622   0.900   2.086  15.246 -0.0492 -0.2855  2.1539
12711TIP3   OH259623   5.380   0.189   4.885 -0.4959  0.1336 -0.4302
12711TIP3    H159624   5.370   0.227   4.973 -0.0590  0.7719 -0.6541
12711TIP3    H259625   5.291   0.168   4.858 -0.6409  0.0107  0.1358
12712TIP3   OH259626   5.646   0.822  12.513  0.2174 -0.3662  0.6148
12712TIP3    H159627   5.709   0.849  12.580  2.9835 -2.4556 -1.0538
12712TIP3    H259628   5.671   0.871  12.435 -1.1390 -0.1519  0.2994
12713TIP3   OH259629   0.150   1.687   3.621  0.3415  0.0793  0.1070
12713TIP3    H159630   0.137   1.667   3.528  1.2414  0.7819 -0.1772
12713TIP3    H259631   0.237   1.654   3.641 -0.5822 -1.7956  1.2096
12714TIP3   OH259632   3.762   2.920   0.651  0.1183  0.0356  0.2416
12714TIP3    H159633   3.754   2.996   0.592  0.3584 -0.9713 -1.1188
12714TIP3    H259634   3.681   2.922   0.703  1.2179  2.6211  1.9352
12715TIP3   OH259635   2.424   2.978   5.970  0.2014  0.3550 -0.1885
12715TIP3    H159636   2.498   2.985   6.030  1.2037  0.5497 -1.4283
12715TIP3    H259637   2.438   3.048   5.906 -0.6637 -0.0619 -0.8498
12716TIP3   OH259638   6.650   2.085  13.243  0.6898  0.2818 -0.1281
12716TIP3    H159639   6.588   2.015  13.263  0.5099  0.6310  0.5647
12716TIP3    H259640   6.699   2.054  13.167  1.1116 -0.8916  0.6286
12717TIP3   OH259641   2.396   3.707  17.013  0.5560  0.1865  0.3107
12717TIP3    H159642   2.328   3.709  16.945 -1.3918 -0.1147  2.2219
12717TIP3    H259643   2.382   3.788  17.062  1.6005  0.1202  0.7122
12718TIP3   OH259644   4.223   2.543  12.134  0.5361  0.1945 -0.0158
12718TIP3    H159645   4.131   2.561  12.152 -0.2231 -2.6004 -0.9572
12718TIP3    H259646   4.259   2.629  12.113 -2.1435  1.1827 -0.8667
12719TIP3   OH259647   0.030   5.798   6.002  0.3172  0.0365  0.4238
12719TIP3    H159648  -0.060   5.780   5.975  0.1634  0.1995  0.8322
12719TIP3    H259649   0.023   5.869   6.066  0.5589 -1.3088  1.9667
12720TIP3   OH259650   1.804   3.250  16.669 -0.2074  0.4309  0.4507
12720TIP3    H159651   1.795   3.192  16.744 -1.2833  0.8941  0.7005
12720TIP3    H259652   1.874   3.311  16.693  1.1583 -0.9556  0.0509
12721TIP3   OH259653   5.932   2.981   4.630 -0.6237  0.2768 -0.0473
12721TIP3    H159654   5.987   2.940   4.564 -1.3784 -0.6198 -0.1306
12721TIP3    H259655   5.992   3.033   4.683  0.3206 -0.7992 -0.0564
12722TIP3   OH259656   1.732   6.751   2.810 -0.7222  0.2450  0.1099
12722TIP3    H159657   1.660   6.775   2.868  0.2622  0.1003  1.4094
12722TIP3    H259658   1.728   6.815   2.739 -0.7297  1.6652  1.3591
12723TIP3   OH259659   5.225   2.447   2.174  0.5867 -0.3666 -0.6644
12723TIP3    H159660   5.206   2.431   2.082  0.4151 -2.9617 -0.1973
12723TIP3    H259661   5.152   2.501   2.205  0.4202  0.1301 -1.9173
12724TIP3   OH259662   2.974   3.155  15.917  0.2922  0.1217 -0.1516
12724TIP3    H159663   3.067   3.176  15.930  0.1502  0.4326  0.3715
12724TIP3    H259664   2.928   3.214  15.976 -0.2727  0.3808 -0.8506
12725TIP3   OH259665   6.135   2.157   5.527 -0.0385  0.7100  0.0474
12725TIP3    H159666   6.081   2.172   5.605  0.4829  1.1370  0.3254
12725TIP3    H259667   6.167   2.243   5.503 -0.1368  0.5666 -0.6006
12726TIP3   OH259668   1.916   5.450  15.439 -0.4099  0.5408  0.4796
12726TIP3    H159669   1.999   5.452  15.486 -1.2780  2.5897  2.0294
12726TIP3    H259670   1.940   5.458  15.346  1.1744 -0.5440  0.7836
12727TIP3   OH259671   1.267   4.722  11.530  0.3664 -0.6703 -0.0164
12727TIP3    H159672   1.355   4.727  11.567  0.3206  0.4968 -0.0466
12727TIP3    H259673   1.219   4.667  11.592  0.4081  0.8805  1.4415
12728TIP3   OH259674   3.404   0.755   2.936  0.0519 -0.0427  0.1695
12728TIP3    H159675   3.331   0.738   2.877 -0.4685  1.4058  0.3616
12728TIP3    H259676   3.403   0.850   2.949  0.5906 -0.2510  1.9447
12729TIP3   OH259677   0.741   3.511   6.746 -0.3472 -0.0780  0.5175
12729TIP3    H159678   0.690   3.540   6.821 -0.5586 -2.8350  1.5225
12729TIP3    H259679   0.696   3.547   6.670 -1.1479  1.2889  1.6246
12730TIP3   OH259680   6.742   4.565   3.480 -0.0635  0.4517 -0.6257
12730TIP3    H159681   6.682   4.560   3.555 -0.5306  0.1100 -1.0118
12730TIP3    H259682   6.718   4.647   3.436 -0.6204  0.0514 -1.0812
12731TIP3   OH259683   1.301   3.394  16.673 -0.1229  0.3914  0.1106
12731TIP3    H159684   1.299   3.464  16.739  1.3540  2.0350 -1.5132
12731TIP3    H259685   1.390   3.398  16.637 -0.1698 -2.0623 -0.3096
12732TIP3   OH259686   5.935   5.441  10.551  0.7612  0.8288 -0.3098
12732TIP3    H159687   5.857   5.387  10.537  0.4470  1.2815 -0.3060
12732TIP3    H259688   5.901   5.524  10.584  1.3231  0.6241  0.8070
12733TIP3   OH259689   2.000   4.692  13.843  0.0119  0.7216 -0.6295
12733TIP3    H159690   1.954   4.736  13.771  1.2738  0.6209 -1.5035
12733TIP3    H259691   2.084   4.737  13.850 -0.1523  0.8223  0.8941
12734TIP3   OH259692   0.379   4.519  14.202 -0.3617  0.5536 -0.6096
12734TIP3    H159693   0.426   4.436  14.200 -1.7055 -0.2910  0.9650
12734TIP3    H259694   0.448   4.586  14.196  0.7826 -0.6639 -1.2507
12735TIP3   OH259695   3.957   6.446  11.927  0.1420  0.0503  0.0890
12735TIP3    H159696   3.936   6.381  11.859 -1.5843  2.2650 -1.5499
12735TIP3    H259697   4.052   6.441  11.936  0.3396 -0.6841 -2.1148
12736TIP3   OH259698   3.855   0.644   2.253 -0.2504 -0.2420 -0.0617
12736TIP3    H159699   3.910   0.615   2.325 -0.4825  0.0181  0.2206
12736TIP3    H259700   3.799   0.569   2.234  1.1831 -1.0392 -1.3234
12737TIP3   OH259701   3.513   4.666   5.027 -0.0745 -0.0207  0.0290
12737TIP3    H159702   3.425   4.699   5.046 -0.3341 -0.2088 -0.8345
12737TIP3    H259703   3.499   4.588   4.975  0.6254  0.3723 -0.7711
12738TIP3   OH259704   1.154   4.627  12.869 -0.2297  0.1978  0.3849
12738TIP3    H159705   1.213   4.556  12.893  0.9747  0.8546 -0.6051
12738TIP3    H259706   1.203   4.707  12.888 -0.7016  0.7445 -0.6691
12739TIP3   OH259707   2.743   0.148   6.765 -0.0850 -0.3554  0.2184
12739TIP3    H159708   2.651   0.121   6.768 -0.0152 -0.5362  0.7826
12739TIP3    H259709   2.744   0.221   6.704 -0.7611  0.2647  0.9345
12740TIP3   OH259710   1.174   5.135   1.263 -0.1231  0.0602 -0.0226
12740TIP3    H159711   1.257   5.137   1.216  0.0220  0.8767  0.2450
12740TIP3    H259712   1.192   5.181   1.345 -0.3646 -1.3667  0.8515
12741TIP3   OH259713   0.991   0.119  17.261  0.1698 -0.4941 -0.6091
12741TIP3    H159714   1.022   0.177  17.191 -0.0534  0.6782  0.2638
12741TIP3    H259715   0.970   0.037  17.215 -4.3574  1.6642 -2.7247
12742TIP3   OH259716   2.747   2.693  14.477 -0.0710 -0.4772  0.0369
12742TIP3    H159717   2.704   2.758  14.422  0.4986  0.2605  0.4609
12742TIP3    H259718   2.734   2.610  14.431 -1.0921 -0.1161 -0.3352
12743TIP3   OH259719   6.229   3.972  16.306 -0.1716 -0.0731  0.0688
12743TIP3    H159720   6.161   4.040  16.312 -0.7132 -0.6454  0.5108
12743TIP3    H259721   6.198   3.902  16.364 -0.1014 -1.1104 -1.1115
12744TIP3   OH259722   2.008   1.644   0.975  0.7421 -0.1931  0.0651
12744TIP3    H159723   2.023   1.615   1.065 -0.4801  1.4351  0.8131
12744TIP3    H259724   2.070   1.716   0.962  0.7220 -0.2400 -0.3046
12745TIP3   OH259725   0.870   1.096   4.390 -0.9885  0.3022  0.1593
12745TIP3    H159726   0.930   1.059   4.454 -1.0175  1.0014  0.5986
12745TIP3    H259727   0.820   1.021   4.357  2.0936 -0.7492 -2.3369
12746TIP3   OH259728   2.976   6.562  14.810  0.3418  0.3299  0.4438
12746TIP3    H159729   3.056   6.565  14.863 -1.0303  1.6575  2.4900
12746TIP3    H259730   2.918   6.503  14.858  0.0851 -0.6693 -1.0586
12747TIP3   OH259731   5.037   4.255   5.958  0.0466  0.3446  0.5408
12747TIP3    H159732   5.075   4.257   6.045 -1.9164  2.5874  1.3871
12747TIP3    H259733   4.957   4.204   5.967 -1.0158  1.9454  0.4558
12748TIP3   OH259734   5.347   2.081   2.214 -0.3347 -0.2861  0.1899
12748TIP3    H159735   5.311   2.170   2.212 -0.9071 -0.5381 -1.9517
12748TIP3    H259736   5.287   2.032   2.269 -1.3446  0.1157 -0.5407
12749TIP3   OH259737   1.757   3.108  16.433 -0.2533  0.7746  0.1838
12749TIP3    H159738   1.767   3.146  16.520 -0.1870  1.8006 -0.2756
12749TIP3    H259739   1.686   3.044  16.444 -1.0653  1.7541  0.7029
12750TIP3   OH259740   3.873   1.923   4.375  0.2637 -0.0029 -0.4294
12750TIP3    H159741   3.840   2.013   4.379  0.9376  0.2161  0.3803
12750TIP3    H259742   3.898   1.911   4.284  1.0908  0.9779 -0.3510
12751TIP3   OH259743   4.632   5.217   4.711  0.0021 -0.5266  0.7347
12751TIP3    H159744   4.542   5.218   4.677 -0.2766  2.2796  1.4422
12751TIP3    H259745   4.677   5.288   4.663  1.8652 -1.9224  0.3587
12752TIP3   OH259746   6.088   5.003   4.383  0.1593 -0.2028  0.2634
12752TIP3    H159747   6.147   5.044   4.320 -1.0340 -0.9511 -1.3734
12752TIP3    H259748   6.012   5.062   4.386 -0.0477 -0.4868  0.5457
12753TIP3   OH259749   3.720   3.725   5.515  0.2253  0.1095  0.0244
12753TIP3    H159750   3.685   3.770   5.438 -1.1625 -1.3576 -0.2196
12753TIP3    H259751   3.673   3.642   5.518  0.0269  0.2713  2.6505
12754TIP3   OH259752   3.818   0.134  14.602  0.4083 -0.4676  0.1139
12754TIP3    H159753   3.803   0.123  14.508  0.7502 -0.9324  0.1161
12754TIP3    H259754   3.898   0.086  14.620 -0.7471 -2.1025  1.0226
12755TIP3   OH259755   4.015   4.435   1.514 -0.4745 -0.4375 -0.0467
12755TIP3    H159756   4.014   4.475   1.428  1.2290 -2.5380 -1.0864
12755TIP3    H259757   4.077   4.487   1.564 -1.5891  0.8848 -0.0005
12756TIP3   OH259758   5.714   3.023   0.830  0.5349  0.4055  0.5260
12756TIP3    H159759   5.621   3.039   0.847  0.5450 -0.4330  1.3826
12756TIP3    H259760   5.716   2.940   0.782  0.8543  0.2803  0.7531
12757TIP3   OH259761   3.782   1.092  15.150  0.1144 -0.3457 -0.5197
12757TIP3    H159762   3.708   1.041  15.183 -1.4808  2.7416  0.9501
12757TIP3    H259763   3.858   1.060  15.200 -0.8596 -1.2232  0.4209
12758TIP3   OH259764   2.932   3.604   5.387  0.0674  0.6722 -0.1463
12758TIP3    H159765   2.906   3.540   5.453  1.1609  0.0053 -0.3429
12758TIP3    H259766   2.940   3.686   5.435 -0.6445  0.5177  0.2485
12759TIP3   OH259767   6.319   2.472  14.449  0.1882  0.1508  0.2209
12759TIP3    H159768   6.235   2.516  14.435  0.6599  0.6549 -1.0824
12759TIP3    H259769   6.353   2.458  14.361 -0.3006 -3.5441  0.5508
12760TIP3   OH259770   4.014   0.283  15.322 -0.6609 -0.4241 -0.3285
12760TIP3    H159771   3.941   0.274  15.260  0.3398  1.1587 -1.7675
12760TIP3    H259772   3.972   0.290  15.407 -2.1550 -0.6541 -1.0307
12761TIP3   OH259773   4.048   2.395  14.006 -0.5938 -0.1154 -0.0627
12761TIP3    H159774   3.968   2.435  14.041 -0.3699  2.5823 -2.3788
12761TIP3    H259775   4.118   2.454  14.035 -0.0355  0.2089 -1.9893
12762TIP3   OH259776   3.089   2.163  15.300 -0.2275  0.7721 -0.7921
12762TIP3    H159777   3.122   2.080  15.267 -0.0557  0.7623 -0.5974
12762TIP3    H259778   3.111   2.226  15.231  0.0059  0.7278 -0.7607
12763TIP3   OH259779   2.785   3.977   6.019 -0.3604 -0.0843 -0.4836
12763TIP3    H159780   2.868   4.025   6.008  0.2714 -1.2781 -1.0613
12763TIP3    H259781   2.762   3.991   6.111  0.6948 -0.0503 -0.2122
12764TIP3   OH259782   0.658   4.590   5.173 -0.1458 -0.8917 -0.3270
12764TIP3    H159783   0.674   4.500   5.201 -0.2891 -0.8414 -0.0831
12764TIP3    H259784   0.567   4.591   5.144 -1.3691  0.0539  3.2491
12765TIP3   OH259785   0.366   5.706  15.042 -0.4576  0.1064 -0.1335
12765TIP3    H159786   0.324   5.766  14.980 -0.5698  1.0978  0.8795
12765TIP3    H259787   0.457   5.733  15.044  0.0659 -1.4969 -1.6863
12766TIP3   OH259788   4.377   4.342   4.768 -0.7685 -0.3173 -0.3176
12766TIP3    H159789   4.462   4.381   4.789 -0.4938 -1.3957  0.5943
12766TIP3    H259790   4.323   4.417   4.743 -0.4553  0.7878  2.1468
12767TIP3   OH259791   2.468   5.978   1.892 -0.5232  0.0719 -0.6674
12767TIP3    H159792   2.494   5.957   1.802  0.2655  1.0332 -0.6682
12767TIP3    H259793   2.424   6.063   1.885 -2.4179 -0.8553 -0.4540
12768TIP3   OH259794   1.190   6.346   0.091  0.0316  0.3244  0.0210
12768TIP3    H159795   1.268   6.401   0.084  0.6400 -0.6773 -1.3777
12768TIP3    H259796   1.216   6.263   0.050 -1.6211 -0.1681 -0.0517
12769TIP3   OH259797   6.167   4.336   5.356  0.2480 -0.0365 -0.1496
12769TIP3    H159798   6.177   4.395   5.430 -0.2907  0.7949 -0.7334
12769TIP3    H259799   6.080   4.298   5.366  0.6086 -0.7814  0.2476
12770TIP3   OH259800   0.668   3.242   4.488  0.7426 -0.3001  0.1081
12770TIP3    H159801   0.604   3.311   4.472  0.8275 -0.1289  0.5146
12770TIP3    H259802   0.748   3.273   4.445  0.7387 -0.2139  0.1633
12771TIP3   OH259803   3.725   6.584  16.011 -0.2699 -0.4332 -0.0870
12771TIP3    H159804   3.683   6.565  16.095  0.2285  0.8504  0.4745
12771TIP3    H259805   3.758   6.674  16.021  2.1900 -1.2221 -0.6509
12772TIP3   OH259806   6.023   1.067   1.783  0.4752 -0.4313  0.8015
12772TIP3    H159807   6.074   0.987   1.795  1.5028  0.0989  0.0561
12772TIP3    H259808   6.084   1.138   1.802 -0.0605  0.2092  0.1930
12773TIP3   OH259809   1.369   4.071  13.711  0.9742  0.1385  0.2558
12773TIP3    H159810   1.441   4.018  13.747  0.7118 -0.4439 -0.0690
12773TIP3    H259811   1.392   4.161  13.734  1.5351 -0.0941  0.6299
12774TIP3   OH259812   5.939   5.489   4.116 -0.0695  0.7878 -0.5605
12774TIP3    H159813   5.930   5.524   4.027  1.5897  2.8926  0.0619
12774TIP3    H259814   6.029   5.458   4.122 -0.3230  0.1647  0.2299
12775TIP3   OH259815   0.531   1.300   2.740  0.0456 -0.1976 -0.3781
12775TIP3    H159816   0.460   1.279   2.801  0.2257 -2.4354 -0.9199
12775TIP3    H259817   0.487   1.333   2.662 -0.4245 -1.8723 -0.8286
12776TIP3   OH259818   2.072   2.408   4.222  0.5732  0.4767  0.1435
12776TIP3    H159819   2.063   2.372   4.133 -1.2441  1.8081 -0.2524
12776TIP3    H259820   2.073   2.503   4.208  0.3235  0.6878  1.5411
12777TIP3   OH259821   5.544   4.394  12.491 -0.1857 -0.9100  0.2136
12777TIP3    H159822   5.568   4.327  12.426  2.2216 -0.4359  0.5611
12777TIP3    H259823   5.451   4.380  12.506 -0.3674 -2.2874 -1.9102
12778TIP3   OH259824   2.723   3.250  12.014 -0.0110  0.9805  0.1364
12778TIP3    H159825   2.793   3.248  12.079  0.0208  1.3550  0.1122
12778TIP3    H259826   2.642   3.257  12.065 -0.0304  0.6231  0.1607
12779TIP3   OH259827   2.758   4.747   6.005 -0.4257 -0.3459  0.4110
12779TIP3    H159828   2.753   4.678   5.938 -2.6222 -0.1607  0.3584
12779TIP3    H259829   2.739   4.701   6.087  1.7666 -0.4765  0.8762
12780TIP3   OH259830   3.029   1.277   0.661 -0.2045  0.0905  0.2960
12780TIP3    H159831   3.096   1.211   0.677 -1.1696 -0.0898  4.0612
12780TIP3    H259832   2.948   1.237   0.693 -1.3627  1.9310 -0.2735
12781TIP3   OH259833   5.708   2.746  13.645  0.7867 -0.5518  0.0219
12781TIP3    H159834   5.647   2.819  13.637  0.8160 -0.5882 -0.5463
12781TIP3    H259835   5.750   2.759  13.729  1.1333  0.3568 -0.2898
12782TIP3   OH259836   4.751   2.570   6.216  0.5371  0.3405 -0.1973
12782TIP3    H159837   4.718   2.505   6.278  0.4553  1.2779  0.7504
12782TIP3    H259838   4.673   2.607   6.175  0.6062 -0.5474 -1.1498
12783TIP3   OH259839   2.848   2.427  15.322  0.3267  0.5877  0.6708
12783TIP3    H159840   2.787   2.433  15.396  1.0795  2.4033  1.1573
12783TIP3    H259841   2.934   2.416  15.362  0.2582 -3.2044 -0.0282
12784TIP3   OH259842   3.979   5.903  12.985 -0.6405  0.3351  0.5461
12784TIP3    H159843   4.050   5.935  13.040 -0.7124 -0.5107  1.1309
12784TIP3    H259844   3.948   5.981  12.938  0.2708  0.8136  0.7309
12785TIP3   OH259845   4.738   3.560   2.641  0.1465 -0.9325  0.0468
12785TIP3    H159846   4.713   3.632   2.699  0.2125  0.0874 -1.1581
12785TIP3    H259847   4.808   3.515   2.687 -0.6230 -0.8646  1.2890
12786TIP3   OH259848   2.122   1.875  16.518  0.5910  0.1899 -0.4839
12786TIP3    H159849   2.105   1.784  16.543  0.2745 -0.0838 -1.6771
12786TIP3    H259850   2.217   1.878  16.502  0.4607 -0.1628 -1.3498
12787TIP3   OH259851   6.750   1.828   1.857  0.1838  0.6195 -0.0864
12787TIP3    H159852   6.803   1.892   1.810 -0.6593  1.6195  0.3168
12787TIP3    H259853   6.663   1.866   1.861 -0.4199 -0.7113 -0.1553
12788TIP3   OH259854   0.844   4.677   3.386  0.5690  0.2247 -0.2189
12788TIP3    H159855   0.810   4.749   3.441  0.6896  0.9460 -1.0777
12788TIP3    H259856   0.796   4.685   3.304  1.5391  0.1533 -0.8023
12789TIP3   OH259857   6.028   6.767  14.894 -0.0057 -0.3598  0.5294
12789TIP3    H159858   6.023   6.688  14.840  0.1538  0.9884 -1.5262
12789TIP3    H259859   5.955   6.759  14.955 -1.8594 -0.6797 -1.6587
12790TIP3   OH259860   5.385   3.601  16.628  0.4496  0.5803 -0.1672
12790TIP3    H159861   5.333   3.679  16.643  0.5261  0.5571  0.2146
12790TIP3    H259862   5.322   3.533  16.605  0.4797  1.0500 -1.6737
12791TIP3   OH259863   0.706   0.183   2.349  0.0664 -0.1039  0.0847
12791TIP3    H159864   0.660   0.111   2.394  1.1288  0.3294  1.9245
12791TIP3    H259865   0.757   0.140   2.281 -0.5856 -0.9313  0.1040
12792TIP3   OH259866   6.060   0.207   1.476 -0.4352  0.6627 -0.2384
12792TIP3    H159867   6.012   0.197   1.394 -1.0764 -0.3251  0.2380
12792TIP3    H259868   6.096   0.120   1.492  1.2744  1.3293 -0.4370
12793TIP3   OH259869   6.340   2.156  13.041 -0.0324 -0.9825 -0.2120
12793TIP3    H159870   6.351   2.087  12.976 -2.6626 -1.6046 -0.0509
12793TIP3    H259871   6.430   2.179  13.067  1.0426 -1.0920 -3.6230
12794TIP3   OH259872   0.551   6.397   1.105  0.0217  0.2581  0.0857
12794TIP3    H159873   0.623   6.334   1.111  0.5938  0.7076 -1.7464
12794TIP3    H259874   0.560   6.435   1.018 -2.5460  0.1986 -0.2259
12795TIP3   OH259875   5.735   4.072  15.745  0.2183  0.7386 -0.1937
12795TIP3    H159876   5.732   4.038  15.656 -1.5363 -0.1222  0.1687
12795TIP3    H259877   5.693   4.005  15.798 -0.0926  1.9012  1.0657
12796TIP3   OH259878   6.174   0.907  11.438  0.2075 -0.4068 -0.0681
12796TIP3    H159879   6.214   0.830  11.397 -0.5152 -0.8217  0.0108
12796TIP3    H259880   6.084   0.907  11.406  0.2365  0.4697 -0.1547
12797TIP3   OH259881   2.236   6.625  16.239  0.4681 -0.7640  0.3640
12797TIP3    H159882   2.301   6.565  16.203 -0.5312 -1.3280 -0.5435
12797TIP3    H259883   2.187   6.655  16.163 -0.5453 -0.6081  1.0720
12798TIP3   OH259884   5.092   6.408   5.211  0.2516  0.0336 -0.5686
12798TIP3    H159885   5.057   6.497   5.210 -0.8034 -0.3720 -0.0336
12798TIP3    H259886   5.178   6.416   5.251 -0.0176  0.7433 -0.1361
12799TIP3   OH259887   0.647   4.776  10.932 -0.2622  0.2834  0.2065
12799TIP3    H159888   0.633   4.864  10.968 -1.5758 -0.5916  1.8779
12799TIP3    H259889   0.719   4.741  10.984  0.4960  0.4865 -0.6957
12800TIP3   OH259890   2.784   3.183  13.865  0.2619  0.2385 -0.0051
12800TIP3    H159891   2.832   3.128  13.927 -0.3227  0.4822  0.6830
12800TIP3    H259892   2.743   3.250  13.921  0.4927  1.0229 -0.7610
12801TIP3   OH259893   6.167   3.736  13.249 -0.0804  0.1864 -0.3605
12801TIP3    H159894   6.140   3.650  13.217  0.1228  0.3229 -0.8937
12801TIP3    H259895   6.120   3.745  13.332 -0.4874 -0.2323 -0.5360
12802TIP3   OH259896   1.541   2.587  12.597 -0.2830  0.0088  0.0534
12802TIP3    H159897   1.471   2.527  12.570  0.1079  0.1943 -1.4212
12802TIP3    H259898   1.496   2.653  12.651 -1.5620  0.9825 -2.1039
12803TIP3   OH259899   2.343   5.779   3.359 -0.7483 -0.0236 -0.1666
12803TIP3    H159900   2.394   5.834   3.418 -1.2188  2.9283 -2.4027
12803TIP3    H259901   2.253   5.786   3.391 -0.6813 -0.1680  0.0521
12804TIP3   OH259902   0.787   2.913   3.372 -0.1767  0.2783  0.6322
12804TIP3    H159903   0.731   2.847   3.331 -0.3026 -0.6714  2.3303
12804TIP3    H259904   0.863   2.864   3.404 -0.5366  0.8525  2.4139
12805TIP3   OH259905   4.347   1.765  11.721  0.2709 -0.3567  0.0995
12805TIP3    H159906   4.372   1.672  11.723 -0.2712 -0.4961  1.6390
12805TIP3    H259907   4.408   1.807  11.782  1.1207  0.4698 -1.3074
12806TIP3   OH259908   6.309   6.769  15.010  0.1571  0.4495 -0.6306
12806TIP3    H159909   6.216   6.781  14.992  0.0771 -0.0215 -0.5400
12806TIP3    H259910   6.323   6.675  15.000  0.5397  0.4664 -0.2614
12807TIP3   OH259911   6.343   4.442   2.479 -0.1633  0.3818 -0.7277
12807TIP3    H159912   6.291   4.416   2.404 -1.2562  0.4170  0.0026
12807TIP3    H259913   6.281   4.443   2.552  0.7875  0.7569  0.0911
12808TIP3   OH259914   5.124   6.366  16.594 -0.0489 -0.5477 -0.9938
12808TIP3    H159915   5.151   6.458  16.593  1.0483 -0.8234  1.0703
12808TIP3    H259916   5.206   6.317  16.603 -0.7697 -1.6355 -0.2834
12809TIP3   OH259917   0.589   2.064   4.401 -0.2948 -0.4239 -0.8493
12809TIP3    H159918   0.634   2.010   4.335 -1.5769  0.3647 -2.4139
12809TIP3    H259919   0.562   2.143   4.353  2.8995  2.4066  1.7282
12810TIP3   OH259920   1.125   4.241  14.869 -0.8186  0.2575 -0.0421
12810TIP3    H159921   1.197   4.291  14.829 -0.2024 -0.3083  0.3479
12810TIP3    H259922   1.051   4.254  14.810 -0.5762  1.3727 -0.1140
12811TIP3   OH259923   0.911   5.589   4.059  0.9033 -0.2463  0.0326
12811TIP3    H159924   0.996   5.627   4.082 -0.3744  1.7683  1.6190
12811TIP3    H259925   0.890   5.627   3.974  1.6923 -0.9565 -0.4895
12812TIP3   OH259926   2.731   2.931  12.445 -0.3677 -0.5492 -0.1686
12812TIP3    H159927   2.683   2.878  12.509 -0.9915 -0.6411 -0.7151
12812TIP3    H259928   2.771   3.000  12.497 -0.9737 -0.5564  0.3081
12813TIP3   OH259929   6.690   4.444   0.412  0.6703 -0.2681 -0.5076
12813TIP3    H159930   6.756   4.513   0.409 -0.6086  1.0165  0.1777
12813TIP3    H259931   6.612   4.483   0.371  0.0087 -1.3945 -0.3504
12814TIP3   OH259932   2.710   1.526   1.239  0.0574 -0.2129  0.1092
12814TIP3    H159933   2.698   1.599   1.178 -0.4865  0.3707  0.9204
12814TIP3    H259934   2.754   1.564   1.314 -0.4100 -0.6731  0.6195
12815TIP3   OH259935   5.643   1.699   0.434  0.2950 -0.4828  0.5331
12815TIP3    H159936   5.642   1.725   0.341  0.8735 -0.0729  0.6384
12815TIP3    H259937   5.725   1.651   0.444 -0.0541 -1.0494  0.6973
12816TIP3   OH259938   1.075   6.240  14.740 -0.1697 -0.0978  0.3780
12816TIP3    H159939   1.052   6.315  14.685 -0.6147 -0.1434  0.5043
12816TIP3    H259940   0.997   6.185  14.739  0.2529 -0.6948  0.0671
12817TIP3   OH259941   6.745   0.148  11.461  0.1507 -0.5725  0.4127
12817TIP3    H159942   6.743   0.053  11.463 -0.8719 -0.5704 -0.1326
12817TIP3    H259943   6.837   0.171  11.480  0.5395 -1.6766 -0.1074
12818TIP3   OH259944   5.969   0.641  16.841  0.2211  0.3675  0.1566
12818TIP3    H159945   6.055   0.648  16.800  0.5968  1.4699  1.0921
12818TIP3    H259946   5.912   0.697  16.788 -0.2997 -1.6029 -1.4005
12819TIP3   OH259947   1.928   3.163   5.686 -0.0510  0.0157 -0.7351
12819TIP3    H159948   1.912   3.113   5.766 -1.0658 -1.8518 -2.0742
12819TIP3    H259949   1.856   3.140   5.628  1.3344  0.3926 -2.6542
12820TIP3   OH259950   2.232   2.559   3.614  0.2210  0.2393 -0.6838
12820TIP3    H159951   2.269   2.485   3.567 -1.5076 -0.5325 -0.8682
12820TIP3    H259952   2.258   2.636   3.562  2.1166 -0.1992 -0.4198
12821TIP3   OH259953   4.853   3.064  14.086 -0.3495 -0.1321 -0.5483
12821TIP3    H159954   4.883   3.022  14.167  0.5499 -3.0333 -2.2942
12821TIP3    H259955   4.758   3.059  14.089 -0.2986 -0.7103  0.0887
12822TIP3   OH259956   6.302   1.735   5.026  0.5776  0.0117 -0.1657
12822TIP3    H159957   6.331   1.826   5.027  1.0529 -0.1355  1.3276
12822TIP3    H259958   6.245   1.727   5.103  0.9803 -1.0639  0.0353
12823TIP3   OH259959   2.021   2.506  16.719 -0.1238 -0.3378 -0.2341
12823TIP3    H159960   2.055   2.433  16.666 -0.3088 -0.1997 -0.5463
12823TIP3    H259961   2.095   2.534  16.772  0.3438  0.1958 -1.1679
12824TIP3   OH259962   4.289   4.392  16.439  0.2539  0.2567 -0.3641
12824TIP3    H159963   4.258   4.302  16.427  0.5611  0.2081 -0.7871
12824TIP3    H259964   4.368   4.383  16.492 -0.7496  0.4225  1.1890
12825TIP3   OH259965   4.237   4.041   1.557 -0.1469  0.2348  0.1491
12825TIP3    H159966   4.254   3.951   1.585  0.7171  0.7751  1.3850
12825TIP3    H259967   4.323   4.083   1.558 -0.4334  0.8803 -1.1416
12826TIP3   OH259968   4.419   3.971  16.409  0.5229 -0.0537 -0.2773
12826TIP3    H159969   4.513   3.960  16.424  0.6519  0.2220 -0.8876
12826TIP3    H259970   4.407   3.957  16.315  0.0238  0.4247 -0.2887
12827TIP3   OH259971   2.130   6.072   6.518  0.7749  0.6276 -0.6008
12827TIP3    H159972   2.184   6.121   6.580  0.6798  1.5163 -1.2052
12827TIP3    H259973   2.045   6.064   6.561  0.5353  1.7566 -0.8519
12828TIP3   OH259974   1.944   5.853   0.156  0.3339 -0.4665  0.0602
12828TIP3    H159975   1.890   5.783   0.193 -2.9157  1.4274 -0.8607
12828TIP3    H259976   1.998   5.883   0.229 -3.2056  0.6297  2.3667
12829TIP3   OH259977   3.576   0.726  12.013 -0.5521 -0.2481 -0.3279
12829TIP3    H159978   3.483   0.748  12.023 -0.6882 -1.6510  1.5813
12829TIP3    H259979   3.621   0.810  12.020 -1.5699  0.2727  0.0710
12830TIP3   OH259980   1.088   5.068  14.576  0.3645  0.5702  0.0383
12830TIP3    H159981   1.097   5.086  14.483  0.7677  1.8728  0.3143
12830TIP3    H259982   0.997   5.090  14.596  0.3577  0.5745  0.0017
12831TIP3   OH259983   1.418   3.069  16.020  0.1981  0.2452  0.1194
12831TIP3    H159984   1.396   2.982  15.985 -0.1924 -0.1418  1.3056
12831TIP3    H259985   1.343   3.124  15.996 -0.3290 -0.1545  0.8051
12832TIP3   OH259986   0.927   3.019  12.926 -0.6389 -0.1467  0.0406
12832TIP3    H159987   0.837   3.015  12.959 -0.3538  0.9173  0.9496
12832TIP3    H259988   0.945   3.112  12.918  0.4644 -0.3570  0.0616
12833TIP3   OH259989   2.533   2.309  13.172  0.2566  0.5862  0.6385
12833TIP3    H159990   2.503   2.362  13.246  1.0716  1.3917  0.4013
12833TIP3    H259991   2.627   2.327  13.166  0.7452 -1.5957  1.1334
12834TIP3   OH259992   2.566   3.251   3.668 -0.3663 -0.0446 -0.3180
12834TIP3    H159993   2.504   3.240   3.740  0.4758  2.4855  0.8535
12834TIP3    H259994   2.632   3.311   3.702 -0.6540  2.2846 -3.5863
12835TIP3   OH259995   1.173   5.778  14.599 -0.0977 -0.3310 -0.4271
12835TIP3    H159996   1.260   5.740  14.595 -0.3957 -1.4475  2.8202
12835TIP3    H259997   1.114   5.706  14.575 -0.2576 -0.0338 -0.9483
12836TIP3   OH259998   5.288   1.773  11.135  0.3303  0.1723 -0.3614
12836TIP3    H159999   5.280   1.866  11.157 -4.6552 -0.4855  1.2500
12836TIP3    H260000   5.260   1.768  11.044  1.0137  0.2706 -0.5806
12837TIP3   OH260001   0.551   1.727  15.971  0.8552  0.8147  0.2860
12837TIP3    H160002   0.587   1.638  15.968  1.8260  1.2534 -1.8812
12837TIP3    H260003   0.489   1.730  15.897  0.8734  1.9594  0.3189
12838TIP3   OH260004   4.508   6.468   4.153 -0.1912  0.5256  0.1137
12838TIP3    H160005   4.472   6.489   4.067 -3.4348 -1.8156  0.8099
12838TIP3    H260006   4.474   6.537   4.210  0.1946  0.8785 -0.0827
12839TIP3   OH260007   0.502   0.685  14.742 -0.4784  0.6939 -0.4191
12839TIP3    H160008   0.464   0.705  14.828  1.2678  1.3134  0.2194
12839TIP3    H260009   0.518   0.591  14.745 -2.0319  0.3935 -0.7429
12840TIP3   OH260010   5.810   0.389   3.634 -0.7389 -0.4265 -0.5596
12840TIP3    H160011   5.903   0.391   3.659 -1.2051  1.9270  1.2085
12840TIP3    H260012   5.766   0.350   3.709 -1.2144 -1.1579 -1.2275
12841TIP3   OH260013   5.439   3.714  11.227  0.2769 -0.9260 -0.3395
12841TIP3    H160014   5.473   3.705  11.316  0.4369  0.3070 -0.2754
12841TIP3    H260015   5.500   3.664  11.172  2.2637  1.3441 -0.2423
12842TIP3   OH260016   2.349   0.360   3.122  0.3188 -0.6486 -0.2696
12842TIP3    H160017   2.362   0.380   3.215 -0.4785 -2.0008  0.1372
12842TIP3    H260018   2.257   0.334   3.115  0.2231 -0.0064 -1.5439
12843TIP3   OH260019   6.645   3.900  13.790  0.6330  0.2883  0.1084
12843TIP3    H160020   6.642   3.993  13.809 -0.1627  0.8662 -2.6636
12843TIP3    H260021   6.667   3.895  13.697  0.8608 -2.2927  0.2559
12844TIP3   OH260022   1.537   0.500   4.910 -0.2769 -0.2451  0.3969
12844TIP3    H160023   1.467   0.527   4.970 -0.5476 -2.0280  0.9064
12844TIP3    H260024   1.514   0.541   4.827 -1.4599 -0.0920  0.7927
12845TIP3   OH260025   4.481   3.969  17.023 -0.1469 -0.1183 -0.1961
12845TIP3    H160026   4.513   3.947  17.110  0.8672  0.9529 -0.2883
12845TIP3    H260027   4.398   4.015  17.039  1.0753  1.9633  0.3341
12846TIP3   OH260028   2.139   3.966   1.250 -0.1769 -0.5723 -0.3576
12846TIP3    H160029   2.109   4.042   1.200 -0.8567 -0.4975  0.1471
12846TIP3    H260030   2.234   3.968   1.242 -0.1656  0.5728 -0.0056
12847TIP3   OH260031   1.223   2.739   2.572 -0.2094  0.3233 -0.4993
12847TIP3    H160032   1.221   2.746   2.668 -0.2877 -3.1970 -0.1810
12847TIP3    H260033   1.311   2.708   2.553 -0.5442 -0.0234 -1.4849
12848TIP3   OH260034   5.558   2.356   2.902  0.0533 -0.3327 -0.1180
12848TIP3    H160035   5.512   2.437   2.923  0.1891 -0.2731 -0.0490
12848TIP3    H260036   5.650   2.381   2.898 -0.0769 -0.0895 -1.9966
12849TIP3   OH260037   2.202   5.879  13.391  1.0569 -0.1523  0.2847
12849TIP3    H160038   2.154   5.952  13.431  1.0255 -0.3904  0.6929
12849TIP3    H260039   2.265   5.920  13.333  1.1579  0.2044  0.6466
12850TIP3   OH260040   0.401   2.851   2.508 -0.0078  0.2435  0.0516
12850TIP3    H160041   0.425   2.759   2.517 -0.7608  0.1741  1.5271
12850TIP3    H260042   0.466   2.898   2.560 -0.3204  0.4467  0.2615
12851TIP3   OH260043   5.646   5.736  11.602 -0.3427  0.7536 -0.3311
12851TIP3    H160044   5.603   5.780  11.529 -0.6560  1.3945  0.2322
12851TIP3    H260045   5.668   5.807  11.663  2.5446  0.5872 -1.1122
12852TIP3   OH260046   5.501   6.481  14.157  0.5548  0.3436 -0.3379
12852TIP3    H160047   5.433   6.445  14.213  0.7641  1.1045  0.4130
12852TIP3    H260048   5.577   6.489  14.213  0.2802  2.7432 -0.2437
12853TIP3   OH260049   1.391   6.186   1.743 -0.1946 -0.6109 -0.0604
12853TIP3    H160050   1.356   6.258   1.796  1.0503 -1.6547  2.2763
12853TIP3    H260051   1.318   6.160   1.687 -1.2905  1.1194  0.5075
12854TIP3   OH260052   3.539   3.262   4.188 -0.3697 -0.1249  0.4268
12854TIP3    H160053   3.557   3.174   4.221 -1.3193 -0.0357  1.1672
12854TIP3    H260054   3.519   3.314   4.266  3.4884  1.5826  0.3949
12855TIP3   OH260055   6.486   0.700  13.321 -0.3052 -0.2911 -0.2957
12855TIP3    H160056   6.411   0.652  13.285  1.5639 -2.3644 -1.5479
12855TIP3    H260057   6.539   0.722  13.245  1.4955 -0.8772  0.7440
12856TIP3   OH260058   2.768   2.120  14.546 -0.2230 -0.6358  0.0929
12856TIP3    H160059   2.802   2.107  14.634 -0.4628 -1.2063  0.1036
12856TIP3    H260060   2.710   2.045  14.531  0.3807 -0.9349 -0.8216
12857TIP3   OH260061   6.691   6.354  12.656  0.1055  0.0599  0.2111
12857TIP3    H160062   6.735   6.411  12.593 -0.4502  1.7350  1.3041
12857TIP3    H260063   6.749   6.278  12.663  1.2325  0.8012 -0.7345
12858TIP3   OH260064   2.788   5.650  16.144  0.4273  0.1339  0.4385
12858TIP3    H160065   2.839   5.658  16.225  0.1403 -2.4421  0.8988
12858TIP3    H260066   2.697   5.654  16.174  0.3249  1.3454 -0.0142
12859TIP3   OH260067   3.055   3.456  14.873  0.2177 -0.2968  0.0589
12859TIP3    H160068   2.999   3.499  14.937 -0.0592 -0.5338 -0.0238
12859TIP3    H260069   3.008   3.464  14.791  0.4673 -0.1951 -0.0762
12860TIP3   OH260070   3.584   4.599   2.737 -0.2767  0.4193  0.0201
12860TIP3    H160071   3.591   4.507   2.762 -1.0279  1.1080  2.9084
12860TIP3    H260072   3.505   4.602   2.683 -1.1159 -0.4067  1.1565
12861TIP3   OH260073   3.613   0.560  14.886 -0.9875 -0.1526  0.0753
12861TIP3    H160074   3.611   0.655  14.890 -0.1970 -0.1331  0.1640
12861TIP3    H260075   3.695   0.540  14.840 -0.7578 -0.7997  0.7615
12862TIP3   OH260076   2.509   0.295  16.805 -0.6524  0.0713  0.0541
12862TIP3    H160077   2.436   0.307  16.866 -0.9364  0.5307 -0.3795
12862TIP3    H260078   2.471   0.253  16.729 -0.3512 -0.2284  0.0683
12863TIP3   OH260079   4.539   4.973  12.898 -0.2000  0.0057  0.2383
12863TIP3    H160080   4.538   5.062  12.864 -2.0985 -0.6139 -1.4228
12863TIP3    H260081   4.558   4.918  12.822  1.1279 -1.0199  1.2773
12864TIP3   OH260082   3.822   4.235  16.246 -0.8530  0.0312 -0.8009
12864TIP3    H160083   3.860   4.280  16.321 -1.3360 -0.6745 -0.1192
12864TIP3    H260084   3.897   4.212  16.191 -0.4088 -0.2806 -0.0733
12865TIP3   OH260085   5.583   6.135  14.607  0.4563 -0.4105 -0.5596
12865TIP3    H160086   5.570   6.188  14.529 -0.9353 -1.3033 -0.9505
12865TIP3    H260087   5.533   6.179  14.675  0.0546 -0.7059 -0.6602
12866TIP3   OH260088   3.954   4.786  14.651  0.0831  0.1331 -0.6152
12866TIP3    H160089   4.018   4.723  14.685 -0.5541 -1.5583 -2.4840
12866TIP3    H260090   3.934   4.755  14.563 -2.4793  1.2746 -0.4798
12867TIP3   OH260091   6.511   4.148  14.871 -0.4321  0.3927  0.2091
12867TIP3    H160092   6.418   4.169  14.878 -0.6135 -0.0785 -0.7633
12867TIP3    H260093   6.542   4.146  14.961 -1.2259  1.1809  0.5018
12868TIP3   OH260094   0.964   2.152  13.811  0.1179 -0.1967  1.1072
12868TIP3    H160095   0.874   2.183  13.822  0.7710  0.9189  3.6035
12868TIP3    H260096   1.007   2.173  13.894  3.7241  2.6846 -1.3512
12869TIP3   OH260097   4.636   1.310  12.727  0.4857 -0.1926 -0.0126
12869TIP3    H160098   4.578   1.343  12.659  1.4611  1.6775  0.0514
12869TIP3    H260099   4.719   1.292  12.681  0.6898 -0.3150  0.4032
12870TIP3   OH260100   0.696   5.733  14.512  0.4066 -0.6958 -0.0827
12870TIP3    H160101   0.733   5.801  14.454 -1.3042 -0.2902 -0.7352
12870TIP3    H260102   0.705   5.652  14.462  0.2175 -0.5586 -0.3479
12871TIP3   OH260103   3.825   2.613  15.042 -0.0829 -0.1776 -0.2443
12871TIP3    H160104   3.778   2.674  15.099  0.7733 -0.3976  0.7083
12871TIP3    H260105   3.793   2.633  14.954 -2.5159 -0.7949  0.4471
12872TIP3   OH260106   3.387   2.103  13.124 -0.0512 -0.1006 -0.0409
12872TIP3    H160107   3.475   2.074  13.148  0.6390  0.8907 -1.3311
12872TIP3    H260108   3.352   2.142  13.204  0.7142 -0.4154  0.4540
12873TIP3   OH260109   5.181   2.954  10.888 -0.1887  0.1459 -0.1922
12873TIP3    H160110   5.144   2.938  10.801 -0.8176  1.7022 -0.2171
12873TIP3    H260111   5.272   2.979  10.871  0.5971 -2.5047 -0.1973
12874TIP3   OH260112   5.388   4.916  11.880  0.5710 -0.1821 -0.8361
12874TIP3    H160113   5.472   4.962  11.878  0.2475  0.4370 -0.3245
12874TIP3    H260114   5.410   4.825  11.901  0.8530  0.5891  2.4422
12875TIP3   OH260115   4.852   3.210   0.668 -0.5628  0.2229  0.0815
12875TIP3    H160116   4.803   3.137   0.706 -0.6871  0.1513 -0.2142
12875TIP3    H260117   4.785   3.263   0.623 -0.4630  0.4768  0.2285
12876TIP3   OH260118   0.512   6.166   0.781 -0.0237  0.1329  0.8110
12876TIP3    H160119   0.586   6.135   0.729 -0.2793  1.1882 -0.2239
12876TIP3    H260120   0.508   6.260   0.762 -1.3288  0.1671  1.2171
12877TIP3   OH260121   4.477   0.623   0.768  0.0387 -0.3697 -0.3366
12877TIP3    H160122   4.420   0.623   0.691 -0.1919  1.1086 -0.1833
12877TIP3    H260123   4.458   0.541   0.813  0.2681 -1.3014 -1.9239
12878TIP3   OH260124   5.757   1.270   3.195 -0.1891 -0.5763 -0.5595
12878TIP3    H160125   5.827   1.205   3.200  0.7268  0.4361  0.0464
12878TIP3    H260126   5.801   1.350   3.166 -1.3620 -0.3030 -1.6170
12879TIP3   OH260127   6.068   5.842   1.662  0.0298  0.3404  0.6533
12879TIP3    H160128   6.129   5.797   1.603 -1.6662 -1.5731  0.3043
12879TIP3    H260129   6.111   5.838   1.748  0.9066  0.0226  0.2133
12880TIP3   OH260130   0.051   0.641   0.530  0.1205  0.1398 -0.2319
12880TIP3    H160131   0.130   0.621   0.580  1.1435  0.4860 -1.6867
12880TIP3    H260132   0.059   0.589   0.450 -0.9534  0.4269 -0.5330
12881TIP3   OH260133   4.942   2.962  12.321  0.1912 -0.1886 -0.3625
12881TIP3    H160134   4.906   3.002  12.241 -0.3127 -1.6247 -0.8713
12881TIP3    H260135   5.020   2.915  12.291  0.1165 -0.5584  0.0151
12882TIP3   OH260136   6.392   6.528   2.571  0.2563  0.0162 -0.1559
12882TIP3    H160137   6.446   6.468   2.621  0.1310 -0.5034 -0.6407
12882TIP3    H260138   6.437   6.612   2.577  0.6054 -0.2010  0.2446
12883TIP3   OH260139   2.347   1.010   4.697  0.4623  0.1929 -0.4083
12883TIP3    H160140   2.265   1.059   4.702  0.1154 -0.6134  3.1051
12883TIP3    H260141   2.342   0.963   4.614 -2.9393 -0.3499  0.0359
12884TIP3   OH260142   5.911   4.757  16.962  0.5392  0.5758 -0.0575
12884TIP3    H160143   5.990   4.806  16.985  1.5081 -0.9914  0.0430
12884TIP3    H260144   5.933   4.716  16.878  0.0688 -0.3708  0.2758
12885TIP3   OH260145   4.919   4.114  15.251  0.7466  0.0424  0.1172
12885TIP3    H160146   4.846   4.071  15.208  1.4421 -0.0886 -0.9590
12885TIP3    H260147   4.889   4.204  15.266  0.9826  0.4747 -1.8935
12886TIP3   OH260148   4.851   4.162  13.332  0.6133 -0.1410  0.4488
12886TIP3    H160149   4.807   4.182  13.415 -1.0693 -1.8304 -0.0001
12886TIP3    H260150   4.857   4.067  13.331  1.5581 -0.0716 -0.9142
12887TIP3   OH260151   3.275   1.575  16.926  0.2653 -0.3057 -0.5702
12887TIP3    H160152   3.323   1.657  16.927 -1.7311  0.8825  0.9937
12887TIP3    H260153   3.312   1.524  16.997 -0.8145  0.6369  0.6824
12888TIP3   OH260154   5.243   5.022  10.940  0.0341 -0.3673  0.4047
12888TIP3    H160155   5.170   4.964  10.922  0.0938 -0.7998  1.5377
12888TIP3    H260156   5.270   5.054  10.853 -0.7301 -1.1143 -0.1154
12889TIP3   OH260157   5.679   5.254   2.907 -0.1941  0.1319  0.9942
12889TIP3    H160158   5.688   5.194   2.833  0.5948  1.0101  0.3709
12889TIP3    H260159   5.740   5.220   2.973  1.5173  1.1943 -0.0034
12890TIP3   OH260160   3.836   3.584  12.818  0.5957 -0.1638  1.1207
12890TIP3    H160161   3.931   3.588  12.815  0.7089 -2.8647 -1.0675
12890TIP3    H260162   3.816   3.563  12.909  2.1400 -0.6875  1.3525
12891TIP3   OH260163   6.722   3.453   1.669  0.1706  0.3112 -0.1998
12891TIP3    H160164   6.636   3.413   1.675  0.2836  0.0498 -0.3061
12891TIP3    H260165   6.725   3.514   1.743  0.1117 -0.1038  0.1459
12892TIP3   OH260166   1.959   0.041  15.106 -0.2808 -0.0795 -0.1468
12892TIP3    H160167   2.040   0.090  15.122  0.0923 -0.5827 -0.4872
12892TIP3    H260168   1.889   0.105  15.120  0.1803  0.3896  0.0251
12893TIP3   OH260169   2.084   2.895   5.318  0.1695 -0.2489  0.3339
12893TIP3    H160170   2.095   2.920   5.410  0.7416 -0.4428  0.3190
12893TIP3    H260171   2.089   2.978   5.271  0.7669 -0.2458  0.4003
12894TIP3   OH260172   2.198   5.011   1.888 -0.4592  0.2883  0.6397
12894TIP3    H160173   2.104   5.018   1.871 -0.4502  2.1098  1.1966
12894TIP3    H260174   2.236   4.995   1.802 -1.5668 -4.4373  0.9098
12895TIP3   OH260175   5.160   1.766   2.890 -0.4756 -0.1456 -0.0696
12895TIP3    H160176   5.194   1.696   2.945 -0.2207  0.6882  0.8314
12895TIP3    H260177   5.235   1.823   2.875 -0.5420 -0.3557 -1.2773
12896TIP3   OH260178   6.150   5.368   3.787  0.3222  0.0195 -0.6463
12896TIP3    H160179   6.058   5.347   3.771  0.4879 -1.5016  0.2708
12896TIP3    H260180   6.185   5.389   3.701 -0.7488  0.0571 -1.0814
12897TIP3   OH260181   4.263   1.875  14.167 -0.2277  0.2733 -0.4696
12897TIP3    H160182   4.337   1.845  14.220 -1.0073 -1.2561 -0.2305
12897TIP3    H260183   4.264   1.971  14.177  2.2862  0.3559 -1.2539
12898TIP3   OH260184   5.090   2.659   5.231  0.2782 -0.5575 -0.6840
12898TIP3    H160185   5.018   2.625   5.284  0.0118 -2.5328 -2.2169
12898TIP3    H260186   5.076   2.753   5.229 -0.4697 -0.5838  1.5975
12899TIP3   OH260187   3.174   1.804   0.613  0.7299 -0.0683  0.4872
12899TIP3    H160188   3.158   1.881   0.558  0.3237 -0.3844  0.1530
12899TIP3    H260189   3.200   1.736   0.552 -2.2160 -1.1533  0.3280
12900TIP3   OH260190   0.749   3.422  11.084 -0.2926 -0.4823  0.0329
12900TIP3    H160191   0.711   3.472  11.011  0.8687  0.4596  0.0668
12900TIP3    H260192   0.717   3.467  11.162 -4.2506 -3.4101  0.2726
12901TIP3   OH260193   3.304   6.272   3.373 -0.1261 -0.4175 -0.2297
12901TIP3    H160194   3.216   6.270   3.410  0.1649 -0.6703  0.4471
12901TIP3    H260195   3.320   6.181   3.347  0.4891 -0.6515  0.9501
12902TIP3   OH260196   6.801   5.718   2.958 -0.4998 -0.2806  0.0956
12902TIP3    H160197   6.802   5.761   2.873 -0.7127 -0.4719 -0.0046
12902TIP3    H260198   6.843   5.633   2.944 -0.1939 -0.1590  0.2656
12903TIP3   OH260199   3.527   3.000  11.495  0.5108 -0.2844 -0.1357
12903TIP3    H160200   3.558   3.022  11.407 -1.8481 -0.7984 -1.1451
12903TIP3    H260201   3.475   3.075  11.522 -1.3370 -1.3746 -0.5096
12904TIP3   OH260202   1.581   1.104  15.104 -0.4070 -0.0953  0.1881
12904TIP3    H160203   1.591   1.194  15.136  0.5906  0.2203 -0.9779
12904TIP3    H260204   1.509   1.068  15.156  0.3167  0.8159  1.8923
12905TIP3   OH260205   6.266   5.908  16.322 -0.6792 -0.3148 -0.4411
12905TIP3    H160206   6.351   5.928  16.282 -0.9411 -1.5267 -1.6229
12905TIP3    H260207   6.282   5.827  16.370 -0.6350  0.5863  1.0910
12906TIP3   OH260208   6.501   0.681   5.772  0.0611 -0.4383  0.2615
12906TIP3    H160209   6.553   0.744   5.823  1.6121  1.0618 -3.0635
12906TIP3    H260210   6.564   0.641   5.712 -1.2939 -3.8339  0.9554
12907TIP3   OH260211   1.178   3.627   4.707  0.4695  0.3145 -0.3863
12907TIP3    H160212   1.108   3.566   4.729  1.1156 -0.3026 -0.0338
12907TIP3    H260213   1.216   3.593   4.626  3.1095 -1.7450  1.6369
12908TIP3   OH260214   5.698   5.695   4.965 -0.1308 -0.3072  0.3127
12908TIP3    H160215   5.686   5.672   5.058 -1.8842  0.7637  0.3669
12908TIP3    H260216   5.768   5.760   4.966 -1.0714  0.7095  1.0389
12909TIP3   OH260217   2.848   6.495  16.680 -0.1786 -0.0842  0.1989
12909TIP3    H160218   2.897   6.568  16.717 -1.3827  0.5880  0.5134
12909TIP3    H260219   2.870   6.496  16.587 -0.4505  0.8976  0.1414
12910TIP3   OH260220   6.144   2.793  12.399 -0.1971  0.0642 -0.4122
12910TIP3    H160221   6.221   2.740  12.380 -0.3983 -0.4507  0.1828
12910TIP3    H260222   6.093   2.739  12.459 -1.0650  0.3604 -0.8751
12911TIP3   OH260223   5.304   0.202   3.823  0.1207 -0.1498  0.7564
12911TIP3    H160224   5.220   0.246   3.815  0.4550  1.0005  3.0114
12911TIP3    H260225   5.304   0.167   3.913  2.4120  0.7099  1.1198
12912TIP3   OH260226   0.517   1.485  12.169  0.2648 -0.7771  0.1379
12912TIP3    H160227   0.532   1.437  12.088 -1.6066  0.4132 -0.9587
12912TIP3    H260228   0.580   1.557  12.167  0.4084 -0.9098 -0.1151
12913TIP3   OH260229   0.957   3.894   1.201 -0.3872 -0.0786 -0.3089
12913TIP3    H160230   0.900   3.932   1.134 -0.3544 -1.5912 -1.2231
12913TIP3    H260231   0.897   3.846   1.258 -0.3850  0.9985  0.6198
12914TIP3   OH260232   4.024   5.650  16.655 -0.3069  0.2623 -0.4398
12914TIP3    H160233   3.990   5.568  16.618 -0.6424 -0.7983  2.0774
12914TIP3    H260234   4.045   5.628  16.746  1.5423  2.4569 -0.2749
12915TIP3   OH260235   6.759   3.102   2.452  0.1707  0.5497 -0.2493
12915TIP3    H160236   6.754   3.179   2.395  1.3984  1.1378  0.4273
12915TIP3    H260237   6.836   3.054   2.421  0.3534  0.4341  0.3774
12916TIP3   OH260238   6.122   1.215   4.539  0.2837  0.1457 -0.0756
12916TIP3    H160239   6.195   1.179   4.589 -0.1295  0.3141  0.6671
12916TIP3    H260240   6.146   1.306   4.524  0.6308 -0.0351 -0.6096
12917TIP3   OH260241   6.468   4.578   1.067  0.1700  0.2491 -0.4109
12917TIP3    H160242   6.485   4.487   1.042  0.1590  0.3781 -0.8982
12917TIP3    H260243   6.423   4.572   1.151 -0.6891 -0.2358 -0.8921
12918TIP3   OH260244   6.567   5.830   4.518 -0.2489  0.4310  0.2681
12918TIP3    H160245   6.502   5.844   4.587  0.8711 -2.2354  1.9140
12918TIP3    H260246   6.642   5.791   4.562  0.9528 -0.2777 -2.2783
12919TIP3   OH260247   1.384   5.792   1.310  0.0810  0.1184  0.3076
12919TIP3    H160248   1.328   5.819   1.237  1.8766  2.2488 -0.3290
12919TIP3    H260249   1.334   5.817   1.388 -0.1757  1.3889 -0.2436
12920TIP3   OH260250   2.913   6.789   1.831  0.0219  0.1672 -0.2921
12920TIP3    H160251   2.976   6.852   1.863 -0.1530  1.0300 -1.5870
12920TIP3    H260252   2.847   6.842   1.786 -0.9415 -0.8149 -0.0660
12921TIP3   OH260253   2.292   2.374   1.611  0.1832 -1.0267 -0.3101
12921TIP3    H160254   2.204   2.339   1.628  0.2456 -0.4440  1.2376
12921TIP3    H260255   2.282   2.422   1.528 -0.9012 -1.1476 -0.2677
12922TIP3   OH260256   5.852   5.524  15.466  0.1927  0.6187  0.2445
12922TIP3    H160257   5.941   5.541  15.496  0.4631 -1.0215  0.3756
12922TIP3    H260258   5.844   5.429  15.466 -1.4415  0.7471 -0.1199
12923TIP3   OH260259   5.459   5.481  15.819 -0.0863 -0.2298  0.5009
12923TIP3    H160260   5.495   5.493  15.907  1.0418 -1.2242  0.1874
12923TIP3    H260261   5.536   5.462  15.765 -0.2219  4.3445 -1.4950
12924TIP3   OH260262   2.018   0.986  12.713  0.1772 -0.1460 -0.0208
12924TIP3    H160263   2.073   1.054  12.674  1.3340 -0.3711  1.1675
12924TIP3    H260264   1.938   0.988  12.662 -0.1258  2.6611  0.4827
12925TIP3   OH260265   2.348   2.145  15.089  0.4041  0.3639 -0.1668
12925TIP3    H160266   2.273   2.109  15.136  1.1102 -0.7695  0.1136
12925TIP3    H260267   2.378   2.217  15.143 -0.4422  0.7750 -0.2452
12926TIP3   OH260268   5.431   4.366  10.418  0.0540 -0.8095 -0.5576
12926TIP3    H160269   5.478   4.294  10.460  0.8270 -1.0049 -1.7401
12926TIP3    H260270   5.339   4.337  10.417  0.3353 -1.7131 -0.8823
12927TIP3   OH260271   5.512   4.971   3.572 -0.3236 -0.1137  0.3290
12927TIP3    H160272   5.595   4.942   3.535 -0.9190 -1.1620 -0.2050
12927TIP3    H260273   5.453   4.897   3.559 -2.1999  1.7249 -2.1723
12928TIP3   OH260274   2.208   5.533  15.289  0.2474 -0.5802  0.0357
12928TIP3    H160275   2.195   5.532  15.194  0.1648 -0.9635  0.0494
12928TIP3    H260276   2.279   5.596  15.302  0.9182 -1.2427 -0.3697
12929TIP3   OH260277   4.502   5.303  13.598  0.4375 -0.0614 -0.1298
12929TIP3    H160278   4.479   5.318  13.506  1.7785  0.0848 -0.4463
12929TIP3    H260279   4.467   5.379  13.644 -0.3114 -0.1739 -0.5093
12930TIP3   OH260280   1.616   6.326   3.052 -0.0177  0.0419  0.1136
12930TIP3    H160281   1.587   6.244   3.093  1.2854 -0.5776 -0.1511
12930TIP3    H260282   1.703   6.305   3.016 -0.4805  1.0067 -1.6260
12931TIP3   OH260283   1.676   1.802  15.987  0.9896 -0.3104  0.2124
12931TIP3    H160284   1.737   1.868  16.022 -1.3055  1.1439  1.6071
12931TIP3    H260285   1.665   1.826  15.895 -1.1132  2.3491  1.0944
12932TIP3   OH260286   1.792   4.023  17.138 -0.7195  0.1657 -0.0667
12932TIP3    H160287   1.738   4.097  17.112 -0.1848  0.4445 -0.3932
12932TIP3    H260288   1.813   3.978  17.056 -1.2885 -0.5195  0.1606
12933TIP3   OH260289   4.220   3.689  11.758  0.3124 -0.2283  0.1346
12933TIP3    H160290   4.293   3.629  11.772  0.5821 -0.0270 -0.3940
12933TIP3    H260291   4.219   3.705  11.664  1.3004  1.9251  0.4559
12934TIP3   OH260292   6.315   3.525   4.799 -0.2949  0.1992 -0.4323
12934TIP3    H160293   6.229   3.491   4.825 -0.9592  1.8874 -0.2940
12934TIP3    H260294   6.339   3.476   4.721 -1.9745  0.5496 -1.1907
12935TIP3   OH260295   5.207   6.595  16.897  0.1324  0.3097 -0.6151
12935TIP3    H160296   5.187   6.679  16.938 -2.0567 -0.2747 -0.4274
12935TIP3    H260297   5.144   6.534  16.935  0.0613 -0.8830 -2.5509
12936TIP3   OH260298   6.153   5.284  14.409  0.4088  0.3109  0.0804
12936TIP3    H160299   6.111   5.367  14.385  0.6644  0.4208  0.0012
12936TIP3    H260300   6.237   5.286  14.362  0.5451  0.1427  0.3171
12937TIP3   OH260301   1.125   5.047   2.140  0.0711  0.3968 -0.5465
12937TIP3    H160302   1.173   4.973   2.104  1.7221  0.7319  0.8999
12937TIP3    H260303   1.108   5.023   2.231  0.8102  1.8705  0.0027
12938TIP3   OH260304   0.870   1.389  11.866  0.2791 -0.2344 -0.0552
12938TIP3    H160305   0.821   1.443  11.804  1.1536  0.3977 -0.2114
12938TIP3    H260306   0.945   1.357  11.816  1.1496  0.5283  0.7492
12939TIP3   OH260307   2.993   1.109   4.951 -0.5581 -0.3715 -0.5698
12939TIP3    H160308   2.999   1.126   4.856 -2.0061  1.2917 -0.3800
12939TIP3    H260309   2.925   1.043   4.959  0.1523 -1.1330 -0.7467
12940TIP3   OH260310   5.825   3.400   1.407 -0.3391  0.0111  0.7480
12940TIP3    H160311   5.881   3.473   1.432  0.2101 -0.0283 -0.3887
12940TIP3    H260312   5.744   3.415   1.457 -0.4972  1.7789  0.0175
12941TIP3   OH260313   4.423   6.739   2.958  0.6092 -0.2734 -0.0000
12941TIP3    H160314   4.481   6.743   2.882  0.3849 -1.8086 -0.2888
12941TIP3    H260315   4.458   6.803   3.020  0.5589  1.2745 -1.5562
12942TIP3   OH260316   4.238   5.195   6.005 -0.1338  0.3644  0.1635
12942TIP3    H160317   4.156   5.188   6.055 -0.5579 -1.1234 -0.7113
12942TIP3    H260318   4.209   5.219   5.917  0.3853 -0.1363 -0.1381
12943TIP3   OH260319   6.086   6.401   4.386  0.5291  0.3231  0.5132
12943TIP3    H160320   6.156   6.336   4.377 -0.4106 -0.6234 -0.0006
12943TIP3    H260321   6.007   6.349   4.400  0.2476  1.4180  3.4013
12944TIP3   OH260322   2.421   5.199  13.159  0.1034 -0.2962 -0.0247
12944TIP3    H160323   2.478   5.141  13.211  0.6029  0.1358 -0.0925
12944TIP3    H260324   2.353   5.141  13.125  0.2061 -0.7209  0.4919
12945TIP3   OH260325   1.266   6.064   3.312 -0.0400 -0.1504 -0.3258
12945TIP3    H160326   1.312   5.995   3.359  1.4963  1.3382  0.4179
12945TIP3    H260327   1.180   6.068   3.353  0.5904 -0.2352  1.0361
12946TIP3   OH260328   0.232   1.095   5.919 -0.0966 -0.2566  0.5551
12946TIP3    H160329   0.305   1.085   5.859 -1.1495 -0.0423 -0.8087
12946TIP3    H260330   0.156   1.063   5.870 -0.8896 -0.5927  1.9781
12947TIP3   OH260331   6.617   0.163   4.275 -0.0308  0.4490  0.5400
12947TIP3    H160332   6.657   0.176   4.188 -0.9728 -0.8285 -0.0974
12947TIP3    H260333   6.535   0.118   4.257 -0.1254 -0.0252  2.1339
12948TIP3   OH260334   1.927   5.223  12.996  0.4984  0.0113  0.3451
12948TIP3    H160335   1.937   5.136  12.958 -0.9326 -0.3433  0.7741
12948TIP3    H260336   1.849   5.217  13.051  0.6490  1.4339  0.7351
12949TIP3   OH260337   6.321   0.808  13.500  0.2363 -0.0840 -0.6466
12949TIP3    H160338   6.402   0.774  13.462  0.2103 -0.9331  0.0565
12949TIP3    H260339   6.261   0.733  13.501 -1.3245  1.0298 -3.1913
12950TIP3   OH260340   3.251   3.062  11.871 -0.4858  0.2178  0.2919
12950TIP3    H160341   3.187   3.132  11.882 -3.4846 -2.2083 -1.0283
12950TIP3    H260342   3.242   3.008  11.950 -0.6573 -0.5938 -0.2748
12951TIP3   OH260343   4.533   1.705   5.367  0.1375  0.0757 -0.0520
12951TIP3    H160344   4.501   1.717   5.278  1.3284 -0.6858 -0.5942
12951TIP3    H260345   4.488   1.773   5.418  0.6416  1.5393 -1.5254
12952TIP3   OH260346   3.704   6.145   2.719 -0.1010 -0.4985 -0.0937
12952TIP3    H160347   3.645   6.192   2.660 -0.3419 -0.2435  0.3501
12952TIP3    H260348   3.775   6.207   2.737 -0.9329  0.0630  1.2938
12953TIP3   OH260349   4.954   3.245  13.313 -0.1825  0.4184  0.3236
12953TIP3    H160350   5.010   3.311  13.272  1.1665  0.2841  1.8755
12953TIP3    H260351   4.869   3.287  13.322  0.4283  1.6357  0.4664
12954TIP3   OH260352   3.080   4.342   1.785 -0.2783 -0.0014 -0.1060
12954TIP3    H160353   3.071   4.345   1.690  1.4780 -2.4038 -0.3988
12954TIP3    H260354   3.010   4.283   1.813 -0.4667  0.2959  0.0521
12955TIP3   OH260355   4.998   3.621   0.822  0.1013  0.3661 -0.1236
12955TIP3    H160356   4.939   3.559   0.864  1.3459 -1.0766 -0.4583
12955TIP3    H260357   5.042   3.665   0.894 -0.0075  0.0826  0.1160
12956TIP3   OH260358   0.247   1.818  14.747 -0.0491  0.0978 -0.0017
12956TIP3    H160359   0.169   1.841  14.798 -0.5075 -0.4115 -0.4703
12956TIP3    H260360   0.319   1.820  14.811 -0.7252 -1.1913  0.8286
12957TIP3   OH260361   3.065   1.733  16.468 -0.2572  0.3007 -0.3648
12957TIP3    H160362   3.042   1.657  16.523  1.6702  0.4220  0.6628
12957TIP3    H260363   2.992   1.794  16.480 -1.6914 -1.2401 -0.9658
12958TIP3   OH260364   3.507   4.110   1.426 -0.3315  0.5505  0.3622
12958TIP3    H160365   3.539   4.137   1.340  0.2664 -1.1218  0.0418
12958TIP3    H260366   3.481   4.192   1.468 -1.0967  1.3412 -1.5895
12959TIP3   OH260367   1.202   4.237   3.758  0.3929 -0.2913  0.1629
12959TIP3    H160368   1.132   4.235   3.823  0.6276  0.3249  0.4370
12959TIP3    H260369   1.175   4.303   3.694 -0.1619 -1.3708 -0.7442
12960TIP3   OH260370   4.527   2.464  15.248 -0.1846 -0.2898 -0.2120
12960TIP3    H160371   4.597   2.516  15.287  2.5887 -1.8660 -2.9352
12960TIP3    H260372   4.483   2.425  15.323  1.0204  1.7063  1.6150
12961TIP3   OH260373   4.861   6.459  13.195 -0.1245 -0.1417  0.4252
12961TIP3    H160374   4.799   6.424  13.132 -0.4743 -0.9308  1.1849
12961TIP3    H260375   4.947   6.449  13.154 -0.3594 -0.5570  0.0388
12962TIP3   OH260376   0.868   5.522  15.187 -0.0951 -0.1591 -0.3452
12962TIP3    H160377   0.951   5.515  15.235 -0.7472  2.2347  1.2410
12962TIP3    H260378   0.806   5.470  15.239 -0.0229 -0.3828 -0.4817
12963TIP3   OH260379   6.174   3.332  12.639  0.2051  0.2822 -0.2675
12963TIP3    H160380   6.268   3.345  12.627  0.4244 -1.2346 -0.3146
12963TIP3    H260381   6.154   3.377  12.721  1.3846 -1.1053  0.8234
12964TIP3   OH260382   5.167   1.946   0.812 -0.3153 -0.0381 -0.4249
12964TIP3    H160383   5.101   2.007   0.779 -0.7222 -0.3089 -0.1110
12964TIP3    H260384   5.238   1.952   0.748  0.2786  1.8676  0.3900
12965TIP3   OH260385   3.092   0.085  13.943  0.0152 -0.5929 -0.1334
12965TIP3    H160386   3.138   0.151  13.892 -1.2147  0.2713 -0.1658
12965TIP3    H260387   3.073   0.128  14.026 -2.4181 -0.2363 -0.8337
12966TIP3   OH260388   0.131   4.499   1.818 -0.0444 -0.1007  0.0417
12966TIP3    H160389   0.179   4.575   1.784  0.7990  0.0394  1.4905
12966TIP3    H260390   0.059   4.536   1.868 -1.2365 -0.3020 -1.5132
12967TIP3   OH260391   0.027   5.416  15.812  0.3975 -0.0107  0.9289
12967TIP3    H160392   0.107   5.365  15.820  1.4195  1.4431  0.1715
12967TIP3    H260393   0.015   5.429  15.718  1.5572  3.2612  1.1759
12968TIP3   OH260394   1.801   1.780   0.223  0.3125 -0.2819  0.5087
12968TIP3    H160395   1.869   1.817   0.167  1.5000 -1.1387  1.3715
12968TIP3    H260396   1.725   1.835   0.207  0.7909 -0.1616 -1.5199
12969TIP3   OH260397   5.936   4.208  13.755 -0.8893  0.0651 -0.0050
12969TIP3    H160398   5.933   4.122  13.713 -0.3591  0.0186  0.0579
12969TIP3    H260399   5.915   4.191  13.847 -0.0701 -0.0955  0.1567
12970TIP3   OH260400   6.392   0.451   0.474 -0.7759 -0.5949  0.4309
12970TIP3    H160401   6.435   0.536   0.482 -0.8141 -0.8345  4.2681
12970TIP3    H260402   6.457   0.394   0.434 -0.3346  0.9462 -1.0672
12971TIP3   OH260403   3.658   3.013  12.516 -0.6027  0.0428 -0.1558
12971TIP3    H160404   3.737   3.066  12.503 -1.0505  0.4770 -1.0997
12971TIP3    H260405   3.600   3.038  12.445 -0.6969 -1.9735 -0.8011
12972TIP3   OH260406   0.967   1.577  15.798  0.1253  1.1196  0.5173
12972TIP3    H160407   0.878   1.563  15.831 -0.5724  0.4322 -1.5972
12972TIP3    H260408   1.022   1.526  15.859 -1.5275 -3.5360 -1.6033
12973TIP3   OH260409   0.907   0.361   2.820 -0.1392  0.0450 -0.1546
12973TIP3    H160410   0.914   0.337   2.727 -2.5765 -1.1157 -0.0792
12973TIP3    H260411   0.814   0.382   2.832  0.0866 -0.1733  2.1128
12974TIP3   OH260412   2.702   3.522  14.410  0.1900 -0.1165 -0.9083
12974TIP3    H160413   2.755   3.509  14.489 -1.4047 -0.4647  0.1279
12974TIP3    H260414   2.729   3.451  14.351  0.7867 -0.3509 -0.3545
12975TIP3   OH260415   4.761   5.391  15.316 -0.4612 -0.3702 -0.1203
12975TIP3    H160416   4.809   5.411  15.236  1.1126  0.6430  1.0448
12975TIP3    H260417   4.686   5.339  15.287  0.2233 -0.2337 -2.2038
12976TIP3   OH260418   2.478   0.234   1.401 -0.2480 -0.5440  0.1579
12976TIP3    H160419   2.502   0.178   1.327 -0.0938 -0.7974  0.3986
12976TIP3    H260420   2.419   0.180   1.454  0.9482 -0.9690  1.0889
12977TIP3   OH260421   3.311   3.541  13.727  0.3690 -0.0117 -0.0134
12977TIP3    H160422   3.294   3.506  13.639 -1.5922 -2.2280  1.1716
12977TIP3    H260423   3.405   3.555  13.730  0.5201 -0.3608 -2.3079
12978TIP3   OH260424   3.442   6.732  14.477 -0.0741  0.1528 -0.7916
12978TIP3    H160425   3.372   6.781  14.521  0.6449  0.5192 -0.0448
12978TIP3    H260426   3.460   6.783  14.398 -1.1866 -0.3658 -1.3988
12979TIP3   OH260427   4.876   4.414  12.585 -0.0054 -0.8667 -0.0925
12979TIP3    H160428   4.911   4.471  12.517  1.5354  1.5622  2.6060
12979TIP3    H260429   4.929   4.334  12.580  1.8164  0.3099 -0.1393
12980TIP3   OH260430   0.735   2.359   0.693 -0.1928 -0.3416  0.0922
12980TIP3    H160431   0.740   2.308   0.774  2.3677  1.1318  0.9304
12980TIP3    H260432   0.775   2.302   0.627  0.4161 -0.4036  0.5052
12981TIP3   OH260433   5.660   4.285   5.931 -0.8895 -0.0086 -0.0156
12981TIP3    H160434   5.632   4.376   5.930  0.6299  0.4757 -2.8664
12981TIP3    H260435   5.614   4.245   5.858 -1.1895 -1.4540  0.9294
12982TIP3   OH260436   4.777   4.938  13.164 -0.3399  0.0567  0.4182
12982TIP3    H160437   4.711   4.936  13.095 -0.1850 -1.3603  0.3002
12982TIP3    H260438   4.740   4.885  13.235 -0.4894  1.4790  1.4251
12983TIP3   OH260439   2.903   2.740  12.362 -0.4021  0.4474  0.6977
12983TIP3    H160440   2.843   2.814  12.377 -0.3119  0.4896  0.8452
12983TIP3    H260441   2.990   2.775  12.382 -0.4839 -0.0493  1.9659
12984TIP3   OH260442   6.579   4.890   1.101 -0.1309 -0.5099  0.1407
12984TIP3    H160443   6.559   4.827   1.032  1.3444 -0.7631 -0.0514
12984TIP3    H260444   6.512   4.958   1.092 -0.6223 -1.1196 -0.8067
12985TIP3   OH260445   1.785   2.331   0.123 -0.6806 -0.2231  0.5810
12985TIP3    H160446   1.715   2.354   0.061 -0.8406 -2.3793 -0.0745
12985TIP3    H260447   1.755   2.366   0.207 -1.1869  1.3833 -0.2431
12986TIP3   OH260448   6.340   0.197  16.693  0.1927  0.3012  0.1281
12986TIP3    H160449   6.248   0.172  16.679 -0.5029  2.5913  0.4853
12986TIP3    H260450   6.378   0.122  16.741 -1.3495 -0.8728 -0.4537
12987TIP3   OH260451   0.329   3.190  15.895  0.0962 -0.1775  0.4186
12987TIP3    H160452   0.251   3.135  15.899 -0.8611  1.1305  0.0485
12987TIP3    H260453   0.377   3.169  15.974 -0.0975 -1.7817  0.1253
12988TIP3   OH260454   6.766   4.519   3.801 -0.7221 -0.0734 -0.0533
12988TIP3    H160455   6.766   4.500   3.895 -0.2196 -1.6444 -0.3623
12988TIP3    H260456   6.691   4.471   3.766 -2.0119  1.9680 -0.1946
12989TIP3   OH260457   6.586   4.598  11.470 -0.3449  0.4581 -0.1793
12989TIP3    H160458   6.623   4.634  11.389  0.1448  1.9126  0.6814
12989TIP3    H260459   6.661   4.581  11.526 -0.7407  0.1330  0.2670
12990TIP3   OH260460   6.720   3.866  11.483  0.1175  0.2141  0.2235
12990TIP3    H160461   6.655   3.796  11.485 -0.2937  0.5500 -0.8263
12990TIP3    H260462   6.774   3.851  11.560 -0.1224 -1.1030  0.1446
12991TIP3   OH260463   2.382   6.287  11.903 -0.2580  0.1195 -0.3867
12991TIP3    H160464   2.406   6.351  11.836  0.0519 -0.1029 -0.4864
12991TIP3    H260465   2.295   6.257  11.877 -0.1474  0.0482 -0.6754
12992TIP3   OH260466   4.988   3.203  15.283 -0.1856 -0.0412 -0.5846
12992TIP3    H160467   4.895   3.223  15.270 -0.3300 -0.0664  0.3456
12992TIP3    H260468   5.033   3.286  15.265 -0.5175  0.3456  0.3394
12993TIP3   OH260469   3.225   4.492  16.146  0.4747  0.4243 -0.0964
12993TIP3    H160470   3.261   4.566  16.196  0.6675  0.4080 -0.2133
12993TIP3    H260471   3.226   4.521  16.055 -1.2622  1.0257  0.0516
12994TIP3   OH260472   0.000   6.496  15.808 -0.5520 -0.1196 -0.0951
12994TIP3    H160473   0.023   6.509  15.716 -0.9699 -0.3133 -0.2289
12994TIP3    H260474   0.045   6.415  15.832  3.3867  2.2904  1.1904
12995TIP3   OH260475   1.927   1.739   4.597  0.3601  0.4051 -0.2581
12995TIP3    H160476   1.984   1.748   4.674 -0.5361  1.7270  0.2583
12995TIP3    H260477   1.984   1.704   4.529  1.3681  0.0292  0.7681
12996TIP3   OH260478   6.480   2.562  10.890  0.3852 -0.1577  0.2967
12996TIP3    H160479   6.526   2.640  10.858  0.3496  0.2779  1.2878
12996TIP3    H260480   6.427   2.533  10.816  1.3435  0.0292 -0.4816
12997TIP3   OH260481   6.398   2.165  10.402 -0.6801 -0.1636  0.3351
12997TIP3    H160482   6.392   2.102  10.330 -1.6122 -0.1720  0.4127
12997TIP3    H260483   6.351   2.242  10.370  1.9854  1.1734 -0.4671
12998TIP3   OH260484   1.904   6.597   1.276 -0.8812 -0.4414  0.0390
12998TIP3    H160485   1.873   6.506   1.266 -0.6882 -0.6203  1.0175
12998TIP3    H260486   1.887   6.618   1.367 -0.5988  0.3969 -0.0988
12999TIP3   OH260487   5.052   6.184   1.069 -0.5050  0.0838 -0.0776
12999TIP3    H160488   5.108   6.259   1.046 -1.6772  0.7148 -0.9491
12999TIP3    H260489   5.052   6.130   0.990 -0.8560 -0.0754  0.0325
13000TIP3   OH260490   1.536   5.354  14.107 -0.2308  0.4445  0.0575
13000TIP3    H160491   1.590   5.364  14.028 -0.9125 -2.0133 -0.7991
13000TIP3    H260492   1.463   5.414  14.094  0.7771  1.6394 -0.1563
13001TIP3   OH260493   6.802   0.651   5.055  0.3002 -0.1388 -1.4046
13001TIP3    H160494   6.885   0.689   5.026 -0.8517  1.5630 -2.5953
13001TIP3    H260495   6.753   0.725   5.092 -0.7351 -1.0888 -0.8252
13002TIP3   OH260496   5.011   5.398  10.997 -0.0807  0.1963 -0.1039
13002TIP3    H160497   4.970   5.375  10.913 -1.0450  1.2544  0.0705
13002TIP3    H260498   4.941   5.440  11.047  0.9212  0.9910  0.6423
13003TIP3   OH260499   5.106   1.577   5.016  0.3924  0.4382  0.7637
13003TIP3    H160500   5.091   1.515   4.945 -0.5409 -0.4925  1.7332
13003TIP3    H260501   5.045   1.648   4.999 -0.8234 -0.4308  1.3415
13004TIP3   OH260502   0.138   5.014  15.437  0.3322  0.8021 -0.0447
13004TIP3    H160503   0.126   4.986  15.527  1.7715 -0.0427 -0.0978
13004TIP3    H260504   0.177   5.101  15.443 -1.3942  1.5901  0.1282
13005TIP3   OH260505   3.738   0.813  11.386  0.0534 -0.1646  0.2231
13005TIP3    H160506   3.740   0.879  11.317  0.5873  0.4227  0.7974
13005TIP3    H260507   3.759   0.861  11.466 -1.6037 -0.6462  0.9600
13006TIP3   OH260508   1.098   6.193   5.545  0.5768  0.2234  0.2933
13006TIP3    H160509   1.188   6.166   5.561  0.1407 -1.2638  0.2969
13006TIP3    H260510   1.066   6.221   5.631 -0.5061 -3.9938  1.3932
13007TIP3   OH260511   1.970   0.102   5.537  0.2608 -0.0932 -0.1187
13007TIP3    H160512   1.929   0.175   5.583  1.8973  0.6581  0.1666
13007TIP3    H260513   1.919   0.093   5.456 -0.9061  0.3668  0.5632
13008TIP3   OH260514   0.293   3.695   0.395  0.5971  0.1678 -0.7591
13008TIP3    H160515   0.237   3.762   0.435 -1.0738 -0.4667 -1.9888
13008TIP3    H260516   0.276   3.616   0.447  0.9061  0.1445 -0.6909
13009TIP3   OH260517   5.227   6.310  13.466  0.0628 -0.0982  0.6258
13009TIP3    H160518   5.317   6.296  13.496 -0.2113 -0.4198  1.3155
13009TIP3    H260519   5.183   6.227  13.484  0.0746 -0.5591 -1.3822
13010TIP3   OH260520   1.337   1.670   5.801 -0.5033  0.4692 -0.3561
13010TIP3    H160521   1.289   1.727   5.861 -0.8614  1.6333 -1.6951
13010TIP3    H260522   1.288   1.677   5.718 -1.7244 -3.3418 -0.0528
13011TIP3   OH260523   2.919   1.183   0.203  0.0033 -0.1828 -0.5835
13011TIP3    H160524   2.922   1.151   0.112 -0.7712  1.3778 -1.1597
13011TIP3    H260525   2.902   1.276   0.195 -0.7284 -0.1560  1.2092
13012TIP3   OH260526   2.183   2.075   5.118 -0.0764 -0.5281 -0.0152
13012TIP3    H160527   2.116   2.014   5.085 -0.7399 -0.2377  0.7948
13012TIP3    H260528   2.261   2.053   5.067 -0.6663 -1.1651 -0.6676
13013TIP3   OH260529   3.084   2.908   3.010  0.5410  0.7481  0.3688
13013TIP3    H160530   3.100   2.814   3.001 -1.5946  0.5584 -1.9163
13013TIP3    H260531   3.162   2.950   2.972 -0.5443 -0.1298 -2.9414
13014TIP3   OH260532   5.913   5.140   5.808 -0.6297 -0.3523 -0.1917
13014TIP3    H160533   5.910   5.196   5.731 -0.3299 -0.9854 -0.6604
13014TIP3    H260534   5.823   5.110   5.819 -0.3896 -1.4682 -1.1824
13015TIP3   OH260535   4.655   1.812  14.590  0.1312  0.0581  0.5863
13015TIP3    H160536   4.745   1.803  14.559  0.0481  0.0248  0.3593
13015TIP3    H260537   4.641   1.907  14.597 -0.2280  0.1028 -0.5713
13016TIP3   OH260538   3.676   3.500   3.756 -0.3949  0.5989 -0.2880
13016TIP3    H160539   3.707   3.434   3.819 -0.8147 -1.2805 -1.9878
13016TIP3    H260540   3.581   3.500   3.766 -0.4388  0.5179 -0.6924
13017TIP3   OH260541   0.401   4.548   1.694 -0.3169  0.9303  0.1138
13017TIP3    H160542   0.379   4.524   1.604 -2.8437 -0.7437  1.1281
13017TIP3    H260543   0.423   4.465   1.737  0.9127  1.7191  1.0558
13018TIP3   OH260544   6.738   0.136  14.123  0.1574  0.3090  0.1052
13018TIP3    H160545   6.825   0.130  14.083 -0.3992 -0.5823 -0.9893
13018TIP3    H260546   6.705   0.222  14.097  0.3262  0.2654 -0.2529
13019TIP3   OH260547   5.491   6.415   2.322 -0.4417  0.3271 -0.1261
13019TIP3    H160548   5.586   6.406   2.318 -0.5917 -1.2468 -0.3350
13019TIP3    H260549   5.470   6.479   2.254  0.2320 -1.2334 -1.8461
13020TIP3   OH260550   4.157   4.605   6.074 -0.1352 -0.1880 -0.1353
13020TIP3    H160551   4.180   4.657   5.997  1.5759  1.8118  1.6404
13020TIP3    H260552   4.239   4.561   6.098 -0.8991 -1.5780 -0.0146
13021TIP3   OH260553   5.404   3.029   3.854 -0.1117  0.0047  0.4480
13021TIP3    H160554   5.465   3.071   3.915  0.1072  0.7609 -0.2825
13021TIP3    H260555   5.441   2.943   3.837  0.4205  0.2256  0.4994
13022TIP3   OH260556   0.303   1.526   5.069 -0.4922 -0.6179  0.3720
13022TIP3    H160557   0.376   1.485   5.116 -0.0184  0.8846  0.9541
13022TIP3    H260558   0.278   1.601   5.123 -0.5234  0.6163 -1.3100
13023TIP3   OH260559   1.324   3.329   2.060  0.1465 -0.4076 -0.0460
13023TIP3    H160560   1.420   3.327   2.059  0.1758  0.8731 -0.0830
13023TIP3    H260561   1.301   3.338   2.152  0.1291  1.5047 -0.2104
13024TIP3   OH260562   6.144   2.073   5.262 -0.3914 -0.4978 -0.7377
13024TIP3    H160563   6.108   2.054   5.349 -0.3063  1.1193 -0.3262
13024TIP3    H260564   6.179   1.989   5.231  1.2384 -0.7288  1.5787
13025TIP3   OH260565   1.042   5.024   5.609  0.0648 -0.0352 -0.1828
13025TIP3    H160566   0.964   4.989   5.565  0.3379  0.4400 -1.0542
13025TIP3    H260567   1.008   5.066   5.688 -0.4513 -0.7228 -0.0275
13026TIP3   OH260568   1.332   2.498   4.072 -0.6052  1.2107  0.0154
13026TIP3    H160569   1.418   2.509   4.031  0.0051  0.4814  1.0721
13026TIP3    H260570   1.321   2.403   4.079 -1.5718  1.2997 -0.2525
13027TIP3   OH260571   0.530   1.376  14.637 -0.1149 -0.1937  0.4088
13027TIP3    H160572   0.623   1.393  14.623 -0.1867  1.1440  1.3644
13027TIP3    H260573   0.527   1.290  14.678  0.5196 -1.3073 -1.8410
13028TIP3   OH260574   2.997   4.535   5.450 -0.6335  0.0891 -0.1621
13028TIP3    H160575   2.959   4.561   5.533 -0.0605  0.5992 -0.0527
13028TIP3    H260576   3.090   4.523   5.469 -0.6672 -0.7581 -0.5070
13029TIP3   OH260577   1.471   5.565   4.158  0.1672 -0.0681  0.4103
13029TIP3    H160578   1.446   5.615   4.236  1.6428  1.7958 -0.2661
13029TIP3    H260579   1.533   5.622   4.112 -0.1054 -1.4540 -1.7473
13030TIP3   OH260580   1.408   5.836   3.378 -0.5875 -0.1757  0.2434
13030TIP3    H160581   1.496   5.798   3.374 -0.3703  0.2488  0.9708
13030TIP3    H260582   1.349   5.761   3.370 -0.1704 -0.3979 -0.9389
13031TIP3   OH260583   5.443   1.549  12.347 -0.4148  0.0207  0.6924
13031TIP3    H160584   5.465   1.455  12.344 -3.0621 -0.6461  0.9079
13031TIP3    H260585   5.499   1.588  12.280 -0.0689 -1.8967 -0.1944
13032TIP3   OH260586   2.677   3.972  15.992  0.1345 -0.1349  0.0111
13032TIP3    H160587   2.641   3.884  15.978 -0.1987  0.3059 -1.9992
13032TIP3    H260588   2.767   3.966  15.962  0.0988  0.2213 -0.1709
13033TIP3   OH260589   0.352   1.268  10.897 -0.3498 -0.1807 -0.3111
13033TIP3    H160590   0.310   1.335  10.843  0.6430 -0.6792 -1.7373
13033TIP3    H260591   0.347   1.188  10.844  0.9234 -0.6050  0.1918
13034TIP3   OH260592   3.883   3.186  16.023  0.2338  0.4147  0.1617
13034TIP3    H160593   3.957   3.124  16.031 -1.3094 -1.4314  0.5127
13034TIP3    H260594   3.878   3.204  15.929  0.5708 -0.1865  0.0191
13035TIP3   OH260595   5.114   1.054   2.194  0.0183 -0.0203 -0.6717
13035TIP3    H160596   5.021   1.065   2.175  0.0178  0.4624 -0.3951
13035TIP3    H260597   5.141   0.982   2.137 -0.2594  0.6145 -1.6195
13036TIP3   OH260598   2.043   3.345   6.036 -0.0037  0.5430 -0.6592
13036TIP3    H160599   2.080   3.268   6.078 -0.1953 -0.5031 -2.3566
13036TIP3    H260600   2.021   3.316   5.947 -1.4935  2.1326 -0.8422
13037TIP3   OH260601   4.017   6.583   1.533 -0.3441 -0.4542  0.0160
13037TIP3    H160602   4.027   6.660   1.477  1.6232 -0.4877  0.3147
13037TIP3    H260603   3.950   6.531   1.489 -1.2313  1.1048 -0.5269
13038TIP3   OH260604   4.782   6.373  15.543  0.0992  1.1881  0.0602
13038TIP3    H160605   4.816   6.322  15.617 -0.4131 -0.1423 -0.6078
13038TIP3    H260606   4.843   6.446  15.535  0.4183  1.1045  1.5164
13039TIP3   OH260607   6.782   6.421   2.815  0.4630 -0.3863  0.2073
13039TIP3    H160608   6.765   6.515   2.809  0.8936 -0.3572 -0.5280
13039TIP3    H260609   6.752   6.398   2.903  0.8056  0.5270  0.5778
13040TIP3   OH260610   3.922   5.537   4.707 -0.0380  0.8282 -0.4025
13040TIP3    H160611   3.954   5.449   4.686  0.2791  1.2130 -1.5655
13040TIP3    H260612   3.848   5.521   4.766 -0.7702 -0.2924 -1.5895
13041TIP3   OH260613   2.026   0.744   1.232 -0.4305  0.5863 -0.2096
13041TIP3    H160614   2.054   0.659   1.197 -0.7535 -0.3771  1.8342
13041TIP3    H260615   1.985   0.788   1.157 -1.0487 -1.4061 -1.0729
13042TIP3   OH260616   2.269   3.459  17.009 -0.1034 -0.7595  0.4877
13042TIP3    H160617   2.178   3.476  17.034 -0.3160  0.5252 -1.0701
13042TIP3    H260618   2.313   3.542  17.027 -0.0381 -0.1530 -2.2862
13043TIP3   OH260619   5.663   2.109  10.825  0.3558  0.2140 -0.7931
13043TIP3    H160620   5.589   2.099  10.884  0.8665  0.5143 -0.0867
13043TIP3    H260621   5.684   2.020  10.797 -0.0219  0.0927 -0.6882
13044TIP3   OH260622   4.035   2.628  16.224  0.2916  0.1277  0.2613
13044TIP3    H160623   4.075   2.596  16.143  0.1476 -2.5717  1.2172
13044TIP3    H260624   3.941   2.619  16.209  0.2830 -1.1565  0.9989
13045TIP3   OH260625   3.718   3.166  14.539 -0.8727 -0.8438  0.3174
13045TIP3    H160626   3.748   3.081  14.507 -1.1490 -0.7039 -0.3197
13045TIP3    H260627   3.678   3.147  14.623  0.9690 -1.0405  1.1756
13046TIP3   OH260628   0.388   2.899   2.239  0.5729  0.1012 -0.3184
13046TIP3    H160629   0.382   2.829   2.175  1.4764  0.1293 -0.4371
13046TIP3    H260630   0.416   2.856   2.319 -1.1166 -0.0273  0.2334
13047TIP3   OH260631   5.166   1.929   5.880 -0.2059 -0.0650 -0.0657
13047TIP3    H160632   5.140   1.920   5.972  2.5922 -0.3562  0.7426
13047TIP3    H260633   5.222   2.006   5.879  1.2761 -1.1441 -1.1939
13048TIP3   OH260634   1.700   5.982  15.002 -0.2225  0.5393 -0.2025
13048TIP3    H160635   1.703   5.928  15.082 -1.6909 -1.1896 -1.2586
13048TIP3    H260636   1.785   5.969  14.961  0.4276  1.1832  0.9229
13049TIP3   OH260637   2.126   4.754  12.974  0.3154  0.3312 -0.8525
13049TIP3    H160638   2.210   4.708  12.982  0.6345  1.1243  0.5498
13049TIP3    H260639   2.060   4.689  12.997  0.5752 -0.1478 -1.4478
13050TIP3   OH260640   4.448   6.361  12.582 -0.1007  0.8558  0.4432
13050TIP3    H160641   4.380   6.427  12.575 -1.9287 -0.6878  2.8103
13050TIP3    H260642   4.511   6.398  12.644 -0.1814  1.1448  0.3511
13051TIP3   OH260643   6.790   0.402  13.736 -0.5360 -0.1285 -0.0579
13051TIP3    H160644   6.766   0.412  13.828 -0.7136  1.9645 -0.2978
13051TIP3    H260645   6.885   0.408  13.735 -0.4770 -1.0017  0.0773
13052TIP3   OH260646   4.415   0.150  11.495 -0.4456  0.1936  0.1537
13052TIP3    H160647   4.459   0.231  11.523 -0.7386  0.9436 -1.4754
13052TIP3    H260648   4.460   0.080  11.542  2.1501  1.0000 -1.0666
13053TIP3   OH260649   6.034   4.420  16.077  0.4577  0.2901 -0.4564
13053TIP3    H160650   6.031   4.425  15.982 -2.3202  2.0552 -0.3373
13053TIP3    H260651   5.960   4.363  16.100 -0.0278  1.3715  0.7129
13054TIP3   OH260652   5.492   5.272   6.168 -0.0776 -0.3796  0.5556
13054TIP3    H160653   5.573   5.317   6.142 -0.0644 -0.2042  0.9061
13054TIP3    H260654   5.522   5.200   6.224 -0.1502 -0.4234  0.5371
13055TIP3   OH260655   5.939   2.103  14.842  0.2031 -0.1936  0.1659
13055TIP3    H160656   5.953   2.189  14.881  2.8451 -0.8788  0.8272
13055TIP3    H260657   6.007   2.095  14.775  0.3976 -1.9893  0.5309
13056TIP3   OH260658   3.993   5.800  15.928 -0.8508 -0.3288  0.4732
13056TIP3    H160659   3.976   5.762  16.015 -0.2424 -2.4426 -0.3003
13056TIP3    H260660   3.961   5.734  15.866 -2.2700  1.6380 -0.9408
13057TIP3   OH260661   6.624   2.737   4.066  0.0068  0.1572 -0.1267
13057TIP3    H160662   6.622   2.731   3.971  1.2840  1.3266 -0.2291
13057TIP3    H260663   6.542   2.782   4.089 -0.3748 -0.2596 -0.6427
13058TIP3   OH260664   1.881   0.689  12.360 -0.5655  0.2451 -0.2803
13058TIP3    H160665   1.962   0.731  12.388 -0.4534  1.0973 -1.7941
13058TIP3    H260666   1.900   0.596  12.360  0.6266  0.4772 -1.2276
13059TIP3   OH260667   3.851   3.472  15.420  0.0525 -0.4497 -0.8691
13059TIP3    H160668   3.851   3.509  15.331 -1.0749  0.0758 -0.6587
13059TIP3    H260669   3.862   3.377  15.406 -0.3694 -0.4000 -1.5819
13060TIP3   OH260670   4.763   3.155   6.261  0.4919 -0.0853 -0.1310
13060TIP3    H160671   4.813   3.236   6.266 -0.5103  0.6217 -1.2874
13060TIP3    H260672   4.673   3.183   6.243  0.1073 -1.4435 -0.3953
13061TIP3   OH260673   3.926   0.914   5.733 -0.3474  0.0327  0.0940
13061TIP3    H160674   3.852   0.915   5.671  0.4070 -0.2377 -0.8191
13061TIP3    H260675   3.886   0.935   5.817 -1.6144 -1.0269 -0.2296
13062TIP3   OH260676   1.071   0.215  13.764  0.0355 -0.4706 -0.1255
13062TIP3    H160677   1.019   0.204  13.844  1.7975 -1.1317  0.9418
13062TIP3    H260678   1.008   0.203  13.694 -2.1055  2.7042  1.1105
13063TIP3   OH260679   5.793   4.940  12.403 -0.1272 -0.2965 -0.0705
13063TIP3    H160680   5.756   4.878  12.467  1.7064  0.0052  1.3106
13063TIP3    H260681   5.868   4.978  12.448  0.5310  0.7404 -2.0307
13064TIP3   OH260682   4.584   6.756  12.139  0.0128  0.5785  0.6347
13064TIP3    H160683   4.603   6.765  12.046 -0.4435 -0.0091  0.4814
13064TIP3    H260684   4.666   6.726  12.178 -0.2680 -0.8250  0.1543
13065TIP3   OH260685   2.161   3.147   3.123 -0.1455  1.1351  0.4235
13065TIP3    H160686   2.173   3.167   3.030  0.3645 -0.8290  0.0378
13065TIP3    H260687   2.248   3.121   3.153 -0.5305  0.6962  1.1762
13066TIP3   OH260688   5.632   1.184   5.102 -0.2904 -0.9819 -0.1183
13066TIP3    H160689   5.622   1.192   5.196  0.5001 -1.3016  0.0010
13066TIP3    H260690   5.578   1.254   5.065  1.3716  0.7472  0.6660
13067TIP3   OH260691   4.181   6.170  13.736 -0.1597  0.7735 -0.4686
13067TIP3    H160692   4.243   6.143  13.668 -0.5977 -1.1883 -0.1283
13067TIP3    H260693   4.201   6.112  13.810 -0.9157  1.6414  0.4211
13068TIP3   OH260694   3.525   2.889  15.891 -0.6047 -0.1834  0.4357
13068TIP3    H160695   3.435   2.866  15.915  0.1401 -1.8434  1.7019
13068TIP3    H260696   3.536   2.977  15.926 -1.8333  0.1681 -0.0101
13069TIP3   OH260697   3.098   1.656   5.258  0.1620  0.7823 -0.5988
13069TIP3    H160698   3.095   1.685   5.167  2.2696  0.7485 -0.7109
13069TIP3    H260699   3.164   1.586   5.259 -1.7705 -1.0729  0.4726
13070TIP3   OH260700   5.062   3.157  15.551  0.8220 -0.0096 -0.5150
13070TIP3    H160701   5.017   3.173  15.468  2.0384  1.6243 -0.8816
13070TIP3    H260702   5.087   3.244  15.582  0.6010 -0.6266  1.4540
13071TIP3   OH260703   0.666   5.811   3.709 -0.0796  0.3411 -0.4478
13071TIP3    H160704   0.677   5.906   3.711  0.0874  0.3244 -0.5522
13071TIP3    H260705   0.602   5.796   3.640 -0.9937  0.4633  0.3631
13072TIP3   OH260706   2.219   0.087  13.812  0.2523 -0.5925 -0.2907
13072TIP3    H160707   2.293   0.036  13.846  0.9535 -1.2977 -2.7699
13072TIP3    H260708   2.238   0.098  13.719 -0.7563  2.7416 -0.1809
13073TIP3   OH260709   5.676   1.823  15.159  0.9827  0.3144 -0.7695
13073TIP3    H160710   5.691   1.879  15.083 -0.0841  1.6764 -0.0031
13073TIP3    H260711   5.764   1.799  15.190  1.4330  0.8169 -1.6583
13074TIP3   OH260712   2.401   4.896  14.190  0.6210 -0.0054  0.4222
13074TIP3    H160713   2.492   4.867  14.186  0.5673  0.0639 -2.1565
13074TIP3    H260714   2.350   4.815  14.187  0.5710 -0.0484  1.9323
13075TIP3   OH260715   1.611   0.296   4.492  0.2075 -0.4961 -0.6609
13075TIP3    H160716   1.683   0.344   4.451  0.5344  0.6650  1.2041
13075TIP3    H260717   1.653   0.226   4.541  0.2430  1.1003  1.6833
13076TIP3   OH260718   4.505   4.725   1.718  0.0879  0.3224 -0.2115
13076TIP3    H160719   4.412   4.738   1.700  0.3230  1.1835 -0.8129
13076TIP3    H260720   4.514   4.630   1.728 -0.5578  0.0914 -1.7769
13077TIP3   OH260721   3.679   4.167  15.978  0.1436  0.1547 -0.8941
13077TIP3    H160722   3.710   4.178  16.068 -0.4443  2.1118 -0.9197
13077TIP3    H260723   3.652   4.075  15.974  0.2823  0.0062  0.8992
13078TIP3   OH260724   4.352   4.737   2.419  0.2411  0.6876  0.1145
13078TIP3    H160725   4.398   4.818   2.441  3.6900 -0.7054 -1.5671
13078TIP3    H260726   4.323   4.749   2.329 -0.4524  0.5758  0.3214
13079TIP3   OH260727   3.816   4.515   3.050 -0.3148  0.1140  0.3816
13079TIP3    H160728   3.788   4.445   2.990 -1.0187  0.4496  0.3130
13079TIP3    H260729   3.824   4.592   2.995  4.3342 -0.7222 -0.3288
13080TIP3   OH260730   5.635   0.619   0.233  0.3503 -0.1650  0.3974
13080TIP3    H160731   5.581   0.559   0.180 -0.9044  0.2243  1.2096
13080TIP3    H260732   5.585   0.701   0.234  0.6643  0.0148  1.6547
13081TIP3   OH260733   5.659   4.158  16.737 -0.0476 -0.0428  0.5708
13081TIP3    H160734   5.649   4.091  16.805 -0.7339  0.4645  0.9703
13081TIP3    H260735   5.716   4.224  16.776  0.4022 -0.2497  0.2723
13082TIP3   OH260736   6.507   5.232  15.134  0.3994  0.6457  0.2643
13082TIP3    H160737   6.441   5.184  15.184  1.5800 -0.4498  0.8132
13082TIP3    H260738   6.458   5.274  15.064 -0.7975 -0.6646  0.2834
13083TIP3   OH260739   5.189   1.453   1.399  0.3397 -0.0385  0.0630
13083TIP3    H160740   5.171   1.432   1.308  0.8567 -0.0118 -0.0482
13083TIP3    H260741   5.159   1.377   1.448  0.6393 -0.3157 -0.1863
13084TIP3   OH260742   6.728   1.954  13.756 -0.1552 -0.0730  0.0203
13084TIP3    H160743   6.746   1.861  13.742 -1.5467 -0.0565 -2.0412
13084TIP3    H260744   6.660   1.955  13.824  1.6543 -0.4256  1.8911
13085TIP3   OH260745   4.048   0.492   1.187  0.4579  0.2409  0.3647
13085TIP3    H160746   4.094   0.413   1.217  1.6437  0.0048 -1.9403
13085TIP3    H260747   3.984   0.459   1.124  2.8423  1.2787 -2.7574
13086TIP3   OH260748   4.153   0.666   3.005 -0.3165 -0.2950  0.5297
13086TIP3    H160749   4.147   0.760   2.984 -0.4855 -0.5281 -0.4535
13086TIP3    H260750   4.230   0.660   3.061 -0.9819  0.6091  1.5681
13087TIP3   OH260751   4.669   3.384  17.181  0.5561  0.4323 -0.6326
13087TIP3    H160752   4.625   3.345  17.105  0.8387 -0.9187 -0.1057
13087TIP3    H260753   4.761   3.385  17.157  0.8125 -1.3078  0.2614
13088TIP3   OH260754   1.591   1.791   4.655  0.3367 -0.2246 -0.6062
13088TIP3    H160755   1.544   1.736   4.593  1.8352 -0.4556 -1.5544
13088TIP3    H260756   1.535   1.867   4.667 -0.9655 -1.1789 -0.5811
13089TIP3   OH260757   2.722   3.792  16.285 -0.3557  0.2236 -0.5008
13089TIP3    H160758   2.695   3.876  16.247  1.1398  0.7168 -0.4936
13089TIP3    H260759   2.789   3.758  16.226 -0.6444 -0.7719 -0.2760
13090TIP3   OH260760   0.908   3.223  11.235 -0.2442 -0.1184  0.3405
13090TIP3    H160761   0.988   3.207  11.185  0.4889  0.7882  1.1962
13090TIP3    H260762   0.864   3.294  11.187  0.3752  0.6370  0.8880
13091TIP3   OH260763   4.366   0.131  14.790 -0.6521  0.7799  0.2318
13091TIP3    H160764   4.441   0.126  14.849 -1.0565  2.0394  0.8676
13091TIP3    H260765   4.402   0.170  14.710 -0.6592  1.5670  0.6066
13092TIP3   OH260766   0.338   4.899  13.520  0.0567  0.3555  0.0212
13092TIP3    H160767   0.270   4.881  13.585  0.3065  0.5766  0.3496
13092TIP3    H260768   0.311   4.850  13.442  1.2280 -2.2184  1.1844
13093TIP3   OH260769   5.770   4.869   3.725  0.3759 -0.2473  0.7541
13093TIP3    H160770   5.713   4.946   3.720  1.3378  0.4724  0.6088
13093TIP3    H260771   5.782   4.854   3.819  0.0833 -0.2987  0.7830
13094TIP3   OH260772   5.508   0.542  15.262 -0.2312  0.6430 -0.4569
13094TIP3    H160773   5.514   0.621  15.208  0.2718  1.0428  0.1868
13094TIP3    H260774   5.505   0.470  15.198  0.5885  1.0988 -1.0241
13095TIP3   OH260775   5.818   4.219   4.602 -0.2354 -0.0182  0.5638
13095TIP3    H160776   5.798   4.280   4.532 -1.9405  0.0754  1.1089
13095TIP3    H260777   5.859   4.144   4.558  0.0568  0.6639 -0.3389
13096TIP3   OH260778   0.401   5.454   0.592  0.0631 -0.2621 -0.9469
13096TIP3    H160779   0.466   5.501   0.645 -1.4799 -0.2779  1.0059
13096TIP3    H260780   0.429   5.363   0.597  0.8238 -0.0664 -1.4915
13097TIP3   OH260781   3.087   4.395  12.232  0.0335  0.0733 -0.0399
13097TIP3    H160782   3.168   4.443  12.251 -0.1599  0.3392  0.0964
13097TIP3    H260783   3.078   4.401  12.137 -0.2133  0.6527  0.0214
13098TIP3   OH260784   3.302   1.737  11.192 -0.0419 -0.1938 -0.7798
13098TIP3    H160785   3.256   1.657  11.216  0.1484 -0.0795 -0.0241
13098TIP3    H260786   3.239   1.785  11.137 -0.3233 -0.6410 -0.8531
13099TIP3   OH260787   6.619   2.212   4.892  0.7409  0.0994 -0.2767
13099TIP3    H160788   6.635   2.276   4.823 -2.2291  0.0849 -1.0532
13099TIP3    H260789   6.554   2.152   4.854 -0.2951 -0.4254  2.2253
13100TIP3   OH260790   6.144   0.993   4.947 -0.0791 -0.5334  0.6559
13100TIP3    H160791   6.197   1.061   4.907 -0.8760 -0.9074 -1.0667
13100TIP3    H260792   6.134   1.021   5.038 -0.6918  1.8416 -0.1025
13101TIP3   OH260793   6.203   5.962   2.521  0.2152 -0.3128  0.1148
13101TIP3    H160794   6.200   6.051   2.556  1.1303 -0.3687  0.3628
13101TIP3    H260795   6.135   5.915   2.570 -0.5601  0.3495 -0.3186
13102TIP3   OH260796   6.440   0.280   2.788 -0.2964 -0.2977 -0.1031
13102TIP3    H160797   6.428   0.250   2.878  0.9610  0.5866  0.3759
13102TIP3    H260798   6.447   0.375   2.795 -0.4852 -0.1924 -1.1749
13103TIP3   OH260799   4.586   3.974   3.645 -0.4177  0.3033  0.1576
13103TIP3    H160800   4.495   3.950   3.628 -0.1045 -0.8296 -0.0095
13103TIP3    H260801   4.581   4.056   3.694 -1.5044  0.6015 -0.4294
13104TIP3   OH260802   4.407   5.527   6.537 -0.4180 -0.9875  0.5633
13104TIP3    H160803   4.315   5.514   6.562 -1.0017 -1.1288 -1.5646
13104TIP3    H260804   4.405   5.536   6.441  1.4531  1.9210  0.7175
13105TIP3   OH260805   1.237   2.007  15.278  0.5788  0.0090  0.0902
13105TIP3    H160806   1.175   2.076  15.254  1.2600  0.4781 -0.3633
13105TIP3    H260807   1.239   1.949  15.202  0.8258  0.0908  0.0340
13106TIP3   OH260808   3.377   5.354   0.319  0.4727 -0.2071 -0.2805
13106TIP3    H160809   3.360   5.430   0.264  1.7501  0.0029 -0.4173
13106TIP3    H260810   3.419   5.291   0.261  0.0723 -0.7345  0.0018
13107TIP3   OH260811   6.470   5.530   0.754  0.2295 -0.0224 -0.0891
13107TIP3    H160812   6.473   5.617   0.795 -1.6885 -0.0117  0.0759
13107TIP3    H260813   6.521   5.474   0.814  2.2516  1.1393 -0.6673
13108TIP3   OH260814   1.342   3.977   4.971  0.3946  0.4581  0.1419
13108TIP3    H160815   1.268   3.936   5.017  0.1520 -0.3068 -0.9018
13108TIP3    H260816   1.324   3.960   4.878  0.2160  3.0363 -0.3483
13109TIP3   OH260817   0.210   5.818   3.086  0.2123 -0.4563  0.3765
13109TIP3    H160818   0.283   5.760   3.063 -0.2136 -0.2158 -1.6616
13109TIP3    H260819   0.136   5.785   3.036 -0.8806 -0.1496  1.7495
13110TIP3   OH260820   0.745   0.176  11.840  0.1934 -0.8826 -0.1468
13110TIP3    H160821   0.752   0.214  11.753  2.9218  0.5723  0.6460
13110TIP3    H260822   0.679   0.229  11.884  0.2045 -0.3780 -0.7279
13111TIP3   OH260823   1.900   3.827  16.233 -0.0954  0.1200 -0.0251
13111TIP3    H160824   1.854   3.745  16.216 -1.2698  1.0312 -1.3734
13111TIP3    H260825   1.871   3.853  16.321 -1.0589 -0.0637 -0.2748
13112TIP3   OH260826   3.259   3.470  13.053 -0.1651  0.0625 -0.4830
13112TIP3    H160827   3.220   3.433  13.132 -2.0151 -0.2706 -1.5187
13112TIP3    H260828   3.349   3.490  13.077  0.2583 -3.0740  0.7673
13113TIP3   OH260829   6.164   3.299   1.736  0.3343  0.0178 -0.2890
13113TIP3    H160830   6.076   3.323   1.705  1.0771  1.7139 -1.1554
13113TIP3    H260831   6.189   3.223   1.684 -0.4529 -0.2257 -0.3159
13114TIP3   OH260832   3.504   1.553   3.960  0.0643 -0.5136  0.3245
13114TIP3    H160833   3.599   1.568   3.964  0.1659 -1.1699  0.3656
13114TIP3    H260834   3.466   1.630   4.003  0.4785  0.8210 -1.6596
13115TIP3   OH260835   1.601   1.068   1.104  0.6186  0.0938  0.8703
13115TIP3    H160836   1.584   1.151   1.148 -1.4887 -0.2912  0.8031
13115TIP3    H260837   1.678   1.085   1.050  0.0483  2.0735  0.6532
13116TIP3   OH260838   0.367   4.277   4.856  0.6421  0.2315  0.2732
13116TIP3    H160839   0.341   4.209   4.918  0.8417 -0.4908 -0.4242
13116TIP3    H260840   0.286   4.323   4.836  0.4051 -0.1549  0.3229
13117TIP3   OH260841   0.347   3.108   0.804 -0.2830  0.1685 -0.6564
13117TIP3    H160842   0.400   3.033   0.778  0.4601  0.4677  0.0156
13117TIP3    H260843   0.268   3.100   0.750 -0.4787 -1.4315 -0.1553
13118TIP3   OH260844   5.200   1.169  12.268  0.1772 -0.2701 -0.1732
13118TIP3    H160845   5.224   1.077  12.266 -3.4554 -1.2749  0.0191
13118TIP3    H260846   5.131   1.178  12.202 -1.7533  1.5926  2.0100
13119TIP3   OH260847   4.490   6.707  17.028  0.3223  0.0137  0.6620
13119TIP3    H160848   4.495   6.651  16.951  2.1359  2.4367 -1.0457
13119TIP3    H260849   4.398   6.732  17.033  0.3045  0.4134 -1.1743
13120TIP3   OH260850   1.791   4.581  14.895 -0.8729  0.8171 -0.0108
13120TIP3    H160851   1.852   4.653  14.907 -0.3747  0.1567  1.5769
13120TIP3    H260852   1.833   4.523  14.832 -1.0324  1.6422 -0.8746
13121TIP3   OH260853   4.494   1.598   1.969  0.1359 -0.1066 -0.3255
13121TIP3    H160854   4.472   1.686   1.939 -0.9475  0.4688  2.0384
13121TIP3    H260855   4.420   1.544   1.941  0.4326 -0.1050 -1.1012
13122TIP3   OH260856   0.598   5.672  16.534 -0.6332  0.1809  0.7028
13122TIP3    H160857   0.589   5.650  16.441  1.5131 -0.6392  0.6588
13122TIP3    H260858   0.543   5.608  16.579 -0.2138 -0.6115  0.1072
13123TIP3   OH260859   1.686   3.101  14.400 -0.0860 -0.5913  1.0263
13123TIP3    H160860   1.633   3.162  14.349  2.7862  1.0256 -0.1521
13123TIP3    H260861   1.690   3.140  14.487  0.0759 -0.1480  0.8194
13124TIP3   OH260862   4.468   0.268  12.164  0.1173  0.4796 -0.6082
13124TIP3    H160863   4.451   0.323  12.088  0.0648 -0.2841 -1.1442
13124TIP3    H260864   4.564   0.262  12.167  0.0639 -1.4770 -2.0385
13125TIP3   OH260865   2.451   0.007   4.307 -0.0210 -0.4255 -0.1811
13125TIP3    H160866   2.395   0.071   4.349  0.0244 -0.1331 -0.5655
13125TIP3    H260867   2.401  -0.075   4.309 -0.5010 -0.1442 -0.6129
13126TIP3   OH260868   5.055   4.441  16.749  0.0919 -0.8602 -0.5970
13126TIP3    H160869   5.079   4.395  16.669  0.1350 -1.7433 -0.0790
13126TIP3    H260870   5.080   4.382  16.820  1.9436  0.7848  0.1642
13127TIP3   OH260871   6.375   1.689   5.393  0.5830 -0.4401  0.3308
13127TIP3    H160872   6.398   1.781   5.385  0.0264 -0.2296  1.0764
13127TIP3    H260873   6.434   1.655   5.460 -0.3989 -0.1870  1.3566
13128TIP3   OH260874   4.969   1.382  16.595 -0.0286 -0.5521 -0.7626
13128TIP3    H160875   4.947   1.458  16.541 -1.2343 -1.1519 -1.1271
13128TIP3    H260876   5.012   1.420  16.672  1.2292  0.3521 -1.8642
13129TIP3   OH260877   4.877   1.482  10.888  1.1057 -0.1189  0.0954
13129TIP3    H160878   4.868   1.534  10.808 -2.3082 -0.4532  0.1778
13129TIP3    H260879   4.859   1.392  10.859 -2.6152  0.0734  1.5989
13130TIP3   OH260880   5.261   0.927   0.524  0.0691  0.1583  0.4602
13130TIP3    H160881   5.228   0.898   0.439 -0.8307  1.1567  0.4530
13130TIP3    H260882   5.313   0.854   0.556 -1.0759 -0.9352 -0.1325
13131TIP3   OH260883   2.656   2.004   3.753 -0.7556 -0.5165 -0.0085
13131TIP3    H160884   2.717   2.021   3.681  0.2233  2.1081  1.3773
13131TIP3    H260885   2.573   2.041   3.723 -0.8796 -1.2718 -0.6122
13132TIP3   OH260886   4.643   0.108  13.070 -0.3397  0.2456 -0.5263
13132TIP3    H160887   4.704   0.180  13.053 -1.1653  0.9288 -0.6745
13132TIP3    H260888   4.673   0.070  13.153 -0.2181  1.1255 -0.1549
13133TIP3   OH260889   5.168   4.720  16.379  0.3842 -0.1298 -0.3776
13133TIP3    H160890   5.184   4.729  16.473  0.4383  0.9663 -0.4869
13133TIP3    H260891   5.220   4.644  16.353 -1.3275 -1.7987  0.8700
13134TIP3   OH260892   0.859   3.211  17.209  0.7315  0.0954  0.3498
13134TIP3    H160893   0.912   3.286  17.181  0.8610  0.0810  0.5577
13134TIP3    H260894   0.852   3.156  17.131  1.1944 -0.0065  0.3820
13135TIP3   OH260895   5.043   3.953   1.158 -0.0582  0.2393  0.3003
13135TIP3    H160896   5.023   4.015   1.088 -0.2855  1.6128  1.5784
13135TIP3    H260897   4.957   3.925   1.190  0.0568  0.3699  0.7127
13136TIP3   OH260898   2.058   4.024  17.207  0.1509 -0.2570 -0.2311
13136TIP3    H160899   1.965   4.004  17.211  0.1562 -0.8109 -2.2143
13136TIP3    H260900   2.064   4.116  17.232 -0.9131 -0.2591  0.0435
13137TIP3   OH260901   2.637   0.001  15.799  0.2022  0.5200  0.1175
13137TIP3    H160902   2.644   0.022  15.706 -0.5777  1.0917  0.1821
13137TIP3    H260903   2.727   0.008  15.832  0.8728 -2.0668 -1.0715
13138TIP3   OH260904   2.288   4.175   5.079  0.0921 -0.4660  0.1703
13138TIP3    H160905   2.313   4.201   4.990 -0.4412 -0.7742 -0.0677
13138TIP3    H260906   2.365   4.129   5.113  0.1318 -0.7402 -0.2906
13139TIP3   OH260907   1.444   6.015  16.222 -0.3978 -0.6312 -0.3848
13139TIP3    H160908   1.537   6.037  16.231 -0.3044  0.6726 -3.7279
13139TIP3    H260909   1.437   5.927  16.257  1.6690  0.0540  1.9043
13140TIP3   OH260910   4.856   5.850   2.548  0.0362 -0.6970  0.0971
13140TIP3    H160911   4.821   5.768   2.514 -2.6327 -0.5526  2.3271
13140TIP3    H260912   4.904   5.888   2.474 -0.4911 -3.2183 -1.6070
13141TIP3   OH260913   2.473   3.860  13.612 -0.7145 -0.0827 -0.7793
13141TIP3    H160914   2.546   3.836  13.553 -0.4325 -0.0614 -0.4404
13141TIP3    H260915   2.395   3.839  13.561 -0.4714 -0.9399 -0.8177
13142TIP3   OH260916   2.967   0.465   4.642  0.2437 -0.2409 -0.6568
13142TIP3    H160917   3.004   0.546   4.676 -0.4649 -0.3234  0.3237
13142TIP3    H260918   2.876   0.465   4.672  0.5238 -1.9169  0.2806
13143TIP3   OH260919   6.146   5.757   5.536  0.2239 -0.5694 -0.6390
13143TIP3    H160920   6.180   5.737   5.624  0.7329 -0.1296 -0.7338
13143TIP3    H260921   6.207   5.713   5.477  1.4448  1.3414 -0.8591
13144TIP3   OH260922   1.913   4.646  16.492  0.0146  0.4135  0.4062
13144TIP3    H160923   1.984   4.708  16.507 -0.0536 -0.0219  2.6363
13144TIP3    H260924   1.945   4.587  16.424  0.2801  2.5585 -1.3807
13145TIP3   OH260925   3.786   3.345  11.997 -0.0311  0.1237  0.0946
13145TIP3    H160926   3.870   3.376  12.031 -0.0548 -0.0251  0.2900
13145TIP3    H260927   3.735   3.323  12.076  0.0391 -0.5544 -0.0502
13146TIP3   OH260928   3.845   1.743  16.961 -0.7947 -0.9213  0.4209
13146TIP3    H160929   3.821   1.685  16.889 -0.7745 -1.4078  0.8050
13146TIP3    H260930   3.893   1.815  16.920 -0.8337 -1.1710 -0.0537
13147TIP3   OH260931   1.466   2.350   0.560 -0.1076  0.3480  0.1214
13147TIP3    H160932   1.480   2.432   0.606  0.4247 -0.3876  1.2993
13147TIP3    H260933   1.378   2.323   0.584 -0.9533  1.4336 -1.6614
13148TIP3   OH260934   0.355   4.013  16.904 -0.0196  0.4817  0.6128
13148TIP3    H160935   0.304   3.938  16.875 -0.7692  1.5584 -0.9117
13148TIP3    H260936   0.446   3.988  16.886 -0.2849  0.0548 -0.1660
13149TIP3   OH260937   0.732   2.305   3.724 -0.7874 -0.3424 -0.3008
13149TIP3    H160938   0.677   2.368   3.677 -0.1575  0.3341 -0.1349
13149TIP3    H260939   0.759   2.242   3.657  1.0745  1.2833 -1.1067
13150TIP3   OH260940   3.518   5.998   0.138  0.4778  0.5767 -0.4745
13150TIP3    H160941   3.565   5.921   0.105 -2.3372 -1.8916  1.0818
13150TIP3    H260942   3.530   5.995   0.233  0.5038  2.1981 -0.4058
13151TIP3   OH260943   4.134   5.646  16.371 -0.0660  0.1204  0.3733
13151TIP3    H160944   4.087   5.655  16.454 -1.9934  1.8225 -0.8338
13151TIP3    H260945   4.187   5.725  16.364  1.5959 -0.9329  0.8654
13152TIP3   OH260946   5.735   0.427  13.666 -0.2026 -0.0843 -0.1627
13152TIP3    H160947   5.666   0.374  13.626  0.2267 -1.1839  0.5323
13152TIP3    H260948   5.692   0.469  13.741 -0.7611  1.2481 -1.1892
13153TIP3   OH260949   4.873   3.623  13.257 -0.1519  0.0058 -0.1315
13153TIP3    H160950   4.796   3.679  13.258  1.0935  1.7384  0.6608
13153TIP3    H260951   4.870   3.575  13.340  0.5166  1.3331  0.6723
13154TIP3   OH260952   1.899   5.826  15.771  0.2408 -0.3283 -0.0536
13154TIP3    H160953   1.931   5.899  15.719  0.6177  0.7210  1.6276
13154TIP3    H260954   1.922   5.848  15.861 -1.5654 -1.4858  0.7258
13155TIP3   OH260955   4.962   6.208  15.260 -0.2451 -0.3317 -0.0815
13155TIP3    H160956   4.951   6.164  15.344 -0.7757  0.0302  0.0425
13155TIP3    H260957   5.015   6.285  15.280 -0.2018 -0.3524 -0.1156
13156TIP3   OH260958   6.419   1.261   0.384 -0.7196  0.0473 -0.0219
13156TIP3    H160959   6.435   1.192   0.449  1.3026 -1.2987 -1.8645
13156TIP3    H260960   6.475   1.334   0.413  2.0772 -1.4198 -1.4939
13157TIP3   OH260961   4.959   4.950  13.462 -0.1376 -0.3668  0.2114
13157TIP3    H160962   5.030   5.012  13.479  0.1417 -0.9687  1.2834
13157TIP3    H260963   4.880   4.999  13.481  0.0027  0.1908 -0.6170
13158TIP3   OH260964   5.877   2.140   3.508  0.3621 -0.5075  0.9417
13158TIP3    H160965   5.811   2.207   3.527 -0.2723 -0.8502 -0.0081
13158TIP3    H260966   5.894   2.099   3.593 -1.3359 -1.0273  1.0593
13159TIP3   OH260967   4.621   0.627  13.898  0.5934 -0.0377  0.6717
13159TIP3    H160968   4.628   0.605  13.991  1.7671 -0.1508  0.5719
13159TIP3    H260969   4.527   0.632  13.881  0.3752  0.4654  1.9751
13160TIP3   OH260970   5.143   1.281  14.701 -0.3716 -0.1228 -0.0073
13160TIP3    H160971   5.190   1.246  14.626 -0.8993  0.5702 -0.6692
13160TIP3    H260972   5.184   1.366  14.718 -0.6421 -0.0128  0.1086
13161TIP3   OH260973   0.035   5.908   4.947 -0.2062 -0.0851  0.0510
13161TIP3    H160974  -0.008   5.978   4.898  0.8823 -0.0454 -0.8836
13161TIP3    H260975   0.077   5.951   5.020 -0.2810  0.1169 -0.0253
13162TIP3   OH260976   0.130   2.777  12.183 -0.0305  0.2645 -0.1842
13162TIP3    H160977   0.206   2.823  12.218 -0.8897  1.7465 -0.2092
13162TIP3    H260978   0.090   2.839  12.122 -0.3068 -1.1293 -1.4466
13163TIP3   OH260979   0.061   1.969   6.067 -0.1516  0.2802  0.5601
13163TIP3    H160980   0.094   1.919   6.141 -0.4588  1.9075  1.8381
13163TIP3    H260981   0.047   2.057   6.102  0.8414  1.3960 -1.7399
13164TIP3   OH260982   1.125   1.917  13.807 -0.4054 -0.0413 -0.1172
13164TIP3    H160983   1.077   1.986  13.762 -0.6770  0.4203  0.8768
13164TIP3    H260984   1.100   1.926  13.899  1.8596  0.4578  0.4842
13165TIP3   OH260985   4.476   1.512  12.519 -0.3060  0.0856  0.4138
13165TIP3    H160986   4.514   1.594  12.551 -0.1353 -0.0053  0.4445
13165TIP3    H260987   4.384   1.533  12.503  0.2555  0.8912 -1.8004
13166TIP3   OH260988   2.516   1.800   3.585  0.6712 -0.1098  0.2265
13166TIP3    H160989   2.554   1.762   3.664 -0.8497 -0.0415  1.0087
13166TIP3    H260990   2.497   1.726   3.528  0.8281 -0.2471  0.3562
13167TIP3   OH260991   6.090   2.957   1.214  0.2586 -0.1066  0.0848
13167TIP3    H160992   6.013   2.978   1.160 -0.5608  1.4861  1.8057
13167TIP3    H260993   6.165   2.983   1.160 -0.4902  0.3226 -0.7724
13168TIP3   OH260994   4.091   4.163   0.263 -0.1978  0.0258 -0.4050
13168TIP3    H160995   4.156   4.118   0.316 -0.4729  1.4770  1.2028
13168TIP3    H260996   4.119   4.255   0.263 -2.3296  0.7096  0.4675
13169TIP3   OH260997   6.327   5.522  15.472  0.2304  0.0572  0.0794
13169TIP3    H160998   6.406   5.482  15.435 -0.7011 -1.0523 -0.7402
13169TIP3    H260999   6.335   5.508  15.566  2.1389  2.0206  0.2388
13170TIP3   OH261000   4.818   1.475  12.249 -0.0082  0.1804 -0.2751
13170TIP3    H161001   4.799   1.569  12.250  1.2519  0.4307  1.2735
13170TIP3    H261002   4.899   1.468  12.200 -0.1907 -0.1278 -0.5339
13171TIP3   OH261003   2.906   4.028  13.443 -0.8596 -0.3080 -0.1985
13171TIP3    H161004   2.837   3.982  13.394 -0.2604 -1.0871 -0.3201
13171TIP3    H261005   2.861   4.063  13.520 -1.9604  1.5260 -1.6193
13172TIP3   OH261006   5.589   6.397   0.270 -0.0154  0.2159  0.1869
13172TIP3    H161007   5.602   6.462   0.201 -0.6355 -0.8542 -0.9433
13172TIP3    H261008   5.670   6.346   0.271  0.4800  1.0041  1.0900
13173TIP3   OH261009   4.213   6.664  14.563  0.1242  0.2370 -0.5508
13173TIP3    H161010   4.244   6.574  14.569  1.9000  0.8048 -0.9581
13173TIP3    H261011   4.276   6.708  14.506  0.4687  2.2209  1.2791
13174TIP3   OH261012   3.027   4.120   5.976  0.4324 -0.2276  0.8511
13174TIP3    H161013   3.081   4.094   5.901  0.5796 -0.0175  0.8832
13174TIP3    H261014   2.981   4.198   5.946  0.3639 -0.2409  0.9224
13175TIP3   OH261015   6.376   3.065   5.090  0.0620 -0.4696  0.5174
13175TIP3    H161016   6.286   3.093   5.075  0.4224  0.5322  0.2251
13175TIP3    H261017   6.381   3.051   5.185 -0.3791 -0.4505  0.5452
13176TIP3   OH261018   4.651   0.071  11.113  0.2756  0.2615 -0.4465
13176TIP3    H161019   4.577   0.102  11.166  0.2275 -1.5379  0.5810
13176TIP3    H261020   4.613   0.057  11.026 -0.8404 -1.4986  0.2913
13177TIP3   OH261021   6.232   6.728  13.901  0.1328 -0.1250  0.0676
13177TIP3    H161022   6.145   6.766  13.887  0.0289 -0.8617 -1.3500
13177TIP3    H261023   6.263   6.769  13.981 -0.7740  1.5195 -0.3972
13178TIP3   OH261024   0.962   1.799   0.992  0.2905  0.3796 -0.7398
13178TIP3    H161025   1.024   1.862   1.029  0.6581 -0.7857  0.6768
13178TIP3    H261026   0.889   1.797   1.054  1.1447 -1.9826  0.2413
13179TIP3   OH261027   6.815   5.515  14.206  0.3217  0.7359  0.2096
13179TIP3    H161028   6.821   5.554  14.119  3.8187 -1.2871 -0.5451
13179TIP3    H261029   6.882   5.560  14.257  1.1062 -0.9302  0.6659
13180TIP3   OH261030   4.817   4.227   3.285  0.6802 -0.3475 -0.0662
13180TIP3    H161031   4.810   4.131   3.280  1.5750 -0.4330  0.2701
13180TIP3    H261032   4.911   4.244   3.287  0.5557  0.6299 -1.6955
13181TIP3   OH261033   0.270   1.816   0.578 -0.3433 -0.2423  0.6776
13181TIP3    H161034   0.338   1.748   0.583  1.0845  1.2329  1.6570
13181TIP3    H261035   0.233   1.807   0.490  2.2968  0.0572 -0.4793
13182TIP3   OH261036   2.118   6.380  15.003  0.2446 -0.0468 -0.3424
13182TIP3    H161037   2.039   6.367  15.056  0.1436 -0.3671 -0.5728
13182TIP3    H261038   2.188   6.387  15.067  0.1752 -0.8319 -0.1783
13183TIP3   OH261039   5.113   1.266   5.918 -0.5436 -0.4301  0.0163
13183TIP3    H161040   5.018   1.275   5.914 -0.4771  0.9440  1.2822
13183TIP3    H261041   5.134   1.268   6.011  0.7389 -0.5847 -0.2567
13184TIP3   OH261042   5.332   4.782  13.304 -0.7040  0.4573  0.2887
13184TIP3    H161043   5.262   4.723  13.277 -0.5801  0.4436 -0.0056
13184TIP3    H261044   5.387   4.729  13.362 -1.3423  0.6822  1.1136
13185TIP3   OH261045   6.718   2.363   5.512 -0.1637  0.4551  0.0743
13185TIP3    H161046   6.701   2.282   5.464  1.1707  0.0718  0.2383
13185TIP3    H261047   6.663   2.428   5.469 -1.3667 -0.5641  0.0348
13186TIP3   OH261048   3.036   0.213   6.245 -0.3974 -0.1283 -0.6051
13186TIP3    H161049   3.042   0.145   6.313 -0.9977 -0.1354 -0.5572
13186TIP3    H261050   3.124   0.252   6.243 -0.8745  1.1935  1.5619
13187TIP3   OH261051   2.695   3.813  12.589  0.4609  0.5286 -0.2574
13187TIP3    H161052   2.783   3.824  12.553 -0.3666  1.5586 -1.9893
13187TIP3    H261053   2.641   3.875  12.542 -1.1444  0.2045  1.0910
13188TIP3   OH261054   5.615   4.587   5.968  0.2695 -0.6336 -0.3047
13188TIP3    H161055   5.595   4.675   5.998  1.1216  0.4332 -2.7668
13188TIP3    H261056   5.591   4.530   6.041 -0.3925  1.6212  1.2528
13189TIP3   OH261057   0.150   1.845  12.193  0.2211 -0.5668 -0.2466
13189TIP3    H161058   0.097   1.790  12.135 -1.0805 -1.1578  1.4509
13189TIP3    H261059   0.227   1.791  12.213  1.0518 -0.0681 -1.9771
13190TIP3   OH261060   4.212   0.043   6.397  0.2684  0.9664  0.6220
13190TIP3    H161061   4.201   0.134   6.427 -1.8544  1.0809 -0.4237
13190TIP3    H261062   4.125   0.004   6.407  0.2373  0.1219 -2.4122
13191TIP3   OH261063   5.155   0.308  14.431  0.4096  0.3887  0.9021
13191TIP3    H161064   5.129   0.286  14.341  1.7050 -2.1015  1.0948
13191TIP3    H261065   5.211   0.385  14.421  1.5482 -0.5784 -0.6011
13192TIP3   OH261066   0.695   1.653  16.395  0.3388  0.4971  0.5474
13192TIP3    H161067   0.702   1.704  16.477  1.2892  2.4295 -0.6845
13192TIP3    H261068   0.602   1.640  16.383  0.1388  0.8995  1.5399
13193TIP3   OH261069   6.667   1.089   5.357 -0.8110 -0.0934 -0.2869
13193TIP3    H161070   6.744   1.032   5.363 -0.2517  0.7442  0.6591
13193TIP3    H261071   6.676   1.132   5.272 -1.3495 -1.5485 -1.1057
13194TIP3   OH261072   4.683   5.037   0.414  0.1289  0.3095  0.8106
13194TIP3    H161073   4.615   5.062   0.351  0.0952 -0.0854  0.6916
13194TIP3    H261074   4.760   5.019   0.360  0.5170  1.3989  0.9956
13195TIP3   OH261075   2.000   6.080  15.697  0.1505 -0.5334 -0.5035
13195TIP3    H161076   2.042   6.049  15.617 -0.2166 -0.4865 -0.7191
13195TIP3    H261077   1.956   6.162  15.670 -0.5018 -0.8483 -0.4138
13196TIP3   OH261078   0.361   4.820   5.268  0.5509 -0.5193 -0.8927
13196TIP3    H161079   0.409   4.779   5.340  2.0301  2.7043  0.0872
13196TIP3    H261080   0.280   4.853   5.309  0.4372 -0.4637 -1.1583
13197TIP3   OH261081   2.229   5.578   3.125 -0.6778 -0.0391 -0.1100
13197TIP3    H161082   2.296   5.641   3.151 -0.0576 -0.5123 -0.5398
13197TIP3    H261083   2.209   5.529   3.205  1.1172 -1.3967 -0.4793
13198TIP3   OH261084   3.355   2.176  12.852  0.5852 -0.1699  0.0691
13198TIP3    H161085   3.365   2.173  12.947  0.8918  2.2170  0.1565
13198TIP3    H261086   3.410   2.249  12.824  1.1040 -1.3094 -2.0444
13199TIP3   OH261087   6.685   1.021   3.040  0.0961 -0.2200 -0.0786
13199TIP3    H161088   6.679   0.998   2.947 -2.3233 -1.1422  0.2587
13199TIP3    H261089   6.661   1.114   3.043 -0.4949 -0.3647 -0.3080
13200TIP3   OH261090   2.933   1.681   5.796  0.4610 -0.4511  0.2338
13200TIP3    H161091   2.988   1.676   5.718  1.0560 -1.2655  0.6970
13200TIP3    H261092   2.983   1.635   5.863 -0.3136 -0.2666  0.9415
13201TIP3   OH261093   2.552   3.654   2.044 -0.3274 -0.0663 -0.3694
13201TIP3    H161094   2.646   3.654   2.062 -0.8001 -1.6416  2.4206
13201TIP3    H261095   2.526   3.745   2.055  0.2813 -0.1888  2.4465
13202TIP3   OH261096   6.814   2.118   5.078 -0.0148  0.2255  0.7457
13202TIP3    H161097   6.750   2.146   5.012  0.4486 -0.8387 -0.1703
13202TIP3    H261098   6.888   2.178   5.067  0.1797 -0.1300  0.0982
13203TIP3   OH261099   5.007   0.202   2.278 -0.1590 -0.0550 -0.5259
13203TIP3    H161100   5.011   0.110   2.250  1.1420  0.0634 -0.7159
13203TIP3    H261101   4.949   0.200   2.355  0.9884 -1.2382  0.3301
13204TIP3   OH261102   3.565   3.635  12.705 -0.0164  0.4928 -0.1346
13204TIP3    H161103   3.526   3.644  12.792 -1.4270  0.7075 -0.7767
13204TIP3    H261104   3.658   3.654  12.718 -0.4223  1.6655  1.1244
13205TIP3   OH261105   5.206   4.597   3.391 -0.1656  0.0062 -0.1504
13205TIP3    H161106   5.118   4.577   3.422  0.6917 -3.0588  0.5275
13205TIP3    H261107   5.249   4.636   3.467 -1.0534  1.9925 -0.6373
13206TIP3   OH261108   6.312   2.915  11.860 -0.5378  0.0845  0.3653
13206TIP3    H161109   6.365   2.912  11.781  1.4870  1.8627  1.6037
13206TIP3    H261110   6.361   2.863  11.924 -1.0951  0.4188  1.0739
13207TIP3   OH261111   3.285   4.331   4.361 -0.5111  0.1572 -0.1142
13207TIP3    H161112   3.346   4.288   4.303 -2.8959 -1.5991 -1.3876
13207TIP3    H261113   3.298   4.425   4.345  1.5662 -0.2026 -0.5910
13208TIP3   OH261114   0.326   2.793  12.789 -0.0800  0.0060  0.2649
13208TIP3    H161115   0.296   2.707  12.818  0.8142 -0.6921 -0.8158
13208TIP3    H261116   0.257   2.853  12.815 -0.6875 -1.0379  1.0890
13209TIP3   OH261117   4.827   3.673  17.007 -0.1198 -0.1699  0.2154
13209TIP3    H161118   4.819   3.675  17.103  0.5050 -0.9145  0.2836
13209TIP3    H261119   4.911   3.631  16.991 -0.9210 -1.4568 -0.6928
13210TIP3   OH261120   5.289   1.188  13.167  0.8028 -0.8461  0.2693
13210TIP3    H161121   5.203   1.148  13.151 -0.9645  2.4001  1.1482
13210TIP3    H261122   5.331   1.130  13.231  0.2552 -3.7184 -1.8511
13211TIP3   OH261123   2.672   0.849  15.608  0.9115  0.6034 -0.6841
13211TIP3    H161124   2.592   0.822  15.652  1.9573 -0.0461  0.8222
13211TIP3    H261125   2.652   0.838  15.515 -0.5518 -0.0745 -0.3090
13212TIP3   OH261126   2.239   0.450  15.103 -0.3105 -0.1313 -0.3284
13212TIP3    H161127   2.280   0.448  15.189 -2.2831  1.5378  0.7199
13212TIP3    H261128   2.242   0.360  15.072  1.4612 -0.5435  0.9896
13213TIP3   OH261129   6.295   1.185  13.787 -0.2869 -0.3407 -0.9327
13213TIP3    H161130   6.315   1.094  13.765  1.9264  0.2148 -1.4028
13213TIP3    H261131   6.210   1.201  13.747 -0.3147 -1.9578 -1.5827
13214TIP3   OH261132   2.263   2.376  13.091 -0.3351  0.3708  0.7606
13214TIP3    H161133   2.349   2.362  13.129 -0.0892  1.1939  0.5115
13214TIP3    H261134   2.275   2.365  12.997  0.1717  3.6224  0.4068
13215TIP3   OH261135   4.552   6.593  13.659  0.3457  0.2253  0.1304
13215TIP3    H161136   4.529   6.681  13.688  1.1165  0.3842  0.2674
13215TIP3    H261137   4.646   6.597  13.640  0.0197 -0.0501 -1.7263
13216TIP3   OH261138   6.740   6.612   3.110  0.2736 -0.4903 -0.3650
13216TIP3    H161139   6.757   6.594   3.203 -0.5091  0.1263 -0.1059
13216TIP3    H261140   6.818   6.659   3.080 -0.7070  1.8977  0.7090
13217TIP3   OH261141   0.746   4.110  13.924  0.2085 -0.4822 -0.0703
13217TIP3    H161142   0.664   4.114  13.874 -0.3951 -1.0275  0.8689
13217TIP3    H261143   0.719   4.115  14.015  1.4028  1.7013  0.2033
13218TIP3   OH261144   6.136   4.385   0.845 -0.2921 -0.4698  0.0156
13218TIP3    H161145   6.142   4.328   0.921  2.1170 -1.5108 -0.8748
13218TIP3    H261146   6.098   4.330   0.776 -1.3103  0.0951  0.1149
13219TIP3   OH261147   2.714   5.336  14.128  0.5609  0.1308  0.2687
13219TIP3    H161148   2.683   5.249  14.103  2.3873 -0.4334 -0.0951
13219TIP3    H261149   2.639   5.393  14.112 -1.0752 -1.5480  1.7253
13220TIP3   OH261150   1.382   4.673  16.277  0.0387  0.4153 -0.1125
13220TIP3    H161151   1.466   4.694  16.317  0.1831  0.3718 -0.3998
13220TIP3    H261152   1.402   4.612  16.207 -0.2519  0.2537 -0.0614
13221TIP3   OH261153   6.762   2.637  15.122  0.0023 -0.0237  0.3287
13221TIP3    H161154   6.730   2.547  15.129 -0.0932  0.1989  3.4927
13221TIP3    H261155   6.682   2.691  15.125  0.2100  0.2638  0.6499
13222TIP3   OH261156   2.558   5.650   2.416  0.6732 -0.0053 -0.2735
13222TIP3    H161157   2.463   5.650   2.425  0.8477  0.0822  1.9363
13222TIP3    H261158   2.574   5.625   2.325 -1.4490 -0.1786 -0.6216
13223TIP3   OH261159   3.671   5.259   0.402 -0.1831 -0.3529  0.7062
13223TIP3    H161160   3.729   5.216   0.464 -0.2342 -1.7804 -0.2116
13223TIP3    H261161   3.596   5.288   0.454  0.0124 -1.0783  1.3925
13224TIP3   OH261162   3.329   2.848  13.106  0.4034  0.0093  0.5258
13224TIP3    H161163   3.389   2.806  13.044  0.9633  0.9829  0.3996
13224TIP3    H261164   3.385   2.874  13.180  0.0035  0.2302  0.7522
13225TIP3   OH261165   4.677   3.399  14.524  0.4550  0.4035  0.0752
13225TIP3    H161166   4.763   3.432  14.496 -0.5092  2.8844 -0.0660
13225TIP3    H261167   4.647   3.345  14.451  1.2488  0.7050 -0.4784
13226TIP3   OH261168   1.450   3.845   2.347 -0.1967  0.3402  0.5419
13226TIP3    H161169   1.389   3.878   2.281  1.4631  0.9622 -0.7129
13226TIP3    H261170   1.409   3.764   2.379 -0.8003 -0.2032 -1.5574
13227TIP3   OH261171   5.203   2.710   3.134  0.0004  0.6037  0.0364
13227TIP3    H161172   5.212   2.806   3.132  1.2688  0.4808 -3.2695
13227TIP3    H261173   5.115   2.694   3.100  0.1975  0.5744 -0.4681
13228TIP3   OH261174   4.232   5.311  16.528  0.6688 -0.4079  0.2158
13228TIP3    H161175   4.279   5.251  16.470 -1.4740 -1.9286 -0.0261
13228TIP3    H261176   4.161   5.346  16.474 -1.4463 -1.9642  1.9046
13229TIP3   OH261177   4.618   3.429   6.056  0.1420  0.3864  0.4930
13229TIP3    H161178   4.638   3.512   6.100  0.3869  1.2602 -1.2452
13229TIP3    H261179   4.600   3.368   6.128 -1.7393  2.3732  1.7459
13230TIP3   OH261180   5.453   1.780   4.863 -0.0368 -0.5562 -0.8859
13230TIP3    H161181   5.407   1.833   4.928 -0.5377 -0.6885 -1.1259
13230TIP3    H261182   5.383   1.734   4.816  0.3351 -0.6629 -1.3413
13231TIP3   OH261183   3.066   3.427   3.808 -0.2523  0.5232  0.5383
13231TIP3    H161184   3.114   3.368   3.749 -0.9439 -0.3213  0.8153
13231TIP3    H261185   3.072   3.385   3.894 -2.2938 -0.0840  0.4072
13232TIP3   OH261186   0.762   0.223   1.668  0.2266  0.3520  0.3991
13232TIP3    H161187   0.814   0.302   1.659 -0.0404  0.6327  1.3259
13232TIP3    H261188   0.719   0.213   1.583  1.2366  0.5037 -0.1358
13233TIP3   OH261189   5.945   0.741   2.531  0.3715  0.4731 -0.8557
13233TIP3    H161190   5.912   0.724   2.443 -1.3472 -0.4624 -0.0443
13233TIP3    H261191   5.886   0.694   2.590  1.2163  1.4479  0.8436
13234TIP3   OH261192   1.857   0.101   4.343  0.1823 -0.4304 -0.1747
13234TIP3    H161193   1.898   0.185   4.364  2.3409 -0.9902 -1.9350
13234TIP3    H261194   1.788   0.122   4.280  1.2900 -0.0465 -1.2749
13235TIP3   OH261195   3.362   0.975   1.980  0.1474  0.6446  0.2963
13235TIP3    H161196   3.422   1.044   2.009  1.3504  0.5273 -1.8809
13235TIP3    H261197   3.278   1.020   1.968  1.0548  1.8663 -1.6484
13236TIP3   OH261198   4.896   4.206   2.200 -0.0137  0.9548  0.2316
13236TIP3    H161199   4.866   4.148   2.130  0.4718  0.6247  0.2876
13236TIP3    H261200   4.987   4.226   2.177  1.1132 -1.5430  2.2881
13237TIP3   OH261201   0.330   5.431  12.156 -0.0903 -0.1446  0.5908
13237TIP3    H161202   0.279   5.499  12.201  0.0646 -0.3201  1.0261
13237TIP3    H261203   0.279   5.351  12.166  0.3496 -0.3585  1.1791
13238TIP3   OH261204   5.416   6.241  12.912  0.0026  0.1356  0.2528
13238TIP3    H161205   5.465   6.170  12.871 -0.0401  0.8906 -1.1421
13238TIP3    H261206   5.447   6.243  13.003  3.5710  1.4808 -0.9072
13239TIP3   OH261207   4.630   2.119  14.347  0.2084  0.1649  0.6537
13239TIP3    H161208   4.679   2.200  14.330  0.0784  0.6178  2.3950
13239TIP3    H261209   4.618   2.117  14.442 -0.3742 -1.5681  0.5653
13240TIP3   OH261210   1.419   0.068  15.282  0.1432 -0.0874  0.1420
13240TIP3    H161211   1.400   0.131  15.351  1.4297 -1.1832  1.5374
13240TIP3    H261212   1.437  -0.014  15.329  2.3404 -0.5407 -1.4292
13241TIP3   OH261213   6.439   3.625  16.615 -0.5307 -0.3319 -0.0828
13241TIP3    H161214   6.514   3.568  16.634  0.0912 -0.2691 -2.2922
13241TIP3    H261215   6.426   3.618  16.521 -0.5183  3.1159 -0.3941
13242TIP3   OH261216   5.835   5.326   4.621  0.4217 -0.5977 -0.2885
13242TIP3    H161217   5.899   5.315   4.550 -0.2827 -0.7117 -0.9155
13242TIP3    H261218   5.850   5.415   4.654  1.5588 -0.9744  0.2264
13243TIP3   OH261219   5.977   1.962  10.972  0.2383 -0.0647  0.6234
13243TIP3    H161220   5.971   2.049  10.934  1.7904 -0.3783 -0.4009
13243TIP3    H261221   6.071   1.946  10.980  0.0347 -2.6218 -1.5557
13244TIP3   OH261222   6.163   0.726  13.125  0.1433 -0.0178 -0.5440
13244TIP3    H161223   6.187   0.645  13.170  0.1246 -0.4710 -1.3406
13244TIP3    H261224   6.097   0.766  13.181 -1.2482 -1.5017 -1.0833
13245TIP3   OH261225   0.326   1.872   6.002 -0.5334 -0.8011  0.0296
13245TIP3    H161226   0.352   1.782   5.982 -0.0553 -1.5453  3.7565
13245TIP3    H261227   0.243   1.864   6.048 -0.1408  0.5994  1.0113
13246TIP3   OH261228   4.944   0.162  11.292 -0.4419 -0.4697  0.8970
13246TIP3    H161229   5.026   0.204  11.316 -0.6565 -0.4712  1.6400
13246TIP3    H261230   4.968   0.102  11.221  0.0110  0.2750  0.4145
13247TIP3   OH261231   3.171   5.862  13.245 -0.1403  0.1813 -0.4654
13247TIP3    H161232   3.144   5.898  13.161 -0.1126  0.4745 -0.3519
13247TIP3    H261233   3.266   5.866  13.243 -0.1393  0.1814 -0.4232
13248TIP3   OH261234   4.726   6.637   2.274 -0.4370 -0.1055  0.3331
13248TIP3    H161235   4.644   6.588   2.264 -1.5061  1.0784  2.7702
13248TIP3    H261236   4.773   6.591   2.343 -0.2825  0.7949  0.8319
13249TIP3   OH261237   5.880   4.490  14.835 -0.2300 -0.7583  0.2780
13249TIP3    H161238   5.864   4.415  14.778 -1.2250  1.4197 -2.4079
13249TIP3    H261239   5.821   4.476  14.910 -0.4937 -2.5592 -0.2445
13250TIP3   OH261240   5.090   3.969  13.012 -0.4678  0.1474  0.0107
13250TIP3    H161241   5.114   3.939  13.099  0.8327  3.1659  0.7684
13250TIP3    H261242   5.173   3.996  12.972 -1.2925  0.6991 -1.3758
13251TIP3   OH261243   2.699   3.259   0.523 -0.1154 -0.7925  0.1328
13251TIP3    H161244   2.686   3.204   0.600  0.2247 -2.1210 -0.7486
13251TIP3    H261245   2.610   3.279   0.493 -0.2413 -0.6573  0.5908
13252TIP3   OH261246   0.619   6.423  14.715 -0.2707 -0.3587  0.8454
13252TIP3    H161247   0.695   6.377  14.750 -1.5106 -1.0766  2.6883
13252TIP3    H261248   0.565   6.443  14.791 -2.8176 -1.5316 -0.5660
13253TIP3   OH261249   6.455   2.626  14.005 -0.0186 -0.3252  0.2594
13253TIP3    H161250   6.390   2.591  13.944 -0.4885 -0.3832  0.7892
13253TIP3    H261251   6.530   2.649  13.950 -1.3805  2.0016 -0.6892
13254TIP3   OH261252   2.533   4.663   0.855  0.1046  0.5776 -0.2365
13254TIP3    H161253   2.531   4.576   0.816 -0.0894  0.9705 -1.1290
13254TIP3    H261254   2.477   4.657   0.932 -0.0648 -0.0264 -0.4075
13255TIP3   OH261255   6.175   4.387   1.899 -0.1326  0.4376  0.1697
13255TIP3    H161256   6.128   4.451   1.953 -1.2724 -0.5526  0.3538
13255TIP3    H261257   6.146   4.302   1.930  0.4129 -0.1729 -0.9375
13256TIP3   OH261258   3.690   4.740  16.982  0.4412 -0.1737  0.1866
13256TIP3    H161259   3.602   4.773  17.000  0.8265  0.7138  0.4654
13256TIP3    H261260   3.728   4.805  16.923  0.2843 -1.4701 -1.3721
13257TIP3   OH261261   3.713   1.963  14.862  0.2307 -0.2438 -0.4504
13257TIP3    H161262   3.662   1.894  14.820 -1.4687  0.3305  0.6441
13257TIP3    H261263   3.705   1.945  14.956 -0.2727  1.4701 -0.1506
13258TIP3   OH261264   6.041   3.384  15.080 -0.3190 -0.0935 -0.4730
13258TIP3    H161265   6.039   3.427  14.995  0.0965 -0.6924 -0.7937
13258TIP3    H261266   5.967   3.322  15.077 -0.8498  0.5159 -0.0558
13259TIP3   OH261267   0.618   2.831   4.126 -0.7040  0.1020  0.1774
13259TIP3    H161268   0.582   2.761   4.180  2.1345 -0.8222  0.9291
13259TIP3    H261269   0.563   2.907   4.147 -3.4260 -1.6868 -0.2009
13260TIP3   OH261270   5.921   6.498  11.261  0.1541 -0.3523 -0.1865
13260TIP3    H161271   5.869   6.447  11.324  1.0599 -1.7474 -0.5458
13260TIP3    H261272   6.003   6.450  11.253  0.9175  1.0025 -0.7903
13261TIP3   OH261273   3.867   2.316  10.695 -0.2606  0.1291 -0.2764
13261TIP3    H161274   3.901   2.368  10.768 -1.9436  2.8092 -1.3256
13261TIP3    H261275   3.848   2.231  10.733  0.7328  0.8716  1.9624
13262TIP3   OH261276   2.068   3.433  11.218  0.4041 -0.3272  0.4747
13262TIP3    H161277   2.020   3.472  11.145 -1.5757 -2.1251  0.7713
13262TIP3    H261278   2.030   3.474  11.296  1.0581  0.0437  0.6026
13263TIP3   OH261279   5.417   4.398   3.270  0.1840 -0.0165  0.1366
13263TIP3    H161280   5.355   4.453   3.318 -0.2807 -0.4866  0.0747
13263TIP3    H261281   5.399   4.309   3.300  0.4592 -0.2156 -0.2905
13264TIP3   OH261282   2.158   1.892  15.516  0.3351  0.4039 -0.5967
13264TIP3    H161283   2.224   1.930  15.458  3.2035 -0.3165  2.0422
13264TIP3    H261284   2.190   1.913  15.604 -0.8028 -3.4832  0.8463
13265TIP3   OH261285   2.047   1.301  12.050  0.3496  0.5998 -0.2782
13265TIP3    H161286   1.972   1.349  12.086 -0.2039 -0.4964  0.0703
13265TIP3    H261287   2.123   1.344  12.089 -0.2208 -0.2610  1.9010
13266TIP3   OH261288   3.829   4.214   5.424 -0.0658  0.0444 -0.0527
13266TIP3    H161289   3.879   4.133   5.415 -2.4798 -1.4354 -0.5635
13266TIP3    H261290   3.767   4.196   5.495 -0.2123  1.6608  0.2498
13267TIP3   OH261291   5.681   1.081  12.423  0.2021  0.0759 -0.2586
13267TIP3    H161292   5.772   1.101  12.446  0.9068  0.1690 -2.8827
13267TIP3    H261293   5.652   1.156  12.371 -1.5570  0.2569  0.9315
13268TIP3   OH261294   0.298   6.274   1.296 -0.0023 -0.4012 -0.5870
13268TIP3    H161295   0.247   6.304   1.221 -0.0810 -0.6457 -0.6326
13268TIP3    H261296   0.379   6.240   1.258  1.4305  2.5563 -0.3086
13269TIP3   OH261297   0.855   5.635  13.631  0.6529 -0.6136  0.4696
13269TIP3    H161298   0.845   5.669  13.542  3.0812  0.2851  0.5062
13269TIP3    H261299   0.860   5.540  13.620 -1.8335 -0.7182 -0.0474
13270TIP3   OH261300   4.206   4.860  15.942 -0.3082 -0.1506 -0.1147
13270TIP3    H161301   4.254   4.835  16.021  0.0726 -1.9545 -0.8945
13270TIP3    H261302   4.220   4.787  15.881  2.0471  2.6180 -3.0163
13271TIP3   OH261303   1.192   6.556  16.894 -0.0304 -0.7388  0.4542
13271TIP3    H161304   1.118   6.548  16.833 -1.1092  1.6437  1.3899
13271TIP3    H261305   1.171   6.496  16.965 -0.0771 -1.5500 -0.2382
13272TIP3   OH261306   5.386   6.116   4.168 -0.1199  0.1981  0.0211
13272TIP3    H161307   5.294   6.095   4.185 -0.4930  1.6000 -0.1973
13272TIP3    H261308   5.434   6.069   4.236 -0.8017 -2.3637 -1.2082
13273TIP3   OH261309   1.540   0.361  11.752  0.2780  0.6759  0.6814
13273TIP3    H161310   1.568   0.423  11.684 -0.7964 -0.3231 -0.7165
13273TIP3    H261311   1.453   0.390  11.777  0.3568  0.5828  1.0587
13274TIP3   OH261312   2.601   6.405  13.673 -0.6565  0.3024 -0.3226
13274TIP3    H161313   2.529   6.394  13.734 -0.5930 -2.4488 -0.6616
13274TIP3    H261314   2.652   6.324  13.681  0.7987  0.9884 -2.1243
13275TIP3   OH261315   4.402   5.477  14.493  0.2965 -0.4125  0.3022
13275TIP3    H161316   4.425   5.562  14.530 -1.2595  0.2660 -0.2317
13275TIP3    H261317   4.355   5.432  14.563 -1.2527  0.2457 -0.2965
13276TIP3   OH261318   3.240   5.801   0.758 -0.0617  0.1407  0.2794
13276TIP3    H161319   3.225   5.792   0.664 -1.1794 -1.2054  0.5548
13276TIP3    H261320   3.226   5.894   0.776 -0.5338  0.2848 -0.7723
13277TIP3   OH261321   3.126   4.323   3.372  0.3280 -0.5194 -0.0099
13277TIP3    H161322   3.185   4.248   3.367  2.5059  1.1114  0.4291
13277TIP3    H261323   3.177   4.397   3.338 -1.3036  1.0400  0.8061
13278TIP3   OH261324   0.268   5.892  12.822  0.0410  0.3248 -0.0074
13278TIP3    H161325   0.215   5.954  12.872 -1.6318 -0.1281 -1.1696
13278TIP3    H261326   0.247   5.807  12.861 -1.7240 -0.0991 -1.8307
13279TIP3   OH261327   2.274   4.138   2.190 -0.3495  0.3114  0.1255
13279TIP3    H161328   2.261   4.051   2.154 -1.2779  0.7348 -0.5935
13279TIP3    H261329   2.187   4.166   2.217  0.1083  0.5986  1.3339
13280TIP3   OH261330   5.389   6.397   5.961  0.2115 -0.0304  0.6455
13280TIP3    H161331   5.386   6.301   5.954  1.6377 -0.1348  1.3434
13280TIP3    H261332   5.414   6.413   6.052  0.7429  1.0002  0.3245
13281TIP3   OH261333   1.382   6.023  14.556 -0.1236  0.0647 -0.7031
13281TIP3    H161334   1.472   6.014  14.585 -0.6734  0.4686  1.2235
13281TIP3    H261335   1.332   5.966  14.615 -1.0069 -1.0014 -2.4338
13282TIP3   OH261336   0.459   5.939   1.985  0.6350 -0.2983 -0.0595
13282TIP3    H161337   0.383   5.979   2.028 -0.2984 -2.3984  0.3451
13282TIP3    H261338   0.455   5.971   1.895 -0.1612  0.3963  0.2172
13283TIP3   OH261339   0.552   6.399  13.543  0.3916 -0.8799  0.5209
13283TIP3    H161340   0.622   6.390  13.608  0.2636 -0.8949  0.6556
13283TIP3    H261341   0.490   6.329  13.565  0.0534 -0.5062  0.7474
13284TIP3   OH261342   6.186   0.403  11.709 -0.0383 -0.3857  0.3509
13284TIP3    H161343   6.175   0.312  11.737  0.2023 -0.4488  0.2494
13284TIP3    H261344   6.267   0.402  11.658 -0.3670 -0.2380 -0.1762
13285TIP3   OH261345   3.673   1.772   2.780  0.4494  0.1169 -0.3897
13285TIP3    H161346   3.727   1.847   2.803 -0.9683  1.2867 -0.7747
13285TIP3    H261347   3.584   1.807   2.774 -0.5101 -1.9545  1.1716
13286TIP3   OH261348   4.074   2.346   0.576  0.0034 -0.5059  0.0719
13286TIP3    H161349   4.097   2.433   0.542  0.3980 -1.2758 -1.7308
13286TIP3    H261350   4.060   2.293   0.497 -0.9268 -1.8942  1.1532
13287TIP3   OH261351   5.935   3.156   1.396 -0.0406  0.5570  0.1636
13287TIP3    H161352   6.019   3.157   1.349 -0.4033  1.6410 -0.4709
13287TIP3    H261353   5.906   3.247   1.395  0.7229  0.8944  3.8980
13288TIP3   OH261354   4.696   2.864   1.111 -0.1039  0.1615  0.5866
13288TIP3    H161355   4.768   2.805   1.134 -1.2201 -1.6975 -0.5819
13288TIP3    H261356   4.623   2.806   1.089 -1.3799  1.9876 -0.1250
13289TIP3   OH261357   4.394   5.773  17.191  0.5470  0.6351  0.2101
13289TIP3    H161358   4.423   5.864  17.195  0.3501  0.7082 -0.0381
13289TIP3    H261359   4.474   5.722  17.197  0.5258  0.7962  2.1460
13290TIP3   OH261360   2.517   2.964  12.270  0.2718  0.6240  0.7753
13290TIP3    H161361   2.600   2.928  12.303  0.8252  2.1372  1.0640
13290TIP3    H261362   2.511   3.051  12.310  0.6602  2.2837 -2.5644
13291TIP3   OH261363   5.561   5.147  16.665  0.2085 -0.1781  0.7543
13291TIP3    H161364   5.520   5.193  16.591 -0.2957  0.0155  1.1557
13291TIP3    H261365   5.595   5.066  16.627  0.4454  0.1770  0.1924
13292TIP3   OH261366   2.305   0.944  15.081 -0.0652  0.0225 -0.2490
13292TIP3    H161367   2.218   0.974  15.056 -0.0097 -1.4622 -2.4049
13292TIP3    H261368   2.294   0.852  15.103  1.0101 -0.2752 -0.9012
13293TIP3   OH261369   5.737   6.722   5.370 -0.3844 -0.1729 -0.1713
13293TIP3    H161370   5.729   6.694   5.279 -0.1721  0.5855 -0.4257
13293TIP3    H261371   5.729   6.641   5.421  0.0376 -0.6706 -0.8885
13294TIP3   OH261372   3.688   3.061   4.297 -0.7937 -0.2383 -0.2132
13294TIP3    H161373   3.711   3.075   4.389  0.1394 -0.1517 -0.4601
13294TIP3    H261374   3.716   2.972   4.278  1.5985  0.6886 -1.1953
13295TIP3   OH261375   1.442   5.338   4.628 -0.3604 -0.0740 -0.5239
13295TIP3    H161376   1.405   5.269   4.573 -0.8121 -0.9753  0.8891
13295TIP3    H261377   1.526   5.302   4.657 -0.1851  0.3473 -0.5080
13296TIP3   OH261378   1.013   0.438   6.535 -0.5475  0.4764 -0.0242
13296TIP3    H161379   1.047   0.381   6.604 -0.9379 -0.0754 -0.2812
13296TIP3    H261380   0.941   0.388   6.495 -0.4643  0.8738 -0.6904
13297TIP3   OH261381   6.259   4.922  11.092  0.8545  0.2023  0.1738
13297TIP3    H161382   6.201   4.846  11.084  0.6239  0.3198  0.6960
13297TIP3    H261383   6.290   4.918  11.183  1.6979  0.1135 -0.1201
13298TIP3   OH261384   4.705   1.472  16.972 -0.3790  0.2918 -0.5597
13298TIP3    H161385   4.672   1.562  16.969  0.6950  0.6608 -2.0847
13298TIP3    H261386   4.789   1.479  17.017 -1.4200 -0.3415  1.5271
13299TIP3   OH261387   4.611   3.036  12.478 -0.1799  0.0210 -0.1226
13299TIP3    H161388   4.621   2.947  12.444 -1.8491  0.3167 -1.4756
13299TIP3    H261389   4.565   3.083  12.408 -2.3677  1.0609  1.9448
13300TIP3   OH261390   4.931   1.463   3.445 -0.5736  0.0666 -0.0847
13300TIP3    H161391   4.961   1.554   3.437 -2.9772  1.0163  0.9194
13300TIP3    H261392   4.880   1.448   3.365  0.9489 -0.8626 -0.8826
13301TIP3   OH261393   4.071   4.581  11.110  0.1878 -0.1280 -0.4539
13301TIP3    H161394   4.101   4.507  11.164  1.9653  0.5064 -0.5297
13301TIP3    H261395   4.150   4.633  11.095 -1.2908  2.6570  0.9279
13302TIP3   OH261396   2.912   0.298   2.219  0.2904  0.0351  0.1912
13302TIP3    H161397   2.850   0.306   2.291 -0.1313  0.2515 -0.1918
13302TIP3    H261398   2.933   0.389   2.194 -0.0657 -0.0335 -0.3794
13303TIP3   OH261399   0.769   3.846   0.903 -0.0655 -0.3572  0.2321
13303TIP3    H161400   0.802   3.756   0.903 -0.1257 -0.3861  1.3787
13303TIP3    H261401   0.845   3.899   0.878 -0.1978 -0.7734 -1.1096
13304TIP3   OH261402   2.592   0.751  14.029  0.1494 -1.2147  0.1214
13304TIP3    H161403   2.610   0.810  13.957  0.0320 -0.8755  0.3686
13304TIP3    H261404   2.602   0.805  14.108 -4.4871 -0.2761  0.2330
13305TIP3   OH261405   4.577   1.028   6.513 -0.3363  0.9357 -0.5428
13305TIP3    H161406   4.605   0.987   6.595  0.4622 -0.7456 -1.6207
13305TIP3    H261407   4.579   0.956   6.449  0.3718  2.5082 -2.3249
13306TIP3   OH261408   5.019   2.956   0.643 -0.2087  0.4578 -0.0252
13306TIP3    H161409   5.115   2.953   0.640 -0.2385 -0.1116 -0.5626
13306TIP3    H261410   4.994   2.995   0.559 -0.5226 -1.3630 -0.7890
13307TIP3   OH261411   6.515   3.113   3.383 -0.4812  0.5009  0.2055
13307TIP3    H161412   6.444   3.169   3.414 -1.2739  1.1295 -2.6547
13307TIP3    H261413   6.574   3.172   3.337  0.3769 -0.4958  0.0167
13308TIP3   OH261414   1.697   2.331  16.501  0.2477  0.1612 -0.4856
13308TIP3    H161415   1.677   2.419  16.469 -0.9602 -0.6498 -2.0122
13308TIP3    H261416   1.650   2.325  16.584 -1.7633  0.0905 -1.5930
13309TIP3   OH261417   4.346   1.901   0.508  0.1040 -0.2582  0.7465
13309TIP3    H161418   4.363   1.867   0.420  2.0341  2.2549  0.0945
13309TIP3    H261419   4.275   1.963   0.496 -1.5129 -1.9245  1.4665
13310TIP3   OH261420   5.491   4.993   1.975 -0.5065  0.4214 -0.4232
13310TIP3    H161421   5.563   4.930   1.982 -1.0685 -0.2344 -0.4667
13310TIP3    H261422   5.523   5.060   1.916  0.7677  1.1095  1.0076
13311TIP3   OH261423   2.705   1.563   1.759  0.0119  0.5162  0.2881
13311TIP3    H161424   2.793   1.594   1.738 -0.3734  0.5148 -1.3778
13311TIP3    H261425   2.679   1.510   1.684 -0.7339 -0.9593  1.5363
13312TIP3   OH261426   6.082   2.205  11.602 -0.3272 -0.5056 -1.0876
13312TIP3    H161427   6.165   2.215  11.650 -0.2521  2.0508 -1.6960
13312TIP3    H261428   6.031   2.145  11.657  1.1251 -0.4631  0.3725
13313TIP3   OH261429   5.479   4.351   0.647  0.6391 -0.1705  0.0255
13313TIP3    H161430   5.484   4.408   0.723 -1.2861 -0.4846  0.4221
13313TIP3    H261431   5.450   4.267   0.682 -2.6359  0.3364 -1.3342
13314TIP3   OH261432   1.638   5.554  14.562 -0.1303 -0.5715  0.2894
13314TIP3    H161433   1.723   5.555  14.606  0.2038 -0.7122 -0.3432
13314TIP3    H261434   1.609   5.463  14.569 -0.2200 -0.5293  0.4809
13315TIP3   OH261435   3.681   0.302   3.696 -0.1386 -0.3825  0.4238
13315TIP3    H161436   3.628   0.351   3.633  0.1160  0.1106  0.5816
13315TIP3    H261437   3.702   0.220   3.652 -0.7517 -0.4351  0.2337
13316TIP3   OH261438   5.226   5.235   4.795  0.1189 -0.3285  0.2762
13316TIP3    H161439   5.210   5.145   4.823  0.4867  0.3170  2.6776
13316TIP3    H261440   5.315   5.234   4.760 -0.0217 -0.9712 -0.0666
13317TIP3   OH261441   1.679   2.966  13.801 -0.1087 -0.1244 -0.3889
13317TIP3    H161442   1.764   2.959  13.843 -1.2908 -0.8997  1.9374
13317TIP3    H261443   1.669   3.059  13.780  1.5076 -0.1146 -1.1536
13318TIP3   OH261444   5.322   3.329  11.535 -0.1493  0.8359 -0.1064
13318TIP3    H161445   5.300   3.273  11.609  1.2732 -1.2893 -1.2130
13318TIP3    H261446   5.251   3.315  11.472  0.3080  0.0652 -0.4657
13319TIP3   OH261447   4.466   2.128  12.328 -0.1109  0.1076 -0.3107
13319TIP3    H161448   4.428   2.192  12.388 -1.2951  0.1469 -1.0923
13319TIP3    H261449   4.426   2.045  12.353  0.8512 -0.2068  0.2073
13320TIP3   OH261450   2.047   1.758  14.144 -0.5020 -0.2015 -0.5237
13320TIP3    H161451   2.056   1.663  14.142  0.1991 -0.1379 -0.6180
13320TIP3    H261452   2.049   1.784  14.052 -0.8656 -0.1110 -0.5057
13321TIP3   OH261453   2.457   3.595   4.619 -0.0168 -0.1729  0.1456
13321TIP3    H161454   2.382   3.651   4.639 -0.8518 -1.5276  0.8998
13321TIP3    H261455   2.467   3.601   4.524  0.2667  1.6843  0.2770
13322TIP3   OH261456   2.552   4.048   3.397  0.2990 -0.1513 -0.5354
13322TIP3    H161457   2.632   4.003   3.368 -0.3068 -1.1095 -0.7583
13322TIP3    H261458   2.494   4.045   3.321  0.0601  0.5578 -0.3803
13323TIP3   OH261459   6.710   2.251  12.665 -0.0373  0.7254 -0.4604
13323TIP3    H161460   6.695   2.320  12.600 -0.9107  0.7281 -0.2633
13323TIP3    H261461   6.805   2.237  12.663 -0.0054  1.0278 -1.4192
13324TIP3   OH261462   3.191   6.196  16.813 -0.2081 -0.3325  0.0524
13324TIP3    H161463   3.184   6.235  16.726 -1.3756  0.7926  0.6321
13324TIP3    H261464   3.282   6.210  16.838 -0.3157  0.9584 -0.2422
13325TIP3   OH261465   2.183   2.723  12.527 -0.3104 -0.6823 -0.2983
13325TIP3    H161466   2.245   2.738  12.456  0.3572 -1.1470  0.1822
13325TIP3    H261467   2.206   2.636  12.561 -0.9825 -0.6984  0.1254
13326TIP3   OH261468   5.297   3.057  12.451  0.3971 -0.5419 -0.3935
13326TIP3    H161469   5.253   2.980  12.486  1.2277 -0.1402  1.5670
13326TIP3    H261470   5.227   3.114  12.420 -0.4401 -0.2496  1.9801
13327TIP3   OH261471   6.673   3.432   2.125 -0.5241 -0.1315 -0.3259
13327TIP3    H161472   6.753   3.379   2.129 -0.6087 -0.3661 -1.6774
13327TIP3    H261473   6.613   3.381   2.071 -1.4080  0.2965  0.2407
13328TIP3   OH261474   0.213   3.322  16.209 -0.4545 -0.0736 -0.4751
13328TIP3    H161475   0.237   3.320  16.302  2.3790 -2.5646 -1.1779
13328TIP3    H261476   0.125   3.286  16.206 -0.3837 -0.4465  1.2033
13329TIP3   OH261477   4.182   3.745  13.914 -0.4422 -0.2338  1.2233
13329TIP3    H161478   4.091   3.738  13.885 -0.6640 -1.8927  2.2872
13329TIP3    H261479   4.233   3.730  13.835 -1.0756 -1.0243  0.9531
13330TIP3   OH261480   3.829   0.822   0.162 -0.1795 -0.8147 -0.0767
13330TIP3    H161481   3.802   0.819   0.254  0.4966 -2.1135  0.0935
13330TIP3    H261482   3.920   0.852   0.164 -0.4483  0.0306 -0.3875
13331TIP3   OH261483   5.646   4.496  13.185 -0.0036  0.0785 -0.0492
13331TIP3    H161484   5.630   4.504  13.091 -3.2425  1.3653  0.5482
13331TIP3    H261485   5.602   4.414  13.209  2.0685 -1.0058  0.1196
13332TIP3   OH261486   0.354   1.354  11.253  0.6014 -0.3419 -0.0947
13332TIP3    H161487   0.408   1.343  11.174 -0.5157  0.4325 -0.9772
13332TIP3    H261488   0.264   1.349  11.221  0.1135  1.8334  0.8312
13333TIP3   OH261489   4.748   6.707   3.065 -0.4541 -0.4107 -0.8060
13333TIP3    H161490   4.834   6.733   3.097 -0.8877 -0.5901  0.5345
13333TIP3    H261491   4.721   6.779   3.007 -0.0446  0.3562 -0.0539
13334TIP3   OH261492   3.311   1.135  13.419 -0.0755  0.4241 -0.3155
13334TIP3    H161493   3.242   1.169  13.362 -0.2822 -1.3313 -1.1568
13334TIP3    H261494   3.348   1.061  13.371  0.3195 -0.5816  1.4659
13335TIP3   OH261495   3.791   6.146   0.363  0.3281 -0.5456 -0.8015
13335TIP3    H161496   3.866   6.103   0.323  1.2473 -0.1600  0.4700
13335TIP3    H261497   3.774   6.222   0.306  1.7802  0.1464 -0.3395
13336TIP3   OH261498   4.813   3.183   2.351  0.2899  0.2286 -0.0048
13336TIP3    H161499   4.816   3.278   2.344 -0.2214  0.2294 -0.2723
13336TIP3    H261500   4.822   3.152   2.261 -1.0019  0.0714 -0.0920
13337TIP3   OH261501   0.253   3.620   1.879  0.1208  0.3944 -0.3097
13337TIP3    H161502   0.223   3.643   1.791  2.9449 -0.1517 -1.4766
13337TIP3    H261503   0.174   3.595   1.926 -1.8378  3.4447 -1.8103
13338TIP3   OH261504   2.343   5.086  12.361  0.4474  0.4841 -0.1489
13338TIP3    H161505   2.409   5.150  12.387  0.1045  1.0693 -0.7141
13338TIP3    H261506   2.260   5.123  12.391  0.4045 -0.3769  0.7964
13339TIP3   OH261507   5.146   5.105  14.124  0.2116  0.0137 -0.2557
13339TIP3    H161508   5.090   5.182  14.121  0.1022 -0.0284  0.4819
13339TIP3    H261509   5.211   5.119  14.056 -0.1248  0.5093 -0.4724
13340TIP3   OH261510   2.114   4.304  14.746 -0.0926 -0.1711 -0.2315
13340TIP3    H161511   2.124   4.394  14.775 -1.1364 -0.3535  0.7282
13340TIP3    H261512   2.151   4.303  14.658  0.6800  0.9962  0.0690
13341TIP3   OH261513   4.641   1.700  14.997 -0.3177  0.0396  0.0170
13341TIP3    H161514   4.728   1.722  14.963 -0.1058  1.4231  1.3904
13341TIP3    H261515   4.609   1.631  14.939  0.9330  0.7945 -1.6029
13342TIP3   OH261516   6.698   5.984  14.432 -0.6825 -0.2455  0.1559
13342TIP3    H161517   6.616   5.984  14.480  0.1389  2.3194  1.7159
13342TIP3    H261518   6.760   5.939  14.490 -0.9485 -2.0834 -0.9690
13343TIP3   OH261519   0.802   0.827   3.888  0.7412 -0.0165 -0.0616
13343TIP3    H161520   0.876   0.776   3.920  1.2303  0.6859 -0.0422
13343TIP3    H261521   0.795   0.805   3.795  1.7932  0.8657 -0.3683
13344TIP3   OH261522   4.923   2.893   1.503  1.1225  0.0104  0.4712
13344TIP3    H161523   4.878   2.937   1.575  0.0960  0.0100 -0.1651
13344TIP3    H261524   4.880   2.808   1.496  0.5167  0.4031 -0.8005
13345TIP3   OH261525   6.620   1.837   1.294  0.6650 -0.1807  0.1835
13345TIP3    H161526   6.634   1.902   1.363  1.0656  0.8758 -0.8753
13345TIP3    H261527   6.529   1.851   1.266  1.4514  1.5771 -1.6752
13346TIP3   OH261528   2.907   6.169  13.578  0.3536 -0.1483 -0.5182
13346TIP3    H161529   2.861   6.167  13.494  0.3049 -0.3646 -0.4876
13346TIP3    H261530   2.997   6.147  13.556  0.2977 -0.4070 -0.4851
13347TIP3   OH261531   1.787   4.784  11.691 -0.1321 -0.4655 -0.0269
13347TIP3    H161532   1.858   4.757  11.750  0.1498  2.1718  0.9055
13347TIP3    H261533   1.832   4.809  11.610 -0.1186 -0.2396  0.0478
13348TIP3   OH261534   4.333   4.066  13.793  0.1166  0.7860  0.1018
13348TIP3    H161535   4.241   4.089  13.806 -0.3499 -1.3121  0.6854
13348TIP3    H261536   4.348   4.078  13.699 -1.0745 -0.0086 -0.1951
13349TIP3   OH261537   4.903   5.912  12.095  0.0362 -0.2081 -0.0989
13349TIP3    H161538   4.986   5.870  12.074 -0.4485 -1.3033  0.1813
13349TIP3    H261539   4.927   5.999  12.127  1.1691 -1.1274  1.5991
13350TIP3   OH261540   5.175   6.483   5.639  0.4804 -0.1420 -0.5513
13350TIP3    H161541   5.089   6.466   5.677  1.2241 -1.4819  0.5871
13350TIP3    H261542   5.207   6.560   5.686 -0.2949  0.6865 -1.3478
13351TIP3   OH261543   6.090   3.183  16.416 -0.0225 -0.1011 -0.3724
13351TIP3    H161544   6.061   3.110  16.362  0.5944 -0.6344 -0.0026
13351TIP3    H261545   6.073   3.154  16.506  2.1477 -0.6756 -0.1165
13352TIP3   OH261546   5.857   3.574  14.182 -0.1037 -0.4943 -0.3081
13352TIP3    H161547   5.870   3.634  14.109  1.7356 -0.7109 -0.1720
13352TIP3    H261548   5.774   3.530  14.162  0.0173 -0.0202 -1.8778
13353TIP3   OH261549   6.177   4.263   4.091  0.1155 -0.3118 -0.0489
13353TIP3    H161550   6.217   4.348   4.073  0.9982 -0.9288 -1.0586
13353TIP3    H261551   6.236   4.221   4.154  1.9824 -1.8616 -2.7184
13354TIP3   OH261552   6.125   0.146  11.739  0.1904 -0.0968  0.3251
13354TIP3    H161553   6.098   0.070  11.688  0.1345  0.8960 -1.1344
13354TIP3    H261554   6.221   0.144  11.736  0.1825  0.0790  0.0264
13355TIP3   OH261555   4.196   0.156  14.234 -0.0244 -0.0251 -0.1637
13355TIP3    H161556   4.104   0.166  14.207 -0.0117 -1.9859 -1.0656
13355TIP3    H261557   4.243   0.220  14.181 -0.5894 -0.6415 -1.4383
13356TIP3   OH261558   0.460   0.577  16.794 -0.0742  0.1814  0.0796
13356TIP3    H161559   0.535   0.600  16.849  0.8472 -1.4099 -0.4954
13356TIP3    H261560   0.400   0.530  16.853  0.6581 -1.0243 -0.1250
13357TIP3   OH261561   3.848   2.686   5.062 -0.2330  0.5863 -0.0716
13357TIP3    H161562   3.883   2.603   5.030  0.6987  0.1765  1.8842
13357TIP3    H261563   3.925   2.739   5.081 -0.7627  1.1100  0.6681
13358TIP3   OH261564   6.702   2.482   2.995 -0.4944 -0.1743 -0.0102
13358TIP3    H161565   6.742   2.420   2.934  0.2324  0.6976 -0.4229
13358TIP3    H261566   6.615   2.499   2.958 -0.7940 -1.1151  0.2315
13359TIP3   OH261567   0.345   3.769   6.620  0.5743  0.1965  0.0358
13359TIP3    H161568   0.257   3.801   6.640  0.7839  0.4673  0.5484
13359TIP3    H261569   0.389   3.844   6.580  0.7500  0.2410  0.3104
13360TIP3   OH261570   2.927   1.748  14.441 -0.2990 -0.7507 -0.3792
13360TIP3    H161571   2.905   1.839  14.420  0.0018 -0.6496 -0.2624
13360TIP3    H261572   2.855   1.697  14.404 -1.0054 -0.3813  0.4633
13361TIP3   OH261573   4.375   5.536  10.782 -0.1508  0.3230  0.1023
13361TIP3    H161574   4.317   5.602  10.743 -1.5260 -1.0050 -0.1348
13361TIP3    H261575   4.356   5.456  10.733  1.8036 -0.1696  0.1182
13362TIP3   OH261576   5.992   2.238   4.091  0.1937 -0.1880  0.3157
13362TIP3    H161577   6.019   2.320   4.133  0.7739 -1.1337  1.8445
13362TIP3    H261578   5.965   2.264   4.003  0.4516  1.6309  0.7437
13363TIP3   OH261579   3.317   5.166   1.955 -0.3708 -0.3176  0.6008
13363TIP3    H161580   3.235   5.120   1.970 -0.7674  0.6476  1.4539
13363TIP3    H261581   3.320   5.233   2.023  0.4006  0.6391 -0.3481
13364TIP3   OH261582   1.873   5.415   0.467 -0.3679 -0.4917 -0.1491
13364TIP3    H161583   1.824   5.458   0.536 -0.5059  0.7241 -0.9796
13364TIP3    H261584   1.904   5.333   0.506  0.0472  0.4403  1.5081
13365TIP3   OH261585   5.565   2.625   2.715  0.0095  0.3475  0.3656
13365TIP3    H161586   5.637   2.658   2.769  0.6075  0.6660 -0.6233
13365TIP3    H261587   5.587   2.652   2.626 -0.4860 -1.0246 -0.1794
13366TIP3   OH261588   0.283   3.130   4.069  0.1520 -0.0503  0.0503
13366TIP3    H161589   0.214   3.067   4.047  0.4206 -0.4468  0.3272
13366TIP3    H261590   0.293   3.184   3.990  1.4459 -1.7605 -0.9905
13367TIP3   OH261591   6.257   0.340  15.014  0.4251 -0.7459 -0.0274
13367TIP3    H161592   6.227   0.316  15.101  1.4076 -0.2138  0.4646
13367TIP3    H261593   6.199   0.292  14.955 -1.0822 -0.1153  0.8962
13368TIP3   OH261594   1.184   3.572  11.298 -0.3101 -0.0570  0.0599
13368TIP3    H161595   1.104   3.623  11.288  0.1908  0.8017  0.3787
13368TIP3    H261596   1.234   3.587  11.218  0.1012  0.4223  0.4035
13369TIP3   OH261597   1.804   4.219  16.620  0.0114  0.8102 -0.3805
13369TIP3    H161598   1.715   4.248  16.599  0.0614  1.0975 -0.1873
13369TIP3    H261599   1.860   4.279  16.572  0.0877 -0.2085 -1.6213
13370TIP3   OH261600   1.000   0.379  12.021 -0.4118 -0.2127 -0.3696
13370TIP3    H161601   1.022   0.458  11.971  0.9109  0.6060  1.4530
13370TIP3    H261602   0.904   0.380  12.026 -0.3296  2.9416  2.1628
13371TIP3   OH261603   4.331   2.435   3.372  0.0712  0.3315 -0.1591
13371TIP3    H161604   4.351   2.509   3.314 -0.1350  0.4215 -0.1135
13371TIP3    H261605   4.256   2.464   3.423  0.9537  0.6984  0.9602
13372TIP3   OH261606   5.258   4.849  11.514  0.1584  0.1082  0.0667
13372TIP3    H161607   5.232   4.927  11.562  0.2982  0.1554  0.0652
13372TIP3    H261608   5.240   4.776  11.573  3.1196  0.3772  1.3403
13373TIP3   OH261609   3.241   6.572   4.097 -0.0142  0.2753 -0.3553
13373TIP3    H161610   3.175   6.639   4.116 -0.6057 -0.7319  1.2044
13373TIP3    H261611   3.316   6.596   4.151 -0.1156 -0.1378 -0.0274
13374TIP3   OH261612   0.119   6.588  11.306 -0.0520  0.4069 -0.2011
13374TIP3    H161613   0.191   6.569  11.366 -0.1475  1.3237  0.2099
13374TIP3    H261614   0.158   6.585  11.219  0.1875 -0.4521 -0.0673
13375TIP3   OH261615   1.135   1.385   5.730 -0.3503 -0.0348  0.4367
13375TIP3    H161616   1.184   1.457   5.689 -0.5873 -0.5021 -0.6870
13375TIP3    H261617   1.046   1.395   5.697 -0.3639 -0.8861  0.2106
13376TIP3   OH261618   4.666   6.389  12.986  0.0451  0.1058  0.1755
13376TIP3    H161619   4.583   6.394  12.939 -0.2887 -0.8708  0.6551
13376TIP3    H261620   4.704   6.306  12.959  2.0487  1.6630 -1.9640
13377TIP3   OH261621   5.270   1.591  12.560  0.1426 -0.0667  0.0128
13377TIP3    H161622   5.338   1.581  12.493  1.2646 -1.8901  1.3793
13377TIP3    H261623   5.204   1.526  12.537  0.2040 -0.2184  0.2529
13378TIP3   OH261624   3.676   2.445   0.673 -0.2675  0.2804  0.8545
13378TIP3    H161625   3.692   2.517   0.734  0.2813  0.4105  0.5574
13378TIP3    H261626   3.653   2.488   0.591 -0.8312  0.1060  0.9136
13379TIP3   OH261627   0.519   3.968   2.142 -0.5967 -0.2673  0.0815
13379TIP3    H161628   0.499   4.057   2.171  1.5515 -0.2124  1.4725
13379TIP3    H261629   0.433   3.925   2.136 -1.5677  1.5931  0.3673
13380TIP3   OH261630   3.147   0.527   1.245  0.2797  0.2875 -0.0056
13380TIP3    H161631   3.205   0.602   1.252  0.1157  0.2725  1.9502
13380TIP3    H261632   3.206   0.451   1.247  0.2642  0.2867  1.5185
13381TIP3   OH261633   5.476   1.927   1.954 -0.4131  0.4733  0.1881
13381TIP3    H161634   5.483   1.876   2.035  1.3447  2.3893  1.2995
13381TIP3    H261635   5.552   1.899   1.902 -0.1075  1.0927  0.2990
13382TIP3   OH261636   0.612   6.052   1.382  0.4208 -0.2721  0.4129
13382TIP3    H161637   0.704   6.041   1.409  0.5764  0.4167  0.1881
13382TIP3    H261638   0.580   5.963   1.369  0.9262 -0.5406  0.9364
13383TIP3   OH261639   3.766   5.941  16.982 -0.3275  0.0815  0.2355
13383TIP3    H161640   3.693   5.939  17.044  0.5632  0.3842  1.2878
13383TIP3    H261641   3.842   5.965  17.034  0.7610 -1.3845 -0.6499
13384TIP3   OH261642   2.066   5.261   1.243  0.8603  0.0229  0.1300
13384TIP3    H161643   1.994   5.309   1.202  0.3528  0.4692  1.5284
13384TIP3    H261644   2.137   5.326   1.249  0.5618  0.2802  0.9592
13385TIP3   OH261645   5.064   4.317   3.389  0.9411  0.0425 -0.9716
13385TIP3    H161646   5.096   4.296   3.477 -0.4627 -0.8630 -0.6515
13385TIP3    H261647   5.046   4.411   3.392  1.1826  0.0701 -0.3797
13386TIP3   OH261648   0.645   3.434   3.318  0.1671  0.5467  0.5780
13386TIP3    H161649   0.702   3.446   3.395  0.0941  2.9604  0.3043
13386TIP3    H261650   0.584   3.508   3.322 -1.0250 -0.3420 -0.7984
13387TIP3   OH261651   2.147   2.988  12.552  0.2174 -0.3919 -0.0647
13387TIP3    H161652   2.072   2.995  12.612  0.9740  0.8162  0.7538
13387TIP3    H261653   2.163   2.894  12.545 -1.1508 -0.6446  0.0275
13388TIP3   OH261654   4.522   3.183   3.512 -0.1612  0.1203 -0.7797
13388TIP3    H161655   4.595   3.120   3.514  0.3858  0.7026  3.3465
13388TIP3    H261656   4.456   3.141   3.458  1.7837 -2.1518 -1.5109
13389TIP3   OH261657   2.366   0.133  12.890 -0.2536  0.0916 -0.5121
13389TIP3    H161658   2.280   0.112  12.927 -0.1072 -0.0832 -0.2726
13389TIP3    H261659   2.425   0.068  12.927  0.3701  1.4578  0.9342
13390TIP3   OH261660   3.576   1.341   2.228 -0.2137  0.1925  0.1165
13390TIP3    H161661   3.605   1.385   2.149  0.6327  1.1145  0.9212
13390TIP3    H261662   3.524   1.407   2.274  0.1418  0.0002  0.8054
13391TIP3   OH261663   2.103   5.350   2.921  0.4335  0.1628  0.3241
13391TIP3    H161664   2.014   5.328   2.893  0.6329 -0.7659  0.3908
13391TIP3    H261665   2.092   5.378   3.012  0.2807 -0.4995  0.5123
13392TIP3   OH261666   0.157   2.131   4.704 -0.0183  0.0425  0.1939
13392TIP3    H161667   0.098   2.181   4.647  0.0079  1.4400  1.3678
13392TIP3    H261668   0.239   2.126   4.656 -0.3290  0.2888 -0.3658
13393TIP3   OH261669   0.374   5.958   2.673 -0.5771  0.2796 -0.3236
13393TIP3    H161670   0.412   5.931   2.756  0.9683 -0.0834 -1.1262
13393TIP3    H261671   0.439   5.932   2.607 -0.9078  2.2425 -1.4705
13394TIP3   OH261672   3.255   5.120  13.796  0.2974 -0.4050  0.2109
13394TIP3    H161673   3.339   5.078  13.815 -0.3423 -2.0940 -0.6251
13394TIP3    H261674   3.212   5.061  13.734 -1.9284 -0.0866  1.3876
13395TIP3   OH261675   4.743   6.055  13.246 -0.2790 -0.2625 -0.3170
13395TIP3    H161676   4.768   5.987  13.308 -1.9319  1.1738  2.0191
13395TIP3    H261677   4.818   6.114  13.244 -0.1368 -0.4202  0.1766
13396TIP3   OH261678   5.868   0.515  12.227  0.2452 -0.0153  0.6828
13396TIP3    H161679   5.955   0.511  12.268  0.9788 -0.3458 -0.8707
13396TIP3    H261680   5.867   0.600  12.182  1.8441 -2.1860 -3.7252
13397TIP3   OH261681   6.502   3.757   5.330  0.6559  0.0127 -0.5778
13397TIP3    H161682   6.592   3.724   5.336  0.8175  0.6482  0.4773
13397TIP3    H261683   6.482   3.791   5.417  0.9565  3.9465 -1.9535
13398TIP3   OH261684   2.059   0.042  12.073 -0.1958  0.3720  0.0012
13398TIP3    H161685   2.108   0.097  12.012 -0.3470 -0.7371 -1.1598
13398TIP3    H261686   2.008  -0.017  12.016  0.3542 -1.2984  1.1955
13399TIP3   OH261687   4.826   3.449   2.353  0.7208  0.3836 -0.2062
13399TIP3    H161688   4.751   3.508   2.341  0.8613  1.4011  3.2371
13399TIP3    H261689   4.870   3.482   2.431  1.4251 -3.6145  1.2415
13400TIP3   OH261690   2.787   5.961  16.137  0.7536 -0.2221  0.5293
13400TIP3    H161691   2.817   5.933  16.224  3.0194  0.1574 -0.0858
13400TIP3    H261692   2.793   5.881  16.084 -0.9290 -0.5285  0.7704
13401TIP3   OH261693   3.700   1.426   5.148 -0.0545 -0.5592  0.4282
13401TIP3    H161694   3.760   1.374   5.202 -0.4243  0.1093  1.4832
13401TIP3    H261695   3.679   1.368   5.075 -0.4081 -1.8824  1.5615
13402TIP3   OH261696   3.665   0.126   0.169 -0.3176  0.4984 -0.0203
13402TIP3    H161697   3.744   0.177   0.183 -0.2449 -0.1490  2.0373
13402TIP3    H261698   3.594   0.186   0.190 -0.3484  0.7030 -0.6850
13403TIP3   OH261699   0.442   6.072  12.355  0.2739 -1.1369  0.4080
13403TIP3    H161700   0.347   6.066  12.371 -0.1783 -0.5792 -1.8145
13403TIP3    H261701   0.482   6.028  12.430 -1.7095 -0.6253  1.8097
13404TIP3   OH261702   2.805   1.745   0.789 -0.2381  0.2174 -0.5775
13404TIP3    H161703   2.872   1.810   0.767 -0.2113  0.0689 -0.9444
13404TIP3    H261704   2.855   1.666   0.812 -0.2031  0.9289  1.9189
13405TIP3   OH261705   5.956   6.047   5.766 -0.5951  0.2645  0.7557
13405TIP3    H161706   5.892   6.005   5.824  0.2135 -1.0529  0.7272
13405TIP3    H261707   6.017   6.090   5.825  0.0293 -0.7809  0.8775
13406TIP3   OH261708   0.121   0.930   3.103  0.3257  0.0123  0.6642
13406TIP3    H161709   0.034   0.952   3.070  2.0330  2.4876 -2.4938
13406TIP3    H261710   0.155   0.866   3.040  0.5627 -1.5203  2.2979
13407TIP3   OH261711   3.164   4.070  14.791 -0.2157  0.0742  0.7352
13407TIP3    H161712   3.150   3.990  14.842  0.4162 -0.3140  0.2966
13407TIP3    H261713   3.259   4.077  14.783 -0.3300 -0.1221 -0.7995
13408TIP3   OH261714   5.425   6.341   5.631  0.6692  0.0702  0.6771
13408TIP3    H161715   5.462   6.376   5.550 -1.8046 -1.6872 -1.2611
13408TIP3    H261716   5.361   6.408   5.658  1.1868  0.4528  0.9722
13409TIP3   OH261717   4.813   5.824   2.828  1.1322  0.0547 -0.2900
13409TIP3    H161718   4.805   5.732   2.853 -0.8961 -0.1069 -1.4787
13409TIP3    H261719   4.855   5.821   2.742  1.9396  0.2936  0.0924
13410TIP3   OH261720   5.710   2.206  16.145 -0.2680 -0.3205  0.5395
13410TIP3    H161721   5.794   2.240  16.115 -1.3931  0.7387 -1.5696
13410TIP3    H261722   5.667   2.175  16.065 -1.9881 -0.5906  1.5390
13411TIP3   OH261723   6.396   5.148  14.628 -0.1247 -0.2774 -0.4852
13411TIP3    H161724   6.319   5.106  14.589 -1.3563  0.2915  1.2577
13411TIP3    H261725   6.443   5.076  14.670 -0.5381 -0.3982 -0.2256
13412TIP3   OH261726   2.221   4.860   2.376 -0.0123 -0.0107 -0.1262
13412TIP3    H161727   2.241   4.776   2.335  1.1975  0.1625  0.1015
13412TIP3    H261728   2.223   4.923   2.303  1.7329  0.2328  0.1137
13413TIP3   OH261729   1.282   1.454   6.328  0.4827 -0.0950  0.3187
13413TIP3    H161730   1.242   1.473   6.413 -0.2997 -0.8477  0.1143
13413TIP3    H261731   1.298   1.541   6.290  0.8959  0.2507  1.2514
13414TIP3   OH261732   3.372   4.801   3.182  0.2335 -0.0929  0.3031
13414TIP3    H161733   3.335   4.838   3.263 -1.4456 -1.5456  0.2453
13414TIP3    H261734   3.459   4.772   3.207  1.5060  3.5522  0.4150
13415TIP3   OH261735   0.407   5.451  17.087  0.8065 -0.8089  0.3006
13415TIP3    H161736   0.462   5.530  17.088  1.8429 -1.5257  0.2403
13415TIP3    H261737   0.417   5.416  16.999 -1.5278  0.2769 -0.4362
13416TIP3   OH261738   4.317   3.606   1.242  0.2025  0.0194  0.2404
13416TIP3    H161739   4.396   3.551   1.238  1.0215  1.1061  0.9424
13416TIP3    H261740   4.351   3.696   1.236 -0.9682  0.5010  0.7729
13417TIP3   OH261741   0.376   1.554  10.829 -0.7256 -0.1376 -0.0960
13417TIP3    H161742   0.464   1.588  10.817 -1.5193  1.6248 -1.2430
13417TIP3    H261743   0.352   1.579  10.919 -0.7110  0.9589 -0.3925
13418TIP3   OH261744   0.014   4.592  11.273 -0.0496  0.8121 -0.0287
13418TIP3    H161745   0.053   4.505  11.271 -2.9164 -0.5324  0.4895
13418TIP3    H261746   0.010   4.619  11.181  1.3077  0.6392 -0.1444
13419TIP3   OH261747   5.494   1.538  12.758  0.3702  0.2785  0.0683
13419TIP3    H161748   5.412   1.579  12.731  0.0161 -0.1740  0.4562
13419TIP3    H261749   5.471   1.488  12.835  0.9509 -0.1025 -0.0072
13420TIP3   OH261750   0.476   0.575  10.785 -0.2648 -0.0507  0.1755
13420TIP3    H161751   0.566   0.547  10.801 -0.4755 -1.1220 -0.4168
13420TIP3    H261752   0.443   0.512  10.721 -1.3395  0.5168  0.1585
13421TIP3   OH261753   6.198   2.553   6.151  0.1753 -0.1997 -0.3394
13421TIP3    H161754   6.146   2.594   6.220 -1.1217 -1.7239 -0.3886
13421TIP3    H261755   6.249   2.625   6.114  0.6394  0.7153  1.9554
13422TIP3   OH261756   4.521   5.505  15.442 -0.0330  0.0573 -0.2793
13422TIP3    H161757   4.588   5.561  15.403  2.1114 -1.9272  0.5181
13422TIP3    H261758   4.509   5.434  15.380  1.8218 -1.9494  1.5871
13423TIP3   OH261759   2.552   6.168   5.257  0.3873  0.2811 -0.5243
13423TIP3    H161760   2.494   6.092   5.256  1.5622 -0.6669  0.7093
13423TIP3    H261761   2.501   6.236   5.301  0.4587 -0.7802  1.2482
13424TIP3   OH261762   1.564   6.515   1.315  0.0109  0.1151 -0.6270
13424TIP3    H161763   1.610   6.578   1.370  0.4768 -0.9778  0.2392
13424TIP3    H261764   1.623   6.499   1.242  0.1729  0.1681 -0.5069
13425TIP3   OH261765   2.682   5.365   1.780  0.1455 -0.4379 -0.4764
13425TIP3    H161766   2.712   5.427   1.846  1.5659 -0.9096 -0.6505
13425TIP3    H261767   2.595   5.339   1.808 -0.5086  1.7046 -0.4472
13426TIP3   OH261768   0.200   6.163   5.048 -0.5820  0.1074  0.2241
13426TIP3    H161769   0.260   6.091   5.032  2.2921  2.0336  1.7770
13426TIP3    H261770   0.181   6.199   4.962  0.9368 -0.2455 -0.2741
13427TIP3   OH261771   5.866   0.063  12.565 -0.1909  0.7619  0.8509
13427TIP3    H161772   5.814   0.139  12.593 -0.2944  0.8092  0.5283
13427TIP3    H261773   5.853   0.059  12.471 -2.2470 -1.1815  1.1809
13428TIP3   OH261774   0.842   2.532  13.944 -0.0739 -0.5470  0.2136
13428TIP3    H161775   0.827   2.440  13.969  0.1859 -0.7696 -0.4458
13428TIP3    H261776   0.829   2.533  13.849  0.8751 -0.0847  0.0875
13429TIP3   OH261777   4.173   4.172   0.846  0.4437 -0.6918  0.0256
13429TIP3    H161778   4.106   4.108   0.824  0.1873 -0.9807  1.5769
13429TIP3    H261779   4.211   4.197   0.762  0.0288 -2.3041 -0.6611
13430TIP3   OH261780   1.430   6.020  15.034 -0.0789 -0.2195 -0.3993
13430TIP3    H161781   1.390   5.934  15.022 -1.4672  0.2112  0.9218
13430TIP3    H261782   1.521   6.009  15.008 -0.0426 -2.3070  0.5804
13431TIP3   OH261783   5.581   1.310   4.435  0.4961  0.0010 -0.0499
13431TIP3    H161784   5.505   1.352   4.475  0.9266  1.2031 -0.4464
13431TIP3    H261785   5.651   1.319   4.500  1.0443  1.4457 -0.8217
13432TIP3   OH261786   4.889   1.044   4.769  0.4116  0.2959  0.4794
13432TIP3    H161787   4.944   1.117   4.741  0.1716 -0.2120 -1.3956
13432TIP3    H261788   4.810   1.085   4.804  0.2647  0.9341 -0.5963
13433TIP3   OH261789   0.029   0.347   0.698 -0.0233 -0.2986  0.0356
13433TIP3    H161790   0.048   0.256   0.721  0.0257  0.3241  2.7300
13433TIP3    H261791   0.115   0.385   0.678  0.2825 -0.2437  1.3820
13434TIP3   OH261792   6.320   1.609  16.428 -0.2849 -0.4896  0.8205
13434TIP3    H161793   6.409   1.619  16.394 -0.4849 -1.6796 -0.0971
13434TIP3    H261794   6.331   1.588  16.520  0.4610 -1.9450  0.4208
13435TIP3   OH261795   3.492   2.898   4.666 -0.4057  0.0398 -0.2098
13435TIP3    H161796   3.403   2.901   4.633 -0.6565  1.3269  0.5741
13435TIP3    H261797   3.499   2.812   4.709 -0.9932 -0.3999 -0.9774
13436TIP3   OH261798   2.715   4.780  14.633  0.2630 -0.6304  0.3102
13436TIP3    H161799   2.650   4.807  14.568  2.2540 -1.0094 -1.9570
13436TIP3    H261800   2.717   4.850  14.697 -1.6055 -0.1256 -0.1672
13437TIP3   OH261801   2.867   5.063   0.407 -0.0642 -0.0741  0.2037
13437TIP3    H161802   2.947   5.038   0.453  0.5599 -0.3602 -1.0225
13437TIP3    H261803   2.856   4.997   0.339 -1.5164 -0.2071  0.5498
13438TIP3   OH261804   4.059   0.895  13.625 -0.0649  0.4852  0.0820
13438TIP3    H161805   4.021   0.933  13.545  1.5013 -2.8492 -2.3884
13438TIP3    H261806   3.984   0.880  13.682 -1.5453  0.7913 -1.7176
13439TIP3   OH261807   0.621   1.401  15.597  0.2222 -0.4562  0.6788
13439TIP3    H161808   0.674   1.384  15.519 -1.2219 -0.3786 -0.3318
13439TIP3    H261809   0.685   1.412  15.667  1.6018  0.8300 -0.7398
13440TIP3   OH261810   4.362   0.764  15.319  0.4229  0.0067  0.0234
13440TIP3    H161811   4.382   0.683  15.366  0.0677  1.0503  2.0521
13440TIP3    H261812   4.273   0.787  15.349  1.0494  1.8484  0.5604
13441TIP3   OH261813   3.972   3.347   3.076 -0.4740 -0.7410 -0.2272
13441TIP3    H161814   3.999   3.399   3.000  0.2974  1.8149  1.7496
13441TIP3    H261815   4.052   3.336   3.128 -0.8984 -2.8601  0.0411
13442TIP3   OH261816   5.769   3.759   4.728 -0.1012 -0.4829  0.0484
13442TIP3    H161817   5.839   3.813   4.764  0.1830 -1.6974  1.3422
13442TIP3    H261818   5.696   3.768   4.790 -0.9218  0.3513 -1.0113
13443TIP3   OH261819   4.513   0.788   5.566  0.3271  0.7622  0.1846
13443TIP3    H161820   4.477   0.708   5.604 -1.5091  1.2591 -0.4574
13443TIP3    H261821   4.498   0.855   5.632  0.8052  0.8153  0.2400
13444TIP3   OH261822   6.068   6.793   4.058 -0.1241 -0.0117  0.0696
13444TIP3    H161823   6.150   6.750   4.081 -0.0803 -0.1660 -0.3861
13444TIP3    H261824   6.077   6.881   4.094 -0.4151 -0.5215  1.4561
13445TIP3   OH261825   6.237   0.510   4.432  0.0836 -0.1578 -0.4015
13445TIP3    H161826   6.243   0.600   4.462 -3.0714 -0.7438  2.1902
13445TIP3    H261827   6.238   0.517   4.336  0.8741  2.5217 -0.2380
13446TIP3   OH261828   4.746   6.546   0.669  0.4646  0.5361  0.0474
13446TIP3    H161829   4.716   6.581   0.753  1.3141 -0.1976  0.6732
13446TIP3    H261830   4.812   6.609   0.639  1.4784 -0.1380  0.8274
13447TIP3   OH261831   2.083   3.172  12.927  0.3263 -1.0714 -0.5108
13447TIP3    H161832   2.062   3.217  13.009  0.0724 -2.0433 -0.0260
13447TIP3    H261833   2.082   3.079  12.951  0.3896 -1.3496 -1.5869
13448TIP3   OH261834   3.681   0.155   4.516  0.6215  0.2009 -0.1503
13448TIP3    H161835   3.650   0.116   4.434  0.1640 -0.0389  0.1326
13448TIP3    H261836   3.607   0.145   4.576  1.6437 -1.3778  0.8816
13449TIP3   OH261837   2.859   6.686   3.895  0.3702  0.3900 -0.0057
13449TIP3    H161838   2.874   6.652   3.984 -0.9204 -2.4538 -0.8161
13449TIP3    H261839   2.940   6.732   3.873  0.8135  0.9357  2.5399
13450TIP3   OH261840   5.959   2.216  11.989  0.6677 -0.4216 -0.6990
13450TIP3    H161841   5.891   2.268  12.032 -0.2221 -0.9161 -1.4867
13450TIP3    H261842   6.018   2.191  12.060 -0.5426 -0.8600  0.1806
13451TIP3   OH261843   5.663   5.231  13.024  0.0095  0.2790 -0.2799
13451TIP3    H161844   5.583   5.264  13.065 -1.9965 -2.1732 -2.1019
13451TIP3    H261845   5.705   5.309  12.987 -0.5544  1.8399  2.2248
13452TIP3   OH261846   5.235   6.274   1.598 -0.2230  0.2615 -0.2453
13452TIP3    H161847   5.312   6.259   1.543 -0.4890  0.5647 -0.7077
13452TIP3    H261848   5.251   6.358   1.640 -0.7194  0.7763 -1.0687
13453TIP3   OH261849   2.820   1.191   6.242 -0.2659 -0.0747  0.5072
13453TIP3    H161850   2.804   1.100   6.268 -1.9781  0.2686  0.7147
13453TIP3    H261851   2.769   1.243   6.304 -0.7569  0.9510 -0.7288
13454TIP3   OH261852   3.223   5.421  16.561 -0.6099 -0.4731  0.2347
13454TIP3    H161853   3.200   5.329  16.572 -0.3900 -0.6287 -0.5971
13454TIP3    H261854   3.318   5.422  16.560 -0.6044 -0.1672  0.7937
13455TIP3   OH261855   1.592   4.393   0.504  0.4842 -0.6125  0.1399
13455TIP3    H161856   1.540   4.467   0.537  0.7158  0.2336 -1.3530
13455TIP3    H261857   1.627   4.424   0.421 -0.9736 -3.0857 -1.4550
13456TIP3   OH261858   5.604   5.515   2.817  0.2982  0.4048 -0.0959
13456TIP3    H161859   5.611   5.419   2.817  0.9909  0.3663 -3.5474
13456TIP3    H261860   5.554   5.535   2.895 -1.9086 -2.9788 -0.4988
13457TIP3   OH261861   6.811   3.427   0.648 -0.0568 -0.4690 -0.0915
13457TIP3    H161862   6.852   3.484   0.584 -0.5410  0.1330  0.1372
13457TIP3    H261863   6.720   3.420   0.620 -0.7078  1.2093  1.4874
13458TIP3   OH261864   1.109   3.145  13.799 -0.6332 -0.0710 -0.0542
13458TIP3    H161865   1.118   3.215  13.864 -0.5733 -0.5264  0.4380
13458TIP3    H261866   1.170   3.077  13.829 -2.2213 -1.2226  0.6941
13459TIP3   OH261867   4.218   4.206  15.686  0.5062 -0.1881  0.2473
13459TIP3    H161868   4.281   4.249  15.743  0.3794 -0.4813  0.6074
13459TIP3    H261869   4.132   4.234  15.719  0.4460  2.1719 -1.7245
13460TIP3   OH261870   3.792   0.590  16.774  0.3749  0.4279  0.0312
13460TIP3    H161871   3.748   0.506  16.761  0.1352  1.0120 -3.3132
13460TIP3    H261872   3.882   0.575  16.747  0.2869  1.2512 -0.7638
13461TIP3   OH261873   0.524   0.600   3.557 -0.1220  0.0127 -0.2378
13461TIP3    H161874   0.475   0.593   3.639  0.9237 -1.3526  0.2911
13461TIP3    H261875   0.589   0.668   3.574 -0.2439  0.0942 -0.1013
13462TIP3   OH261876   4.173   6.195  14.360 -0.3918 -0.0365  0.1107
13462TIP3    H161877   4.247   6.237  14.316  1.0053 -1.6477  0.8538
13462TIP3    H261878   4.126   6.149  14.290  0.1473 -0.1966 -0.1478
13463TIP3   OH261879   6.642   1.961  14.390  0.2783  0.5784 -0.0384
13463TIP3    H161880   6.560   2.009  14.404  0.7740  1.6555 -0.8022
13463TIP3    H261881   6.646   1.899  14.464  0.0083  2.2147  1.3728
13464TIP3   OH261882   5.043   4.592  14.890 -0.0635  0.2615 -0.0066
13464TIP3    H161883   4.967   4.548  14.926 -0.2909  0.6267 -0.0352
13464TIP3    H261884   5.011   4.680  14.866  0.1123  0.0790 -0.9502
13465TIP3   OH261885   5.336   6.244   0.323  0.5822  1.1166 -0.5254
13465TIP3    H161886   5.427   6.265   0.344  1.3898  0.3920 -3.1678
13465TIP3    H261887   5.336   6.229   0.229 -2.4633  2.0253 -0.7095
13466TIP3   OH261888   0.432   5.986   1.691 -0.2248  0.0304 -0.3265
13466TIP3    H161889   0.387   5.938   1.622  0.2936  0.8826 -1.2805
13466TIP3    H261890   0.407   6.078   1.676 -0.2586  0.2038  0.7395
13467TIP3   OH261891   3.954   5.008  15.981  0.1338 -0.1647 -0.4060
13467TIP3    H161892   4.047   5.027  15.964  0.3899  0.1147  1.1824
13467TIP3    H261893   3.951   4.913  15.992  0.0614 -0.2828 -1.4191
13468TIP3   OH261894   0.742   5.869  13.716 -0.5495  0.0936 -0.0165
13468TIP3    H161895   0.823   5.916  13.698 -1.1922  0.6877 -1.4368
13468TIP3    H261896   0.761   5.778  13.695  0.6558 -0.3225  2.5932
13469TIP3   OH261897   1.209   2.724   4.170  0.1985  0.1107 -0.5426
13469TIP3    H161898   1.269   2.650   4.158  0.1903  0.1665 -0.9392
13469TIP3    H261899   1.263   2.801   4.153 -0.4030  0.1023 -2.7469
13470TIP3   OH261900   5.080   4.159  12.397  0.3126 -0.0358 -0.0864
13470TIP3    H161901   5.036   4.203  12.324 -0.3779  1.9044  1.4271
13470TIP3    H261902   5.172   4.181  12.385 -0.0727  2.3107  0.8979
13471TIP3   OH261903   3.515   1.527  14.640  0.4425  0.4575  0.2777
13471TIP3    H161904   3.479   1.571  14.563 -0.5385  0.2955  0.6365
13471TIP3    H261905   3.558   1.449  14.605  0.3121  0.5725 -0.1430
13472TIP3   OH261906   5.688   3.255   5.037 -0.2785  0.0148  0.3632
13472TIP3    H161907   5.654   3.226   4.952  0.3452  0.5341 -0.0761
13472TIP3    H261908   5.664   3.348   5.042 -1.8152 -0.4303  1.5259
13473TIP3   OH261909   4.966   3.779   4.157 -0.2302 -0.7744  0.8815
13473TIP3    H161910   4.913   3.856   4.176 -0.8207 -1.4699  2.1443
13473TIP3    H261911   4.960   3.726   4.237 -0.2967 -2.3779 -0.1584
13474TIP3   OH261912   2.105   3.554  16.049  0.2459 -0.2910  0.2437
13474TIP3    H161913   2.078   3.638  16.011 -0.5584 -0.0986  1.2324
13474TIP3    H261914   2.071   3.489  15.988  0.0226  0.0562 -0.0055
13475TIP3   OH261915   1.098   2.352   5.789 -0.2512 -0.3364  0.3263
13475TIP3    H161916   1.104   2.448   5.786 -1.6028 -0.1792  2.0397
13475TIP3    H261917   1.179   2.325   5.832  0.2227  0.0021 -0.3300
13476TIP3   OH261918   5.665   1.463   5.781  0.3235 -0.4740  0.3166
13476TIP3    H161919   5.707   1.380   5.755  1.7419 -0.0087  1.0949
13476TIP3    H261920   5.709   1.488   5.862 -0.3531  0.8630  0.2797
13477TIP3   OH261921   6.475   3.487   4.066  0.3310  0.6207  0.6283
13477TIP3    H161922   6.563   3.487   4.029  0.1299 -0.5442  0.1303
13477TIP3    H261923   6.421   3.533   4.001  0.1044 -0.8351 -0.2245
13478TIP3   OH261924   5.852   5.346  15.905 -0.4146  0.2129  0.4855
13478TIP3    H161925   5.880   5.301  15.825 -0.8058  2.3568 -0.9139
13478TIP3    H261926   5.757   5.356  15.893 -0.4967  0.3905  1.3123
13479TIP3   OH261927   3.246   0.641   4.319 -0.5383 -0.2639  0.0604
13479TIP3    H161928   3.224   0.719   4.370 -1.8591 -0.1456 -0.6760
13479TIP3    H261929   3.264   0.675   4.231  1.3588 -0.5098  0.3320
13480TIP3   OH261930   3.436   4.733   1.205  0.3822  0.0170 -0.0134
13480TIP3    H161931   3.358   4.692   1.241 -0.3023  0.6833 -0.7362
13480TIP3    H261932   3.506   4.711   1.267 -0.3081 -0.8664  0.4436
13481TIP3   OH261933   1.474   1.614  16.654  0.2944 -0.0465 -0.2203
13481TIP3    H161934   1.484   1.519  16.646 -2.7475 -0.3415 -1.2787
13481TIP3    H261935   1.416   1.625  16.730 -0.6921  0.8676 -1.0962
13482TIP3   OH261936   1.286   1.982  15.713 -0.0470  0.4052  0.3895
13482TIP3    H161937   1.231   2.001  15.789 -0.2608 -0.6482  0.5065
13482TIP3    H261938   1.223   1.957  15.644  0.2314 -0.0373  0.2942
13483TIP3   OH261939   0.109   1.598   1.568 -0.6123 -0.4857  0.3725
13483TIP3    H161940   0.021   1.607   1.606 -0.6845  0.1021  0.0729
13483TIP3    H261941   0.094   1.604   1.473 -0.3203 -0.9714  0.2986
13484TIP3   OH261942   3.923   0.080   4.651 -0.5010 -0.0038  0.4506
13484TIP3    H161943   3.969   0.116   4.727 -1.8844  2.2522  0.2700
13484TIP3    H261944   3.840   0.128   4.648 -1.2972 -1.4260 -1.3545
13485TIP3   OH261945   3.660   1.670  15.792 -0.0680 -0.4484  0.1841
13485TIP3    H161946   3.627   1.628  15.712  0.2955  0.2245 -0.3162
13485TIP3    H261947   3.682   1.596  15.849  2.9134 -1.0680 -1.6130
13486TIP3   OH261948   3.471   6.774   0.934  0.2972  0.1615 -0.8071
13486TIP3    H161949   3.402   6.838   0.953  0.8882 -0.0132  2.1543
13486TIP3    H261950   3.553   6.824   0.942  0.8425 -1.1607  2.8684
13487TIP3   OH261951   0.402   3.193   2.246 -0.0597 -1.0137  0.0873
13487TIP3    H161952   0.359   3.218   2.328  3.3411  0.3708  1.5272
13487TIP3    H261953   0.389   3.098   2.241 -1.1416 -0.9808  1.7492
13488TIP3   OH261954   5.120   4.354   2.088  0.1276 -0.4961 -0.2581
13488TIP3    H161955   5.154   4.413   2.156 -0.9610 -1.1658  0.8943
13488TIP3    H261956   5.122   4.407   2.008 -1.0520  1.2303  0.8019
13489TIP3   OH261957   1.398   5.756   3.105 -0.4696 -0.0761  0.3181
13489TIP3    H161958   1.322   5.737   3.050  0.9636  1.5121 -2.2726
13489TIP3    H261959   1.370   5.732   3.194 -3.6601 -0.3496 -0.7171
13490TIP3   OH261960   4.653   2.752   1.483  0.0948 -0.0616  0.1738
13490TIP3    H161961   4.691   2.741   1.395 -3.5347 -0.0421 -1.4708
13490TIP3    H261962   4.664   2.667   1.524  1.0876 -0.3223 -0.5999
13491TIP3   OH261963   6.272   0.669  11.741  0.0678 -0.4820 -0.6947
13491TIP3    H161964   6.322   0.688  11.662 -0.3571 -0.0288 -0.8548
13491TIP3    H261965   6.246   0.577  11.731 -1.1170 -0.0530 -1.7195
13492TIP3   OH261966   0.941   2.390   5.462  0.4187  0.7062  0.5732
13492TIP3    H161967   0.867   2.348   5.505  0.7231 -0.3257  0.1134
13492TIP3    H261968   1.015   2.332   5.478  0.8014  0.9451 -0.2751
13493TIP3   OH261969   0.430   3.882  10.820 -0.3882  0.3123 -0.5456
13493TIP3    H161970   0.512   3.903  10.775  0.5487 -1.5632  0.2644
13493TIP3    H261971   0.438   3.925  10.905  0.0358 -0.4015 -0.2217
13494TIP3   OH261972   2.850   2.399   4.697 -0.2809  0.5433  0.2800
13494TIP3    H161973   2.938   2.363   4.686 -0.7954 -0.8080  0.4715
13494TIP3    H261974   2.796   2.323   4.720 -1.7005  1.1808 -0.8945
13495TIP3   OH261975   5.808   0.061   2.822  0.1367  0.4111  0.2144
13495TIP3    H161976   5.867   0.024   2.887  0.5876  0.6902 -0.0390
13495TIP3    H261977   5.765  -0.016   2.783  1.2769  0.1225 -0.5062
13496TIP3   OH261978   4.141   6.334   4.283 -0.0950  0.0542 -0.0495
13496TIP3    H161979   4.176   6.295   4.203  0.5417  0.4568  0.0319
13496TIP3    H261980   4.133   6.261   4.344  0.7543 -0.0073 -0.0149
13497TIP3   OH261981   5.266   6.327  15.543 -0.6575 -0.0444  0.0494
13497TIP3    H161982   5.264   6.420  15.565 -0.4320  0.1754 -0.8205
13497TIP3    H261983   5.344   6.317  15.487 -0.8157 -0.7110 -0.0613
13498TIP3   OH261984   4.969   2.263   0.202  0.1354 -0.4382  0.4219
13498TIP3    H161985   4.888   2.215   0.217  0.9008 -1.3850  1.5697
13498TIP3    H261986   5.037   2.209   0.242  1.3043  0.4709 -0.3062
13499TIP3   OH261987   4.523   6.693  16.183 -0.1478 -0.1157  0.5442
13499TIP3    H161988   4.496   6.776  16.144 -1.2243 -0.0616  1.3941
13499TIP3    H261989   4.482   6.692  16.269 -1.6008 -2.3089 -0.1333
13500TIP3   OH261990   2.905   0.871  16.250 -0.1306  0.0329 -0.0986
13500TIP3    H161991   2.949   0.956  16.250  0.2654 -0.1737 -0.2417
13500TIP3    H261992   2.812   0.893  16.249 -0.0300  0.4667 -0.0860
13501TIP3   OH261993   4.498   1.313  15.702 -0.5248 -0.2702  0.3335
13501TIP3    H161994   4.505   1.408  15.712  0.8328 -0.4595  1.3545
13501TIP3    H261995   4.418   1.289  15.750 -1.5751  0.5001 -1.0224
13502TIP3   OH261996   0.924   0.422  13.527 -0.2050 -0.1993  0.3974
13502TIP3    H161997   0.849   0.367  13.507  0.6451 -1.3136  0.2305
13502TIP3    H261998   0.997   0.380  13.482  0.4476  1.1094  0.1964
13503TIP3   OH261999   0.135   4.868  11.322 -0.1621 -0.9126 -0.4500
13503TIP3    H162000   0.047   4.878  11.285 -0.6615 -0.2464  0.8871
13503TIP3    H262001   0.193   4.869  11.246 -1.3591 -1.9915 -1.3940
13504TIP3   OH262002   4.096   1.105  12.874  0.1615  0.1488  0.4424
13504TIP3    H162003   4.062   1.064  12.794  0.5228  2.4523 -0.9282
13504TIP3    H262004   4.190   1.090  12.870 -0.1305 -2.4304  2.0449
13505TIP3   OH262005   5.999   4.629  14.424  0.6612 -0.1870  0.1233
13505TIP3    H162006   5.933   4.563  14.402 -0.0908  0.3537  0.7272
13505TIP3    H262007   6.049   4.590  14.496  0.9600 -0.5736 -0.2962
13506TIP3   OH262008   1.443   0.099   4.937  0.3521  0.0483  0.8796
13506TIP3    H162009   1.384   0.073   5.008 -2.5823  0.8426 -1.1689
13506TIP3    H262010   1.442   0.026   4.876 -0.6851  1.1382 -0.4602
13507TIP3   OH262011   5.847   6.443  11.891  0.4382 -0.4040  0.0131
13507TIP3    H162012   5.885   6.486  11.967 -1.0655 -0.0266  0.5619
13507TIP3    H262013   5.783   6.382  11.928 -0.3791 -0.1385 -0.9514
13508TIP3   OH262014   5.908   1.762  15.710  0.5333  0.2250  0.3094
13508TIP3    H162015   5.983   1.734  15.656  1.2065  2.1555  0.2012
13508TIP3    H262016   5.891   1.852  15.681 -1.2985  0.0874  0.9368
13509TIP3   OH262017   0.405   6.172   5.515 -0.1748 -0.3675 -0.1741
13509TIP3    H162018   0.496   6.142   5.520 -0.2344 -0.5835 -0.3490
13509TIP3    H262019   0.371   6.163   5.604  0.2803  0.6974  0.1180
13510TIP3   OH262020   0.427   1.061   3.312  0.2927 -0.2471 -0.4937
13510TIP3    H162021   0.341   1.103   3.316  1.1568  1.8445 -2.6082
13510TIP3    H262022   0.468   1.082   3.396 -0.8993 -0.4587  0.1498
13511TIP3   OH262023   2.059   6.429   6.523  0.1938  0.2962  0.1248
13511TIP3    H162024   2.139   6.449   6.475 -0.2977  0.2029 -0.7415
13511TIP3    H262025   2.005   6.380   6.461  0.3018 -1.4542  1.3738
13512TIP3   OH262026   3.749   5.869   5.419 -0.3132  0.1153 -0.4484
13512TIP3    H162027   3.817   5.812   5.382 -0.0108  0.9012 -1.1160
13512TIP3    H262028   3.783   5.896   5.503 -0.0928 -0.0233 -0.4921
13513TIP3   OH262029   1.180   1.722  14.631  0.2797 -0.0346  0.5728
13513TIP3    H162030   1.150   1.659  14.565  0.9229 -1.7093  1.8225
13513TIP3    H262031   1.195   1.803  14.583 -1.4773 -0.5648 -0.9185
13514TIP3   OH262032   1.032   0.902  12.354 -0.1300 -0.9933 -0.2282
13514TIP3    H162033   1.077   0.854  12.424 -1.7376 -0.4251  1.2244
13514TIP3    H262034   1.001   0.834  12.294 -0.1194 -1.5934  0.4419
13515TIP3   OH262035   4.991   4.802   0.601  0.0404  0.0351 -0.1870
13515TIP3    H162036   4.942   4.753   0.534  1.1432  0.5004 -1.3683
13515TIP3    H262037   4.928   4.866   0.635 -0.5863 -0.3254 -0.6510
13516TIP3   OH262038   5.764   2.293  13.125 -0.5261  0.0084 -0.0816
13516TIP3    H162039   5.844   2.331  13.088 -0.2341 -0.5233 -0.0109
13516TIP3    H262040   5.768   2.200  13.101 -1.4987  0.1289 -0.7138
13517TIP3   OH262041   5.536   5.801   4.318  0.0254 -0.0052  0.6661
13517TIP3    H162042   5.571   5.842   4.398  2.5039 -3.2672  1.3546
13517TIP3    H262043   5.601   5.822   4.251 -0.7217  0.5119  0.1027
13518TIP3   OH262044   6.128   2.062  14.649 -0.6400 -0.2927 -1.2831
13518TIP3    H162045   6.157   2.073  14.558  2.6738 -2.5010 -0.5653
13518TIP3    H262046   6.175   2.131  14.697 -1.3165 -0.0120 -1.0262
13519TIP3   OH262047   0.304   5.039   1.343 -0.5459  0.3178 -0.5928
13519TIP3    H162048   0.384   5.069   1.386 -1.7420  1.1829  1.0786
13519TIP3    H262049   0.324   5.042   1.249  1.4520  0.2704 -0.1758
13520TIP3   OH262050   2.450   3.784   6.056 -0.1295  1.1096  0.4930
13520TIP3    H162051   2.426   3.836   6.133 -0.1600  3.9291 -1.3609
13520TIP3    H262052   2.459   3.848   5.985  1.1513 -1.2711 -1.5809
13521TIP3   OH262053   4.145   3.685  15.057 -0.1888 -0.4538  0.4891
13521TIP3    H162054   4.211   3.616  15.055  2.4797  1.9881  1.2132
13521TIP3    H262055   4.107   3.685  14.969  1.8180 -0.9033 -0.4006
13522TIP3   OH262056   5.636   2.380  13.885 -0.4749 -0.4782 -0.3123
13522TIP3    H162057   5.599   2.292  13.885 -0.2858 -0.5679 -1.8572
13522TIP3    H262058   5.665   2.394  13.795 -0.1144  1.0006  0.0220
13523TIP3   OH262059   2.103   5.344  15.001  0.0044  0.4174  0.1366
13523TIP3    H162060   2.104   5.372  14.909 -0.5221  1.1305  0.3439
13523TIP3    H262061   2.193   5.318  15.019  0.0945  0.1954 -0.6076
13524TIP3   OH262062   4.076   2.712   0.902  0.2791 -0.7016  0.2161
13524TIP3    H162063   4.074   2.802   0.869 -1.1624 -1.1510 -0.9916
13524TIP3    H262064   4.117   2.662   0.831  1.5023 -0.9467  1.0716
13525TIP3   OH262065   4.320   3.026   5.055  0.0310  0.4197  0.2091
13525TIP3    H162066   4.385   3.095   5.063  0.1426  0.6128 -1.9440
13525TIP3    H262067   4.369   2.950   5.024 -0.6569  0.4349 -0.9719
13526TIP3   OH262068   4.426   6.810   6.231  0.1557  0.2746  0.1340
13526TIP3    H162069   4.506   6.850   6.267  1.1731 -0.6646 -1.0731
13526TIP3    H262070   4.359   6.827   6.298  1.6018  0.1641  1.6406
13527TIP3   OH262071   3.124   6.212  13.008  0.4610 -0.6493  0.3277
13527TIP3    H162072   3.086   6.272  13.072  1.4583  0.5999 -0.2234
13527TIP3    H262073   3.060   6.209  12.937 -0.0891 -1.0943  0.8351
13528TIP3   OH262074   5.200   1.851   3.811  0.1634  0.2613 -0.4536
13528TIP3    H162075   5.118   1.812   3.780 -0.1698  0.8069 -0.2747
13528TIP3    H262076   5.194   1.845   3.907  1.0778 -1.2020 -0.4616
13529TIP3   OH262077   0.348   2.687  14.478  0.3362 -0.0178  0.0564
13529TIP3    H162078   0.363   2.710  14.386  0.6374  1.2803  0.4281
13529TIP3    H262079   0.355   2.769  14.525  0.5066 -0.7325  1.2951
13530TIP3   OH262080   6.770   5.385  15.046  0.5584  0.3058 -0.3553
13530TIP3    H162081   6.722   5.466  15.059  0.4680  0.0844  0.7372
13530TIP3    H262082   6.705   5.325  15.008  0.0453  0.1188  0.7784
13531TIP3   OH262083   2.815   4.592   1.625 -0.6013 -0.3850  0.6279
13531TIP3    H162084   2.883   4.658   1.605 -0.6795  0.1302  1.9921
13531TIP3    H262085   2.853   4.509   1.596 -0.6216  0.2993 -1.3943
13532TIP3   OH262086   4.490   5.108   3.501 -0.3273 -1.3755 -0.4281
13532TIP3    H162087   4.567   5.114   3.445 -1.2562 -1.4249 -1.7566
13532TIP3    H262088   4.449   5.025   3.475 -2.1914 -0.1330 -1.5921
13533TIP3   OH262089   0.906   2.631  15.959 -0.1478 -0.0801  0.1413
13533TIP3    H162090   0.848   2.706  15.968  1.2028  1.1431 -1.1488
13533TIP3    H262091   0.886   2.595  15.873  1.0322  0.3826 -0.3367
13534TIP3   OH262092   5.433   1.025  16.924 -0.4588 -0.1181 -0.4597
13534TIP3    H162093   5.524   1.012  16.897  0.5209  1.9702  1.7164
13534TIP3    H262094   5.408   1.108  16.884 -1.0893 -0.2010 -0.2394
13535TIP3   OH262095   0.245   6.347  14.351 -0.1558  0.9820  0.1234
13535TIP3    H162096   0.155   6.378  14.358 -0.1060  1.5804 -1.6158
13535TIP3    H262097   0.239   6.265  14.304  0.2246  1.1281 -0.1861
13536TIP3   OH262098   5.320   4.721   4.938 -0.2917 -0.0020 -0.0784
13536TIP3    H162099   5.407   4.704   4.900 -0.0260 -0.2700  0.6440
13536TIP3    H262100   5.324   4.681   5.025 -0.5225  1.6006  0.6773
13537TIP3   OH262101   2.719   1.073  11.780 -0.4626  0.3582 -0.0552
13537TIP3    H162102   2.772   1.090  11.703 -1.3653  0.7971 -0.5914
13537TIP3    H262103   2.643   1.024  11.747 -0.5096 -0.0667  0.6556
13538TIP3   OH262104   1.237   4.087   5.997  0.7173 -0.5169 -0.2403
13538TIP3    H162105   1.204   4.059   6.082 -0.9973 -0.1247 -0.7507
13538TIP3    H262106   1.158   4.108   5.947  1.7085 -0.8277 -1.9538
13539TIP3   OH262107   4.674   0.709   6.438 -0.0064 -0.0757 -0.2058
13539TIP3    H162108   4.720   0.638   6.393 -0.0015 -0.7982  0.9358
13539TIP3    H262109   4.738   0.781   6.439 -0.2967  0.2334 -2.0700
13540TIP3   OH262110   5.643   4.981   1.616  0.0991 -0.1970  0.1059
13540TIP3    H162111   5.738   4.973   1.624  0.0698 -0.7017 -0.0190
13540TIP3    H262112   5.618   5.042   1.686  0.4156 -0.7255  0.6882
13541TIP3   OH262113   2.797   3.677   3.936 -0.4069 -0.5457 -0.0826
13541TIP3    H162114   2.730   3.739   3.909  0.0475 -1.0828 -2.5486
13541TIP3    H262115   2.880   3.722   3.921 -0.1302 -1.0177  0.0062
13542TIP3   OH262116   5.797   0.852   2.324  0.0811 -0.0463 -0.4399
13542TIP3    H162117   5.718   0.893   2.289 -1.0789 -0.7633  1.2959
13542TIP3    H262118   5.768   0.768   2.358  1.7197 -0.6014 -0.3736
13543TIP3   OH262119   4.308   2.717   1.910 -0.4052  0.5414  0.0927
13543TIP3    H162120   4.288   2.695   1.819  0.2672 -0.4410  0.1732
13543TIP3    H262121   4.225   2.748   1.946 -0.8023  0.4134 -0.7036
13544TIP3   OH262122   5.361   5.780  16.985  0.3596  0.2202  0.5761
13544TIP3    H162123   5.438   5.783  16.929  0.0246  0.2126  0.1082
13544TIP3    H262124   5.307   5.710  16.947 -0.5937  1.2835 -0.0382
13545TIP3   OH262125   3.358   0.524   1.961  0.0818 -0.0975 -0.2584
13545TIP3    H162126   3.338   0.432   1.979 -0.5266 -0.1494 -1.1857
13545TIP3    H262127   3.277   0.559   1.924  0.2742  0.8426  0.2175
13546TIP3   OH262128   2.728   3.176  15.779  0.0375 -0.3972  0.4235
13546TIP3    H162129   2.808   3.167  15.831 -0.1521  0.2531  0.8286
13546TIP3    H262130   2.681   3.250  15.818 -0.0457  0.1873 -0.7395
13547TIP3   OH262131   0.027   0.432   0.343  0.3372  0.0451 -0.0986
13547TIP3    H162132  -0.006   0.368   0.406 -0.0770  1.3884  1.0855
13547TIP3    H262133  -0.049   0.457   0.291 -0.2241  1.9080  1.5406
13548TIP3   OH262134   1.886   2.469   1.123  0.5262 -0.1015  0.3511
13548TIP3    H162135   1.801   2.475   1.167 -1.0417 -1.6495 -2.2949
13548TIP3    H262136   1.906   2.376   1.120  1.4634  0.1123 -0.5584
13549TIP3   OH262137   3.013   5.258  13.581 -0.0856 -0.5379  0.4882
13549TIP3    H162138   3.037   5.165  13.580  0.1235 -0.4891 -1.5051
13549TIP3    H262139   3.050   5.293  13.500 -2.3261  0.7435 -0.0122
13550TIP3   OH262140   2.151   3.145   2.028  0.7342  0.0362 -0.3213
13550TIP3    H162141   2.083   3.121   2.091  1.9882  2.6532  2.0849
13550TIP3    H262142   2.225   3.089   2.049  0.5466 -0.3579 -0.6864
13551TIP3   OH262143   4.874   3.543   4.036 -0.5825 -0.4000  0.2956
13551TIP3    H162144   4.908   3.624   4.075  0.0921 -0.3053 -0.4725
13551TIP3    H262145   4.873   3.481   4.108  2.9608 -0.9139 -0.0201
13552TIP3   OH262146   3.676   3.558  11.856 -0.3259  0.6377  0.4642
13552TIP3    H162147   3.751   3.609  11.826  0.3695 -1.8257 -2.2846
13552TIP3    H262148   3.715   3.475  11.886 -1.9418 -1.1584 -2.1631
13553TIP3   OH262149   0.593   3.894  15.804  0.3498 -0.0360 -0.0750
13553TIP3    H162150   0.535   3.960  15.843 -1.7158 -1.4838 -0.6367
13553TIP3    H262151   0.650   3.866  15.876 -0.2600  0.7320  0.7175
13554TIP3   OH262152   3.519   5.570   2.447 -0.5217 -0.2963 -0.5336
13554TIP3    H162153   3.563   5.516   2.513  2.0713  0.3576 -1.6677
13554TIP3    H262154   3.565   5.552   2.366  0.5898  3.6935 -0.9310
13555TIP3   OH262155   4.296   3.581  12.823  0.2477 -0.4722  0.1346
13555TIP3    H162156   4.251   3.660  12.795 -1.3650 -0.7378  1.9531
13555TIP3    H262157   4.376   3.613  12.865  1.1232  0.0432 -1.8605
13556TIP3   OH262158   5.045   5.513   1.538  0.1911  0.1768 -0.0431
13556TIP3    H162159   5.013   5.546   1.622 -0.6964  1.7684 -0.9844
13556TIP3    H262160   5.033   5.418   1.543 -1.4565  0.4344  0.9634
13557TIP3   OH262161   2.713   4.923   2.953  0.0630 -0.2842  0.0476
13557TIP3    H162162   2.749   4.873   3.026  1.2818  0.1261 -0.2499
13557TIP3    H262163   2.652   4.985   2.995  2.0557  1.1435  0.9478
13558TIP3   OH262164   0.821   1.368   3.432  0.1805  0.1881 -0.4237
13558TIP3    H162165   0.798   1.365   3.339 -1.3502  0.4519 -0.0759
13558TIP3    H262166   0.913   1.395   3.433  0.3481 -0.2691 -1.8725
13559TIP3   OH262167   3.253   5.410  12.657  0.5493 -0.7089 -0.2374
13559TIP3    H162168   3.315   5.415  12.729  0.0005 -3.7107  0.5434
13559TIP3    H262169   3.167   5.425  12.698  0.5591  1.4522 -0.9660
13560TIP3   OH262170   0.440   2.692   5.975 -0.0516  0.1040 -0.1006
13560TIP3    H162171   0.424   2.666   6.065  1.0421  0.8960  0.3398
13560TIP3    H262172   0.361   2.739   5.949  0.4026  1.5568  1.0922
13561TIP3   OH262173   6.811   1.055  16.353 -0.1163  0.1890  0.1010
13561TIP3    H162174   6.860   0.999  16.292 -0.1188 -0.1495  0.4081
13561TIP3    H262175   6.870   1.066  16.427  0.7778  2.4061 -0.8877
13562TIP3   OH262176   5.282   5.548   1.378 -0.3155  0.3640 -0.4731
13562TIP3    H162177   5.200   5.547   1.427 -0.4506  0.4579 -0.6952
13562TIP3    H262178   5.255   5.534   1.287 -0.0919  0.4855 -0.5581
13563TIP3   OH262179   5.953   2.935   3.094 -0.0786 -0.2813 -0.0879
13563TIP3    H162180   6.040   2.902   3.074 -0.3804 -1.8378  1.0503
13563TIP3    H262181   5.954   2.947   3.189 -1.2937 -0.9250  0.0135
13564TIP3   OH262182   1.011   5.369  13.210  0.5501 -1.1447 -0.3241
13564TIP3    H162183   0.968   5.290  13.177  0.5245 -0.7891 -1.1618
13564TIP3    H262184   1.088   5.379  13.154  2.1566 -2.1852  1.6123
13565TIP3   OH262185   0.732   1.452   1.922  0.1317 -0.4072 -0.0241
13565TIP3    H162186   0.785   1.374   1.909 -1.0723 -0.9426 -1.8512
13565TIP3    H262187   0.667   1.425   1.988  0.7195 -0.4214  0.5616
13566TIP3   OH262188   3.773   3.030   1.432 -0.3269 -1.0023 -0.2329
13566TIP3    H162189   3.866   3.047   1.449 -0.2967 -1.0513 -0.3445
13566TIP3    H262190   3.772   2.942   1.394 -0.6353 -1.8678  1.7341
13567TIP3   OH262191   6.578   4.433   1.753  0.3435  0.4918 -0.2453
13567TIP3    H162192   6.543   4.521   1.736 -0.1396  0.2395 -0.5850
13567TIP3    H262193   6.540   4.379   1.683  1.4791  0.2270 -0.6576
13568TIP3   OH262194   1.363   5.185  11.339  0.2269  0.2815  0.6025
13568TIP3    H162195   1.391   5.218  11.424 -0.5854  0.2497  0.8891
13568TIP3    H262196   1.424   5.224  11.276 -0.1707  1.6122  1.0243
13569TIP3   OH262197   2.747   5.786  15.880 -0.1882  0.4188 -0.2594
13569TIP3    H162198   2.655   5.802  15.902 -0.5006 -1.1409 -0.3711
13569TIP3    H262199   2.745   5.753  15.790  0.2705 -1.5163  0.4120
13570TIP3   OH262200   2.860   3.992   0.116  0.9041 -0.1923  0.1379
13570TIP3    H162201   2.815   4.075   0.098  1.4730  0.3223  1.0426
13570TIP3    H262202   2.902   4.006   0.201  1.8546 -1.0479 -0.1793
13571TIP3   OH262203   3.443   0.966  15.444  0.3835  0.4956 -0.2380
13571TIP3    H162204   3.510   0.982  15.510 -0.0888 -0.0243  0.3599
13571TIP3    H262205   3.365   0.942  15.493  0.2299 -0.6270 -1.0123
13572TIP3   OH262206   3.865   1.104   3.796 -0.4376  0.1933  0.1617
13572TIP3    H162207   3.850   1.022   3.844  0.1488 -0.5256 -0.8501
13572TIP3    H262208   3.959   1.106   3.781 -0.7786 -0.3275 -2.2139
13573TIP3   OH262209   2.998   5.969  14.410 -0.0108 -0.1578  0.4627
13573TIP3    H162210   2.934   5.923  14.465 -0.6270 -1.9929 -1.7176
13573TIP3    H262211   3.048   5.899  14.369  1.7658  1.2409  0.2168
13574TIP3   OH262212   3.319   0.127   3.959  0.0172  0.3981  0.5662
13574TIP3    H162213   3.398   0.078   3.936 -0.5468  0.1415 -0.8425
13574TIP3    H262214   3.348   0.189   4.026  1.0322 -0.9193  1.3704
13575TIP3   OH262215   4.974   3.833  15.979 -0.4313  0.0328  0.8679
13575TIP3    H162216   5.053   3.809  16.027  0.5081  0.5477 -0.3810
13575TIP3    H262217   4.917   3.873  16.044  0.6025  0.2489  1.6521
13576TIP3   OH262218   2.528   4.422   4.435  0.4309  0.0499  0.1896
13576TIP3    H162219   2.597   4.470   4.481 -0.1178  1.9371 -0.9436
13576TIP3    H262220   2.470   4.489   4.401 -3.8301 -1.5189  3.8624
13577TIP3   OH262221   1.742   5.634   2.236 -0.7054  0.2101 -0.3432
13577TIP3    H162222   1.707   5.545   2.238 -0.6255  0.1529 -1.5779
13577TIP3    H262223   1.693   5.681   2.304  0.1133 -1.0784  1.1831
13578TIP3   OH262224   6.577   1.437  16.084  0.1346  0.1912 -0.1582
13578TIP3    H162225   6.666   1.421  16.114  0.1913 -0.3360 -0.6006
13578TIP3    H262226   6.571   1.391  16.000 -1.3609 -1.9189  1.0698
13579TIP3   OH262227   4.098   4.235  12.691  0.2597  0.3521  0.2013
13579TIP3    H162228   4.161   4.194  12.632 -0.1063  0.7034 -0.4287
13579TIP3    H262229   4.151   4.291  12.747  0.4638  0.9267 -0.5675
13580TIP3   OH262230   6.458   2.269   2.116 -0.2710  0.2880 -0.0497
13580TIP3    H162231   6.465   2.312   2.031 -0.3648 -0.1740 -0.2905
13580TIP3    H262232   6.430   2.180   2.096  1.8456 -0.4952  0.2865
13581TIP3   OH262233   5.568   0.339   0.823  0.1797  0.3665 -0.4573
13581TIP3    H162234   5.542   0.416   0.873 -0.7178 -0.0098 -0.3296
13581TIP3    H262235   5.606   0.279   0.888  0.1469  0.3752 -0.4302
13582TIP3   OH262236   1.691   1.838  15.717  0.0056  0.1690 -0.0186
13582TIP3    H162237   1.629   1.773  15.687  0.0941 -0.4145  1.0206
13582TIP3    H262238   1.776   1.793  15.715  0.2224  0.5905 -0.3271
13583TIP3   OH262239   2.326   4.933   1.647  0.2874  0.1083 -0.3297
13583TIP3    H162240   2.418   4.951   1.626  0.7469 -1.4599  0.2159
13583TIP3    H262241   2.277   4.962   1.570  1.1142  2.0284 -0.1633
13584TIP3   OH262242   6.228   0.957  12.966  0.3966  0.9129 -0.2641
13584TIP3    H162243   6.196   0.877  13.007 -1.8607  2.2343  0.6215
13584TIP3    H262244   6.220   0.942  12.872  1.2178 -0.3626 -0.1406
13585TIP3   OH262245   2.204   3.589   2.745 -0.3650  0.2608 -0.0835
13585TIP3    H162246   2.212   3.494   2.737 -1.0334  0.0761  1.2489
13585TIP3    H262247   2.294   3.621   2.746 -0.1493 -0.3200 -0.9519
13586TIP3   OH262248   3.217   5.447   1.461  0.3069 -0.2177  0.3553
13586TIP3    H162249   3.179   5.384   1.522  1.3085 -0.3273  0.8780
13586TIP3    H262250   3.175   5.530   1.483  1.2676 -0.0914  1.7537
13587TIP3   OH262251   6.266   5.000   3.105  0.6127  0.2763  0.1176
13587TIP3    H162252   6.335   5.066   3.108  0.0081  0.9232 -0.1116
13587TIP3    H262253   6.237   4.999   3.014  0.0540  0.2894  0.2944
13588TIP3   OH262254   0.795   2.103  11.874  0.0349 -0.1308 -0.2960
13588TIP3    H162255   0.771   2.170  11.938  1.7489 -0.9495  1.2376
13588TIP3    H262256   0.749   2.024  11.904 -0.3751 -0.1489 -0.9576
13589TIP3   OH262257   2.182   1.729  11.128  0.1477  0.2448 -0.3141
13589TIP3    H162258   2.200   1.789  11.055  0.4708  0.0151 -0.4194
13589TIP3    H262259   2.263   1.727  11.178 -0.0345  0.3067 -0.0121
13590TIP3   OH262260   5.921   6.308   4.094 -0.1411 -0.3766 -0.6727
13590TIP3    H162261   5.827   6.321   4.079 -0.5079 -1.2786  0.7582
13590TIP3    H262262   5.926   6.271   4.182  1.6784  1.1965 -0.0811
13591TIP3   OH262263   4.807   4.717   4.242  0.3977  0.0409  0.6291
13591TIP3    H162264   4.717   4.698   4.216 -0.3234  2.0335  1.5518
13591TIP3    H262265   4.853   4.734   4.160 -0.0611 -0.9480  0.1541
13592TIP3   OH262266   0.537   3.081   6.027  0.2594 -0.0945 -0.0748
13592TIP3    H162267   0.609   3.137   5.999 -1.0556  0.9807 -1.3360
13592TIP3    H262268   0.458   3.129   6.005 -0.8939 -2.2824 -0.8763
13593TIP3   OH262269   1.692   0.310   6.278 -1.4428  0.0206 -0.4869
13593TIP3    H162270   1.606   0.331   6.313 -0.5685  1.6061  0.8469
13593TIP3    H262271   1.730   0.395   6.255  0.0567 -0.5717 -0.3003
13594TIP3   OH262272   5.612   2.542  10.473 -0.1370  0.0728 -0.3780
13594TIP3    H162273   5.695   2.495  10.473 -0.1743  0.0056 -0.6414
13594TIP3    H262274   5.595   2.561  10.565  0.2540  0.2396 -0.3391
13595TIP3   OH262275   2.580   3.917  14.627  0.3191  0.5409 -0.1975
13595TIP3    H162276   2.536   3.973  14.690  0.1979 -0.3057  0.4834
13595TIP3    H262277   2.522   3.916  14.551  0.3658  1.4034 -0.2436
13596TIP3   OH262278   1.606   2.367  11.310 -0.6637  0.0149 -0.0344
13596TIP3    H162279   1.558   2.445  11.282  1.2255 -0.0885 -3.8196
13596TIP3    H262280   1.564   2.295  11.264  1.3242 -0.4147 -1.2320
13597TIP3   OH262281   3.065   3.695   5.662 -0.0510 -0.0223  0.6050
13597TIP3    H162282   3.015   3.615   5.646 -0.9235  0.5549  0.3985
13597TIP3    H262283   3.033   3.727   5.746  1.5210 -0.8029  1.5084
13598TIP3   OH262284   2.764   5.517   1.569 -0.1343  0.5667  0.5243
13598TIP3    H162285   2.708   5.476   1.636 -1.6313 -0.6177 -1.4151
13598TIP3    H262286   2.730   5.607   1.562  0.4004  0.8716  1.7547
13599TIP3   OH262287   1.490   6.703  14.234  0.2417  0.4787  0.1702
13599TIP3    H162288   1.494   6.739  14.323 -0.9826 -0.3529  0.5731
13599TIP3    H262289   1.581   6.703  14.205  0.6353  0.9697  1.3387
13600TIP3   OH262290   5.660   3.135  14.266  0.7152  0.8096  0.2933
13600TIP3    H162291   5.596   3.200  14.237  2.1530  1.6728 -1.0152
13600TIP3    H262292   5.731   3.186  14.303  1.0614 -0.0973  0.8938
13601TIP3   OH262293   0.845   6.482   6.146  0.0820  0.0508  0.1788
13601TIP3    H162294   0.897   6.461   6.223  1.6948 -0.4546 -1.0280
13601TIP3    H262295   0.899   6.545   6.097 -0.8815  0.2997 -0.5824
13602TIP3   OH262296   6.485   1.432  14.277  0.1267  0.1372 -0.3123
13602TIP3    H162297   6.519   1.521  14.285  0.8310 -0.0885 -0.7538
13602TIP3    H262298   6.502   1.407  14.186  0.7013 -0.7563  0.0280
13603TIP3   OH262299   0.257   5.626   6.353 -0.2298  0.5153  0.2627
13603TIP3    H162300   0.351   5.624   6.331 -0.7290 -0.2550 -1.8911
13603TIP3    H262301   0.236   5.534   6.371 -0.5561  0.7111  0.8825
13604TIP3   OH262302   3.457   4.929  14.655  0.0310  0.1040  0.1470
13604TIP3    H162303   3.461   5.009  14.708  1.2618 -0.5409  1.0673
13604TIP3    H262304   3.505   4.950  14.575  0.7333  0.1552  0.5792
13605TIP3   OH262305   2.281   2.918  10.597 -0.0133 -0.3304 -0.6776
13605TIP3    H162306   2.211   2.887  10.654  0.4772  0.3977  0.3429
13605TIP3    H262307   2.237   2.953  10.520 -0.7922  0.6168  0.1942
13606TIP3   OH262308   5.368   6.709   1.215  0.0432 -0.5494 -0.6096
13606TIP3    H162309   5.454   6.749   1.230 -0.9804  0.9792  1.2817
13606TIP3    H262310   5.324   6.767   1.153 -0.4790 -0.0862  0.1855
13607TIP3   OH262311   5.382   5.916  17.232 -0.1062 -0.1749  0.1220
13607TIP3    H162312   5.391   5.883  17.143  1.5478  2.4961 -0.7835
13607TIP3    H262313   5.413   5.845  17.288  0.9783 -1.0431 -1.5572
13608TIP3   OH262314   2.156   1.563  10.692 -0.9676 -0.2790 -0.3107
13608TIP3    H162315   2.108   1.587  10.771 -0.3657  0.1004 -0.0525
13608TIP3    H262316   2.151   1.468  10.688 -0.3441 -0.3583  0.6135
13609TIP3   OH262317   5.060   2.185   2.347  0.1854  0.2924 -0.0585
13609TIP3    H162318   5.089   2.276   2.345 -1.6436  0.9190  0.8754
13609TIP3    H262319   5.018   2.175   2.432 -0.7395 -1.0656 -0.6505
13610TIP3   OH262320   6.752   4.206  14.376  0.2643 -0.3209 -0.3672
13610TIP3    H162321   6.826   4.266  14.376  0.1060 -0.1175  0.0954
13610TIP3    H262322   6.751   4.170  14.465  0.6381 -1.3619 -0.7858
13611TIP3   OH262323   2.270   2.564  13.915  0.2666 -0.0338 -0.0942
13611TIP3    H162324   2.304   2.603  13.995  1.0049  1.9446 -1.3291
13611TIP3    H262325   2.175   2.576  13.920 -0.0026 -2.4990  1.7669
13612TIP3   OH262326   2.446   1.484   2.319 -0.3329  0.8197 -0.3130
13612TIP3    H162327   2.382   1.433   2.270  0.4480 -0.0505 -0.4661
13612TIP3    H262328   2.528   1.473   2.270  0.3995  0.1619  0.9986
13613TIP3   OH262329   1.477   5.593  12.105  0.2976 -0.0464  0.6328
13613TIP3    H162330   1.520   5.590  12.020 -0.9663 -2.2758  0.0108
13613TIP3    H262331   1.505   5.512  12.148 -0.2066  0.3706  1.7394
13614TIP3   OH262332   0.578   2.985   4.587  0.1630  0.1131 -0.0074
13614TIP3    H162333   0.607   3.072   4.558 -3.1407  1.5491  0.7080
13614TIP3    H262334   0.628   2.969   4.667 -0.3275  2.1393  0.7529
13615TIP3   OH262335   1.660   0.729  10.815 -0.2461  0.3491 -0.7332
13615TIP3    H162336   1.745   0.757  10.781 -0.5531  2.1136 -0.0652
13615TIP3    H262337   1.643   0.645  10.771  1.4842  0.3546 -1.4290
13616TIP3   OH262338   0.206   3.017  11.764 -0.7871  0.5668 -0.2438
13616TIP3    H162339   0.285   3.071  11.761  0.7290 -1.5148  1.1532
13616TIP3    H262340   0.147   3.063  11.824  1.1524 -0.1526  2.2840
13617TIP3   OH262341   6.668   1.081  12.607 -0.8390  0.3433 -0.3705
13617TIP3    H162342   6.653   1.077  12.701 -0.6727  0.2166 -0.3482
13617TIP3    H262343   6.650   1.173  12.584 -3.1154 -0.1152 -0.6040
13618TIP3   OH262344   0.909   2.001  14.963 -0.0431 -0.3380 -0.1441
13618TIP3    H162345   0.895   1.985  15.056 -1.0886 -0.8801 -0.3836
13618TIP3    H262346   0.866   2.086  14.948 -0.2523 -0.4575 -0.2200
13619TIP3   OH262347   0.266   5.183   4.548 -0.1484  0.3065  0.0979
13619TIP3    H162348   0.332   5.181   4.479 -0.9817 -0.0693 -0.6984
13619TIP3    H262349   0.185   5.205   4.502 -0.9056 -1.0093  0.8000
13620TIP3   OH262350   1.067   5.392  13.998  0.1818 -0.1075  0.0642
13620TIP3    H162351   1.156   5.407  13.968  0.4999  1.2442  1.6307
13620TIP3    H262352   1.019   5.470  13.970  0.5021  1.2295  3.0570
13621TIP3   OH262353   3.577   3.263  13.382 -0.4559  0.2051 -0.2875
13621TIP3    H162354   3.492   3.294  13.413  0.6951  3.4952 -0.1945
13621TIP3    H262355   3.592   3.313  13.301  1.4900 -0.1794 -0.1823
13622TIP3   OH262356   3.012   3.779  14.766 -0.5939 -0.1381  0.0929
13622TIP3    H162357   3.035   3.819  14.850  1.3947  0.0462 -0.5285
13622TIP3    H262358   2.968   3.848  14.717  0.8799  0.6480 -0.1376
13623TIP3   OH262359   4.150   0.434   4.841  0.1968  0.3515  0.5663
13623TIP3    H162360   4.097   0.513   4.839  1.8722  1.5298  1.2914
13623TIP3    H262361   4.239   0.465   4.858  1.4109 -1.4358 -2.2115
13624TIP3   OH262362   4.029   6.284   2.387 -0.1018 -0.0736  0.3005
13624TIP3    H162363   3.986   6.198   2.391  0.6659 -0.5432 -1.2258
13624TIP3    H262364   3.999   6.323   2.305  0.1106  0.8291  0.6417
13625TIP3   OH262365   2.787   5.012   3.437 -0.2125 -0.6355 -0.0105
13625TIP3    H162366   2.774   4.970   3.352  0.3846 -0.1713 -0.3360
13625TIP3    H262367   2.857   4.960   3.478 -2.8687 -3.0385  1.6730
13626TIP3   OH262368   2.474   0.668  15.167 -0.1384  0.5854  0.0911
13626TIP3    H162369   2.440   0.684  15.079 -0.6843  1.0314  0.3810
13626TIP3    H262370   2.455   0.576  15.185  2.4740 -0.2748 -1.3587
13627TIP3   OH262371   5.615   0.051   5.646  0.5366 -0.1729  0.3076
13627TIP3    H162372   5.650   0.047   5.735  0.2437  0.8422  0.4749
13627TIP3    H262373   5.533   0.101   5.655 -0.5847 -1.8609 -0.1849
13628TIP3   OH262374   5.101   5.627  14.547  0.2141  0.4501  0.5958
13628TIP3    H162375   5.172   5.667  14.496 -0.5827  1.7926  0.5435
13628TIP3    H262376   5.068   5.697  14.603 -1.8042  0.1347 -0.1670
13629TIP3   OH262377   1.502   0.119   2.609  0.3364 -0.8526  0.0874
13629TIP3    H162378   1.496   0.029   2.639 -0.1751 -0.1542  2.1705
13629TIP3    H262379   1.464   0.171   2.680  0.1837  0.9660 -1.2801
13630TIP3   OH262380   5.444   4.282   0.938 -0.0438  0.2060  0.0464
13630TIP3    H162381   5.509   4.273   1.008 -0.2399 -1.2909  0.0565
13630TIP3    H262382   5.400   4.364   0.957  0.8631  0.5098  0.8775
13631TIP3   OH262383   0.205   6.412   2.685  0.4665 -0.0160  0.1007
13631TIP3    H162384   0.129   6.441   2.735  0.7156  1.1251 -0.1636
13631TIP3    H262385   0.171   6.342   2.629 -0.0562 -0.5185  1.0397
13632TIP3   OH262386   5.188   0.062   4.108  0.5719  0.1503 -0.2624
13632TIP3    H162387   5.121  -0.002   4.133 -1.2678  1.9446 -0.4600
13632TIP3    H262388   5.147   0.113   4.038  2.3775  0.9095 -0.7911
13633TIP3   OH262389   6.783   0.586  13.987  0.1076 -0.0831 -0.4270
13633TIP3    H162390   6.789   0.534  14.067 -1.4351 -1.6664 -1.3038
13633TIP3    H262391   6.727   0.660  14.011 -0.6969 -0.7744 -0.1526
13634TIP3   OH262392   3.912   0.914  12.075  0.2250  0.1519  0.6485
13634TIP3    H162393   3.986   0.962  12.038  0.3370 -0.3336  0.2369
13634TIP3    H262394   3.835   0.967  12.053  0.3790  0.3011  0.4712
13635TIP3   OH262395   0.819   2.995  12.332 -0.1852  0.1522  0.3265
13635TIP3    H162396   0.754   2.926  12.324 -0.2887  0.2108  0.6421
13635TIP3    H262397   0.872   2.969  12.408  1.2774 -0.8149 -0.9924
13636TIP3   OH262398   5.175   0.777  16.179 -0.3537 -0.2324 -0.1778
13636TIP3    H162399   5.254   0.805  16.133  0.1602  0.0149  0.8516
13636TIP3    H262400   5.103   0.800  16.120  0.1993  1.4150 -0.2260
13637TIP3   OH262401   4.736   6.175  15.925 -0.7268 -0.0936 -0.2131
13637TIP3    H162402   4.828   6.194  15.904 -1.2731  1.0212 -1.6567
13637TIP3    H262403   4.735   6.082  15.945 -0.1189 -1.2518 -5.0679
13638TIP3   OH262404   4.621   5.158  14.255 -0.1171 -0.2352 -0.4848
13638TIP3    H162405   4.610   5.124  14.344  0.4124  3.2308  0.9870
13638TIP3    H262406   4.715   5.156  14.239 -0.0107  1.0688 -0.1184
13639TIP3   OH262407   1.459   0.978  13.051  0.2992 -0.1417  0.6646
13639TIP3    H162408   1.467   0.961  13.144  1.2392 -0.4310  0.5366
13639TIP3    H262409   1.547   0.963  13.016 -0.2647 -1.0200 -0.4189
13640TIP3   OH262410   4.568   1.323   0.292  0.3651 -0.1182  0.0679
13640TIP3    H162411   4.602   1.265   0.223 -0.9817  1.4278 -1.9529
13640TIP3    H262412   4.480   1.345   0.263 -0.4176  0.1738  2.5726
13641TIP3   OH262413   0.045   3.872  15.843  0.3403 -0.3237 -0.2093
13641TIP3    H162414  -0.029   3.891  15.786 -1.6438 -1.0418  2.0305
13641TIP3    H262415   0.009   3.816  15.912  3.0687 -1.0545  0.7231
13642TIP3   OH262416   4.768   6.005  11.455  0.4590  0.2822 -0.1629
13642TIP3    H162417   4.857   5.970  11.443  0.6908 -0.2451  2.6785
13642TIP3    H262418   4.740   5.969  11.539 -1.5529  2.3511  0.0929
13643TIP3   OH262419   6.571   6.552  12.218  0.1855 -0.5055  0.0765
13643TIP3    H162420   6.582   6.588  12.306 -2.0459 -0.2221  0.2636
13643TIP3    H262421   6.534   6.624  12.167  3.0990 -0.0986 -1.5930
13644TIP3   OH262422   1.054   6.769   5.330 -0.5605  0.4364 -0.0682
13644TIP3    H162423   1.074   6.675   5.324 -3.3065 -0.1908 -0.4058
13644TIP3    H262424   0.958   6.772   5.335 -0.4262  3.1284  2.0255
13645TIP3   OH262425   4.518   5.197  16.052 -0.1029  0.5308  0.1125
13645TIP3    H162426   4.571   5.136  16.000  1.6575  2.1243 -0.0181
13645TIP3    H262427   4.570   5.213  16.130 -0.9292  1.2336  0.5223
13646TIP3   OH262428   1.214   0.451  15.582  0.2630  0.9615  0.3970
13646TIP3    H162429   1.249   0.402  15.656  0.4813  1.5598  0.6964
13646TIP3    H262430   1.239   0.399  15.505 -0.2022  0.2032  0.7546
13647TIP3   OH262431   5.383   0.970   5.264  0.1506 -0.4895  0.3960
13647TIP3    H162432   5.457   1.028   5.281 -1.0393  1.8408 -2.0813
13647TIP3    H262433   5.418   0.905   5.203  0.5357 -0.2320  0.3345
13648TIP3   OH262434   6.443   1.012  11.522  0.1504 -0.2220  0.1534
13648TIP3    H162435   6.354   0.977  11.522  1.1695 -2.8893 -0.8882
13648TIP3    H262436   6.451   1.059  11.439 -0.0736 -0.5832 -0.0726
13649TIP3   OH262437   3.819   1.957  11.873 -0.6707  0.4385 -0.2449
13649TIP3    H162438   3.882   1.976  11.942 -1.8621 -0.1310  1.0109
13649TIP3    H262439   3.772   2.039  11.860 -1.1431  0.2581  0.3372
13650TIP3   OH262440   4.771   6.734  13.256 -0.1581  0.2389 -0.4673
13650TIP3    H162441   4.718   6.657  13.236  1.6933 -1.4188  0.8219
13650TIP3    H262442   4.861   6.701  13.259  0.5639  2.2672  1.1322
13651TIP3   OH262443   1.849   1.960  14.539  0.2478 -0.5843  0.0804
13651TIP3    H162444   1.830   1.920  14.454 -0.8693 -0.7552  0.4027
13651TIP3    H262445   1.880   2.048  14.518 -4.0856  0.9484 -0.3843
13652TIP3   OH262446   2.420   3.912   2.486  0.2718  0.1586  0.4076
13652TIP3    H162447   2.357   3.928   2.415  0.3009 -2.9545 -0.3853
13652TIP3    H262448   2.497   3.964   2.462  0.0553 -0.3811 -1.5181
13653TIP3   OH262449   4.720   1.000   3.880  0.0948 -0.1389 -0.1456
13653TIP3    H162450   4.804   0.981   3.920 -0.1910  0.3545  0.7011
13653TIP3    H262451   4.728   1.090   3.847 -0.5303  0.3703  1.0804
13654TIP3   OH262452   2.130   3.805   3.500  0.0744  0.2015  0.1536
13654TIP3    H162453   2.040   3.836   3.488  0.2187  0.9175  0.8585
13654TIP3    H262454   2.182   3.858   3.439 -0.1356 -1.0412 -1.1218
13655TIP3   OH262455   4.743   0.242  11.923  0.2028 -0.0134  0.7355
13655TIP3    H162456   4.817   0.204  11.971  1.0021  0.8691  0.2004
13655TIP3    H262457   4.733   0.330  11.960 -1.3320 -0.5394  1.6203
13656TIP3   OH262458   6.796   3.293  11.489  0.8251  0.3802  0.1508
13656TIP3    H162459   6.808   3.254  11.576  0.3480 -0.1904 -0.0303
13656TIP3    H262460   6.812   3.221  11.429  0.5007  0.6060 -0.2105
13657TIP3   OH262461   0.976   4.033   2.704 -0.1449 -0.1246 -0.8917
13657TIP3    H162462   1.002   4.087   2.779  0.3174 -0.5109 -0.7785
13657TIP3    H262463   1.058   4.012   2.659 -0.5125  1.1793 -2.2463
13658TIP3   OH262464   0.861   0.522  15.784  0.5287  0.1143 -0.1289
13658TIP3    H162465   0.918   0.574  15.842 -0.0536  1.5378 -0.7989
13658TIP3    H262466   0.773   0.542  15.815  0.3103 -0.6302 -0.2831
13659TIP3   OH262467   0.090   3.758  11.227  0.2175 -0.2257 -0.0341
13659TIP3    H162468   0.112   3.688  11.166  0.7616 -1.3978  1.4776
13659TIP3    H262469   0.048   3.714  11.301 -0.3222  1.1538  0.5077
13660TIP3   OH262470   1.111   2.628   5.757 -0.8440  0.3121 -0.1151
13660TIP3    H162471   1.096   2.629   5.663 -0.3598 -1.0935 -0.2173
13660TIP3    H262472   1.196   2.670   5.769  0.3985 -2.0060 -0.5760
13661TIP3   OH262473   1.643   4.399  12.941  0.3554  0.4243 -0.2642
13661TIP3    H162474   1.728   4.441  12.927 -0.1232  0.8262 -2.1170
13661TIP3    H262475   1.647   4.318  12.889 -0.0412 -0.0327  0.4130
13662TIP3   OH262476   0.772   0.943   3.423  0.2545 -0.0709  0.2026
13662TIP3    H162477   0.761   0.896   3.341  0.4188 -0.7171  0.5485
13662TIP3    H262478   0.768   1.036   3.398  2.6060 -0.2340 -0.8564
13663TIP3   OH262479   4.762   4.855   1.650 -0.1537  0.3138 -0.0043
13663TIP3    H162480   4.685   4.807   1.681 -0.7779  1.4631  0.2597
13663TIP3    H262481   4.738   4.886   1.563  0.9737 -1.4824 -0.9764
13664TIP3   OH262482   1.836   5.741   0.380  0.3220 -0.0584 -0.3133
13664TIP3    H162483   1.787   5.742   0.462  1.5639  0.3467  0.4276
13664TIP3    H262484   1.861   5.649   0.368  2.4102  0.2882  1.1425
13665TIP3   OH262485   5.254   5.213  15.797 -0.7472 -0.0599 -0.0248
13665TIP3    H162486   5.281   5.305  15.791  0.1247 -0.1788  1.9052
13665TIP3    H262487   5.331   5.168  15.831 -0.9181 -1.6452 -1.6558
13666TIP3   OH262488   1.540   6.127   4.090  0.5136  0.3721 -0.0478
13666TIP3    H162489   1.504   6.194   4.032 -0.7086 -0.8623 -0.7588
13666TIP3    H262490   1.587   6.068   4.031 -1.1931 -1.1975  0.1180
13667TIP3   OH262491   2.869   3.128   3.871 -0.2195 -0.0193 -1.0367
13667TIP3    H162492   2.792   3.076   3.847  0.2142 -0.6465 -1.1003
13667TIP3    H262493   2.940   3.063   3.877  0.2836  0.5419 -0.9065
13668TIP3   OH262494   3.144   2.057  16.164  0.2022  0.1664  0.1922
13668TIP3    H162495   3.141   2.092  16.074  0.8969 -0.5328 -0.1102
13668TIP3    H262496   3.158   1.963  16.152 -0.0502  0.0194  1.0368
13669TIP3   OH262497   5.625   1.448  15.548 -0.0590  0.2715 -0.8048
13669TIP3    H162498   5.592   1.537  15.558 -1.4856 -0.1124 -2.0030
13669TIP3    H262499   5.678   1.450  15.468  0.8002  0.2927 -0.2422
13670TIP3   OH262500   5.693   1.572   0.794  0.1264  0.2687 -0.2415
13670TIP3    H162501   5.653   1.540   0.713  2.3244 -1.0875 -0.8425
13670TIP3    H262502   5.764   1.628   0.765  0.4183  0.4263  0.7667
13671TIP3   OH262503   0.486   1.926   6.286  0.1505 -0.3786 -0.0473
13671TIP3    H162504   0.528   1.852   6.241 -0.5880 -1.3317  0.8193
13671TIP3    H262505   0.524   1.925   6.373  0.9753  0.9739 -0.3734
13672TIP3   OH262506   2.916   0.174  15.877  0.6017  0.5991 -0.0713
13672TIP3    H162507   2.992   0.205  15.926  0.0688 -1.7988  2.3681
13672TIP3    H262508   2.947   0.096  15.830 -0.1782 -0.0585  0.4846
13673TIP3   OH262509   1.340   6.591  13.157 -0.1315 -0.4918  0.1647
13673TIP3    H162510   1.314   6.521  13.098  1.2846 -0.5635 -0.3867
13673TIP3    H262511   1.426   6.565  13.190 -0.6252 -0.1493  1.7826
13674TIP3   OH262512   6.369   5.139  16.353  0.2311 -0.2191 -0.2582
13674TIP3    H162513   6.361   5.167  16.262 -1.1317  1.4295  0.3335
13674TIP3    H262514   6.463   5.138  16.369  0.5591 -1.8849 -2.0578
13675TIP3   OH262515   6.136   6.047   5.548 -0.1173  0.2567  0.0039
13675TIP3    H162516   6.070   6.056   5.616  0.4652  1.3275  0.4432
13675TIP3    H262517   6.137   5.954   5.527 -1.9389  0.2629 -0.1881
13676TIP3   OH262518   6.277   6.395  15.177 -0.2148 -0.1099 -0.7503
13676TIP3    H162519   6.284   6.442  15.093  0.3090 -0.0251 -0.6578
13676TIP3    H262520   6.340   6.324  15.169 -0.9290 -0.7361 -0.8446
13677TIP3   OH262521   1.390   1.705   6.226  0.4424 -0.1765  0.3209
13677TIP3    H162522   1.430   1.716   6.139 -0.1252 -1.1388 -0.0775
13677TIP3    H262523   1.362   1.793   6.251 -0.9971 -0.1457 -1.2802
13678TIP3   OH262524   3.302   4.586  17.277  0.0797 -0.2583  0.0477
13678TIP3    H162525   3.296   4.651  17.207 -3.0669 -0.2973  0.2207
13678TIP3    H262526   3.212   4.574  17.306  0.8622 -3.2170  1.3896
13679TIP3   OH262527   3.764   1.296  13.316 -0.1901 -0.1034  0.0330
13679TIP3    H162528   3.815   1.359  13.267  2.0696 -0.7390  1.4948
13679TIP3    H262529   3.693   1.348  13.355  0.8910  1.2908  0.1760
13680TIP3   OH262530   2.120   5.303   4.138  0.0482 -0.3289  0.2740
13680TIP3    H162531   2.137   5.388   4.098 -1.0582 -0.0955  0.2750
13680TIP3    H262532   2.072   5.254   4.072 -0.0396 -0.6550  0.5758
13681TIP3   OH262533   3.708   1.809   1.720  0.1230  0.2890 -0.0249
13681TIP3    H162534   3.712   1.755   1.800  0.9508 -0.0595 -0.2925
13681TIP3    H262535   3.662   1.754   1.657  0.6923  0.0121 -0.2032
13682TIP3   OH262536   6.447   0.322  11.627  0.5135 -0.5265 -0.2131
13682TIP3    H162537   6.520   0.297  11.569  0.4852 -1.7367  0.2504
13682TIP3    H262538   6.411   0.239  11.657 -0.2829  0.0817  0.5448
13683TIP3   OH262539   4.614   4.669  12.853  0.4415  0.3460  0.3524
13683TIP3    H162540   4.635   4.589  12.805 -0.5657  1.1082 -1.4077
13683TIP3    H262541   4.674   4.735  12.818 -1.5716  1.3631 -1.2527
13684TIP3   OH262542   6.108   0.379  17.020 -0.3319  0.1697 -0.0894
13684TIP3    H162543   6.173   0.447  16.999  2.2645 -1.8637  1.0874
13684TIP3    H262544   6.092   0.335  16.937  0.1018  0.4620 -0.3337
13685TIP3   OH262545   2.393   6.404  15.069  0.3040 -0.6072  0.3112
13685TIP3    H162546   2.449   6.481  15.082 -0.1675 -0.8156  4.1572
13685TIP3    H262547   2.415   6.373  14.981  0.2139  4.1294 -1.5594
13686TIP3   OH262548   1.134   0.365  16.455  0.3565 -0.5060 -0.0933
13686TIP3    H162549   1.074   0.440  16.460  0.3059 -0.6077  0.9128
13686TIP3    H262550   1.214   0.402  16.417 -0.1771 -0.2727 -1.0096
13687TIP3   OH262551   0.668   5.190  14.780 -0.0327  0.1611  0.3425
13687TIP3    H162552   0.604   5.136  14.825 -0.1057  1.0190  1.2828
13687TIP3    H262553   0.751   5.173  14.824  0.8407 -2.5475 -2.2190
13688TIP3   OH262554   2.123   4.749   3.306 -0.4147 -0.0689 -0.0802
13688TIP3    H162555   2.203   4.802   3.297 -0.2192 -0.4291 -0.4692
13688TIP3    H262556   2.075   4.764   3.225  0.2335 -1.4751 -0.7329
13689TIP3   OH262557   0.604   2.449   4.050  0.1739 -0.1880  0.4442
13689TIP3    H162558   0.580   2.524   4.104 -0.0816 -1.1544  1.6832
13689TIP3    H262559   0.698   2.437   4.064  0.0515 -0.6245  0.9359
13690TIP3   OH262560   6.715   5.043  14.975 -0.4962  0.7175  0.3641
13690TIP3    H162561   6.622   5.066  14.972 -0.5707  0.3936  0.2056
13690TIP3    H262562   6.724   4.991  15.055 -0.2627  1.5757  0.9031
13691TIP3   OH262563   5.039   1.696   3.556  0.0568  0.2315  0.3763
13691TIP3    H162564   5.087   1.771   3.522  0.7029 -0.2869  0.1170
13691TIP3    H262565   4.956   1.732   3.587  0.9031  1.2575  1.4936
13692TIP3   OH262566   5.207   0.957   3.676  0.1624  0.0864 -0.2984
13692TIP3    H162567   5.232   1.041   3.638  0.8436  0.3965  0.8329
13692TIP3    H262568   5.220   0.967   3.770 -0.4033 -1.0631 -0.0797
13693TIP3   OH262569   0.294   2.682   5.720 -0.1218 -0.2951 -0.3094
13693TIP3    H162570   0.304   2.684   5.625 -0.6612  2.1404 -0.3365
13693TIP3    H262571   0.362   2.621   5.749  1.1621  0.2100 -2.1223
13694TIP3   OH262572   1.242   3.906   2.200  0.3967 -0.2547 -0.0545
13694TIP3    H162573   1.190   3.827   2.186  0.2625 -0.5095  1.7419
13694TIP3    H262574   1.186   3.962   2.255  1.2148  0.3221  0.1965
13695TIP3   OH262575   2.688   2.430   1.045 -0.1563 -0.7805  0.3587
13695TIP3    H162576   2.624   2.459   1.110 -0.7831 -1.8116  0.2195
13695TIP3    H262577   2.770   2.470   1.073 -0.9176  0.7922  0.3748
13696TIP3   OH262578   2.670   0.861  14.565 -0.9408  0.1942 -0.1033
13696TIP3    H162579   2.574   0.860  14.560 -0.9595  1.5024 -0.3253
13696TIP3    H262580   2.692   0.954  14.559  0.4269 -0.2084 -1.3851
13697TIP3   OH262581   1.289   6.140  16.027 -0.4334 -0.0240  0.0385
13697TIP3    H162582   1.363   6.116  15.971 -1.1292 -0.9057 -0.5121
13697TIP3    H262583   1.313   6.108  16.114 -0.3554 -0.6818 -0.2269
13698TIP3   OH262584   6.216   4.451   2.233 -0.6501  0.4043 -0.2929
13698TIP3    H162585   6.144   4.391   2.252 -1.1008  0.6087 -1.2885
13698TIP3    H262586   6.174   4.537   2.229 -0.4578  0.4579 -1.4170
13699TIP3   OH262587   2.576   5.145  13.550  0.0545 -0.6001  0.4275
13699TIP3    H162588   2.525   5.146  13.631 -0.7257 -1.3354 -0.0457
13699TIP3    H262589   2.511   5.153  13.480  0.6581 -0.6595 -0.1493
13700TIP3   OH262590   2.564   4.157  16.870 -0.0071 -0.3465 -0.3652
13700TIP3    H162591   2.595   4.212  16.798  1.7632 -1.2855 -0.3397
13700TIP3    H262592   2.500   4.098  16.829 -0.6172  0.5548 -0.7263
13701TIP3   OH262593   1.373   4.118   4.104 -0.2978  0.4365  0.5258
13701TIP3    H162594   1.302   4.054   4.104 -0.9025  1.1023 -0.3727
13701TIP3    H262595   1.405   4.119   4.014  1.1387 -0.1551  1.0060
13702TIP3   OH262596   3.941   6.673  16.870  0.4212 -0.1990 -0.1561
13702TIP3    H162597   4.030   6.665  16.837 -0.2305  0.0949 -2.0465
13702TIP3    H262598   3.938   6.615  16.946  2.0566 -0.6142 -0.3987
13703TIP3   OH262599   1.559   4.505   4.976 -0.3089  0.3964 -0.1554
13703TIP3    H162600   1.606   4.569   5.031 -0.9089  0.7273 -0.0265
13703TIP3    H262601   1.482   4.482   5.026 -1.4709  1.5754 -1.3400
13704TIP3   OH262602   1.936   5.341  16.901 -0.0121  0.6981 -0.3554
13704TIP3    H162603   1.921   5.301  16.986  1.3061  0.4932 -0.2087
13704TIP3    H262604   2.003   5.407  16.917 -0.3122  1.1853 -1.0853
13705TIP3   OH262605   1.118   3.846   0.426 -0.1385 -0.3125 -0.9845
13705TIP3    H162606   1.135   3.752   0.425 -0.0114 -0.2883 -1.1779
13705TIP3    H262607   1.042   3.857   0.369 -0.4192 -0.3502 -0.6127
13706TIP3   OH262608   3.820   0.825  13.996 -0.6254  0.0498 -0.5970
13706TIP3    H162609   3.730   0.853  13.981 -1.1331 -1.7204 -1.0448
13706TIP3    H262610   3.821   0.797  14.088 -0.4404  0.3877 -0.4950
13707TIP3   OH262611   5.953   5.027   2.311  0.1300 -0.2585 -0.7392
13707TIP3    H162612   5.885   5.026   2.377  0.3440  2.3061 -0.4589
13707TIP3    H262613   6.019   4.965   2.343 -1.0305 -1.1011  0.0494
13708TIP3   OH262614   5.419   0.468  15.928  0.1832  0.1300  0.3319
13708TIP3    H162615   5.468   0.482  16.009 -0.6551  0.4025  0.7969
13708TIP3    H262616   5.456   0.531  15.866  0.3194  0.4414  0.7276
13709TIP3   OH262617   2.630   1.438   3.584  0.2256 -0.1946  0.0674
13709TIP3    H162618   2.557   1.439   3.646 -0.3828  0.5914 -0.6503
13709TIP3    H262619   2.593   1.473   3.503  0.7347 -2.1369 -1.0527
13710TIP3   OH262620   3.420   0.291   4.953 -0.2911 -0.4176  0.2218
13710TIP3    H162621   3.397   0.199   4.942 -2.3060 -0.1651  1.9713
13710TIP3    H262622   3.418   0.327   4.864 -0.1826 -1.9088 -0.3933
13711TIP3   OH262623   5.581   3.550  11.793  0.2139  0.3294 -0.6708
13711TIP3    H162624   5.658   3.536  11.737  0.6644 -3.7168  0.7741
13711TIP3    H262625   5.541   3.464  11.801 -1.2782  1.2521  3.1799
13712TIP3   OH262626   0.659   4.398  11.633 -0.5894 -0.2988 -0.1086
13712TIP3    H162627   0.604   4.467  11.669 -0.5650  0.3924 -1.3553
13712TIP3    H262628   0.678   4.427  11.544  0.3170 -1.3953 -0.2833
13713TIP3   OH262629   6.193   4.030  14.071  0.4271  0.2589 -0.1858
13713TIP3    H162630   6.256   4.100  14.089  1.9639 -0.4822 -2.5379
13713TIP3    H262631   6.232   3.980  13.999 -1.4581 -1.9960  0.3075
13714TIP3   OH262632   2.131   1.237  12.401 -0.3079  0.1616  0.0974
13714TIP3    H162633   2.148   1.155  12.355  0.6746  0.2757  0.2273
13714TIP3    H262634   2.134   1.304  12.333  0.1494  0.2226  0.1752
13715TIP3   OH262635   6.122   0.113  13.493  0.7062  0.1414  0.0026
13715TIP3    H162636   6.135   0.032  13.542 -1.0160 -0.9273 -1.2354
13715TIP3    H262637   6.104   0.179  13.560  1.5059 -0.6292  0.9895
13716TIP3   OH262638   4.476   0.210  15.339 -0.4497 -0.2030  0.1100
13716TIP3    H162639   4.535   0.242  15.407  0.3373  0.0203 -0.6679
13716TIP3    H262640   4.534   0.175  15.272 -1.1550  1.4411 -1.3797
13717TIP3   OH262641   5.226   6.471  11.044  0.2894 -0.0851 -0.4426
13717TIP3    H162642   5.235   6.517  10.960 -2.1361  0.2506 -0.5435
13717TIP3    H262643   5.185   6.388  11.021  0.9659 -0.6130  0.2535
13718TIP3   OH262644   2.822   1.961  12.616  0.2471 -0.1715  0.1510
13718TIP3    H162645   2.891   2.001  12.670 -0.5686 -0.2636  1.2877
13718TIP3    H262646   2.741   2.003  12.646 -0.4305 -1.5288  0.2618
13719TIP3   OH262647   2.993   6.706   5.442  0.1568  0.0847 -0.5431
13719TIP3    H162648   2.938   6.758   5.502  0.8031 -2.1283  2.0882
13719TIP3    H262649   3.082   6.738   5.458  0.4125 -0.9666  0.2284
13720TIP3   OH262650   3.539   4.492  14.050  0.5291 -0.4960 -0.6046
13720TIP3    H162651   3.484   4.499  14.128  1.2440 -2.7939  0.1203
13720TIP3    H262652   3.621   4.535  14.074 -0.2437  1.2760 -1.0583
13721TIP3   OH262653   3.262   0.149  14.371 -0.7563  0.1117  0.2530
13721TIP3    H162654   3.208   0.075  14.344  0.3092 -0.7795  0.5561
13721TIP3    H262655   3.280   0.134  14.463  0.4674  0.1204  0.0222
13722TIP3   OH262656   4.841   0.586   1.358  0.3563 -0.4705 -0.6265
13722TIP3    H162657   4.833   0.510   1.300 -1.8897 -0.2701 -0.6414
13722TIP3    H262658   4.750   0.613   1.374  1.0443  0.9000  1.1101
13723TIP3   OH262659   2.200   0.650   1.423  0.3709  0.8600  0.6258
13723TIP3    H162660   2.256   0.723   1.450  1.0256  0.6367 -0.1050
13723TIP3    H262661   2.122   0.693   1.387  0.3090  1.1796  1.1369
13724TIP3   OH262662   3.608   0.983  13.914  0.3073 -0.1145 -0.0429
13724TIP3    H162663   3.512   0.981  13.909  0.1959 -0.7521  1.6741
13724TIP3    H262664   3.627   1.065  13.961  0.5354 -0.5131  0.5628
13725TIP3   OH262665   2.695   5.501   1.271  0.1844 -0.1923 -0.0338
13725TIP3    H162666   2.703   5.494   1.366  0.7909  0.6916 -0.0104
13725TIP3    H262667   2.776   5.461   1.237 -0.1292 -0.7000 -0.1863
13726TIP3   OH262668   4.128   1.033   2.058 -0.0102  0.1692  0.6159
13726TIP3    H162669   4.157   1.077   1.978  0.5654 -0.9073  0.2241
13726TIP3    H262670   4.209   1.013   2.105 -0.1451 -2.1379 -0.1015
13727TIP3   OH262671   3.023   5.267   4.375  0.6376  0.1779  0.8839
13727TIP3    H162672   3.036   5.289   4.283  0.5953 -1.5711  0.4435
13727TIP3    H262673   2.941   5.311   4.399 -0.6928 -1.3858 -0.6280
13728TIP3   OH262674   0.884   6.783   4.126  0.3246  0.4950 -0.2052
13728TIP3    H162675   0.882   6.841   4.050  1.2161  0.7033 -0.0857
13728TIP3    H262676   0.922   6.701   4.093  0.7482  0.5992  0.0243
13729TIP3   OH262677   0.680   5.873  17.229  0.1165  0.0554  0.2700
13729TIP3    H162678   0.698   5.832  17.314 -0.5432 -0.3801  0.1991
13729TIP3    H262679   0.755   5.932  17.215  0.5303 -0.3158  0.8692
13730TIP3   OH262680   1.462   6.804  11.607 -0.1663  0.2204  0.3588
13730TIP3    H162681   1.527   6.776  11.672 -1.7096  1.4823  2.5029
13730TIP3    H262682   1.390   6.742  11.618 -0.0070 -0.1853 -0.8784
13731TIP3   OH262683   0.254   3.642   2.986 -0.0775  0.2654  0.0911
13731TIP3    H162684   0.323   3.577   2.979  0.5874  0.6459  2.3757
13731TIP3    H262685   0.289   3.720   2.943 -0.1250 -0.3043 -0.9921
13732TIP3   OH262686   6.006   2.868  17.018 -0.2722 -0.2235  0.3261
13732TIP3    H162687   6.062   2.844  16.944  0.8120 -0.5824  1.2588
13732TIP3    H262688   5.930   2.909  16.977  0.1613 -0.7178 -1.0152
13733TIP3   OH262689   1.243   3.236   0.982 -0.0860 -0.4382 -0.1556
13733TIP3    H162690   1.149   3.219   0.986 -0.2058  0.5193  2.1072
13733TIP3    H262691   1.261   3.253   0.890 -2.2531  0.0142 -0.5239
13734TIP3   OH262692   5.914   4.047  14.150  0.2156 -1.1285 -0.4438
13734TIP3    H162693   5.861   4.065  14.073  1.8962  4.2928 -0.5692
13734TIP3    H262694   6.001   4.027  14.116  1.2028  2.2144 -0.0594
13735TIP3   OH262695   1.651   5.350   4.072  0.6145  0.2420 -0.2605
13735TIP3    H162696   1.613   5.431   4.106  4.1643  1.5725  0.7690
13735TIP3    H262697   1.660   5.294   4.149  1.8757  0.4277 -0.2678
13736TIP3   OH262698   5.348   4.433   4.187 -0.7200  0.5740  0.0442
13736TIP3    H162699   5.427   4.477   4.218  0.6235 -1.2671 -0.6649
13736TIP3    H262700   5.337   4.464   4.097  1.5610 -2.1411 -1.2833
13737TIP3   OH262701   5.639   0.171  12.311  0.3560  0.6858 -0.2910
13737TIP3    H162702   5.672   0.241  12.368 -2.6820  2.3446 -0.4479
13737TIP3    H262703   5.575   0.215  12.254 -1.6311 -2.1947 -0.3970
13738TIP3   OH262704   1.669   0.744  15.969  0.3657  0.3668 -0.1548
13738TIP3    H162705   1.580   0.762  15.940  0.2187 -0.9876 -0.6139
13738TIP3    H262706   1.658   0.700  16.053  0.6476  1.1187  0.2796
13739TIP3   OH262707   5.272   5.717  15.583  0.0361 -0.6542 -0.1101
13739TIP3    H162708   5.260   5.630  15.544 -0.9949 -1.4411  1.8638
13739TIP3    H262709   5.207   5.721  15.653  1.6241  0.8139  1.3348
13740TIP3   OH262710   5.183   2.410   3.876 -0.2280 -0.3304  0.0527
13740TIP3    H162711   5.176   2.456   3.792 -0.4042 -0.2599  0.1068
13740TIP3    H262712   5.112   2.445   3.929 -0.2991 -0.5879  0.1289
13741TIP3   OH262713   2.268   2.397   4.743 -0.6638 -0.2035 -0.5419
13741TIP3    H162714   2.310   2.482   4.732 -0.5552 -0.4113 -1.7772
13741TIP3    H262715   2.341   2.336   4.757 -0.8001  0.0675  1.5360
13742TIP3   OH262716   3.496   0.064   4.680 -0.0665 -0.0923  0.1870
13742TIP3    H162717   3.508   0.152   4.718  0.5927  0.1220 -0.5253
13742TIP3    H262718   3.427   0.025   4.734 -0.6623  1.0173  0.2605
13743TIP3   OH262719   6.324   2.165  14.932 -0.1091  0.3973 -0.1030
13743TIP3    H162720   6.306   2.209  14.848 -2.4055  0.7621  0.5377
13743TIP3    H262721   6.336   2.073  14.909 -0.3764  0.5488 -0.8783
13744TIP3   OH262722   0.453   2.227  11.033 -0.2478 -0.8301 -0.0287
13744TIP3    H162723   0.436   2.289  10.963 -1.6269 -0.0076  1.0077
13744TIP3    H262724   0.537   2.255  11.070  0.9428 -1.8247 -1.9125
13745TIP3   OH262725   1.385   6.639   2.411 -0.2367  0.6551 -0.1672
13745TIP3    H162726   1.321   6.652   2.341 -0.5727  0.9227  0.1895
13745TIP3    H262727   1.344   6.577   2.471  1.4196 -2.2796 -1.9378
13746TIP3   OH262728   2.494   3.088   5.700  0.4371 -0.0600 -0.3334
13746TIP3    H162729   2.570   3.147   5.699  0.3038  0.1190 -2.8124
13746TIP3    H262730   2.420   3.145   5.723  0.5620  0.3945 -1.0629
13747TIP3   OH262731   3.056   2.825   1.316  0.0712 -0.2177  0.3822
13747TIP3    H162732   3.132   2.833   1.259  0.2543 -2.0247  0.3420
13747TIP3    H262733   2.981   2.832   1.258  0.2072  0.4330  0.2739
13748TIP3   OH262734   3.648   0.010  16.193  0.0785  0.6858 -0.0903
13748TIP3    H162735   3.593   0.041  16.121 -1.8859  1.4993  1.7042
13748TIP3    H262736   3.734  -0.002  16.154 -1.0900  0.5425 -2.6996
13749TIP3   OH262737   4.539   1.163   5.566 -0.4921  0.1927 -0.1611
13749TIP3    H162738   4.515   1.134   5.478 -0.6228 -1.5713  0.4267
13749TIP3    H262739   4.554   1.257   5.558  0.2240 -0.0843 -2.2209
13750TIP3   OH262740   2.903   1.052  12.815  0.1676 -0.5991 -0.0877
13750TIP3    H162741   2.964   1.031  12.744  0.2097  3.0976 -1.2935
13750TIP3    H262742   2.819   1.062  12.772 -0.7197 -2.6154  1.1086
13751TIP3   OH262743   1.169   2.163   3.369 -0.8430  0.2058  0.2910
13751TIP3    H162744   1.090   2.126   3.329 -1.2416  1.9908 -0.6355
13751TIP3    H262745   1.140   2.247   3.406  0.3588  0.3233  0.9924
13752TIP3   OH262746   4.695   2.286  15.453  0.7204 -0.2130 -0.2538
13752TIP3    H162747   4.663   2.223  15.387 -0.6176 -0.2685  0.4254
13752TIP3    H262748   4.672   2.247  15.537  0.8950  0.6577  0.2058
13753TIP3   OH262749   6.062   3.398  16.221  0.2531  0.0364  0.0308
13753TIP3    H162750   6.016   3.399  16.137 -0.2044  0.5974  0.2834
13753TIP3    H262751   6.101   3.311  16.226  2.0485  0.7313 -1.7055
13754TIP3   OH262752   1.209   5.508   4.768  0.0683 -0.0114 -0.1004
13754TIP3    H162753   1.234   5.418   4.745 -1.1084  0.2986 -2.6917
13754TIP3    H262754   1.282   5.562   4.739  0.8794 -0.1178  1.6664
13755TIP3   OH262755   2.590   5.874   4.038  0.1322 -0.5439 -0.5584
13755TIP3    H162756   2.647   5.933   3.990  0.3910 -1.0781 -0.9139
13755TIP3    H262757   2.506   5.920   4.044 -0.6299 -1.4739 -3.5936
13756TIP3   OH262758   2.827   1.679   1.441 -0.1526  0.5645 -0.0482
13756TIP3    H162759   2.860   1.648   1.525  0.3385 -0.0480 -0.4588
13756TIP3    H262760   2.823   1.774   1.450  1.8971  0.6667 -0.0449
13757TIP3   OH262761   3.632   6.462  13.980 -0.0552 -0.7985 -0.4376
13757TIP3    H162762   3.688   6.487  13.906 -0.8301 -0.6500 -0.9792
13757TIP3    H262763   3.554   6.424  13.939 -1.4273  1.1847  0.2217
13758TIP3   OH262764   1.684   2.515   4.732  0.9376 -0.3431  0.9253
13758TIP3    H162765   1.741   2.467   4.792  2.6840 -2.2333 -2.0899
13758TIP3    H262766   1.625   2.448   4.697 -0.1336  0.7408  0.6062
13759TIP3   OH262767   1.652   2.954  11.583 -0.0882  0.2362 -0.4633
13759TIP3    H162768   1.730   2.987  11.538 -1.4305  4.0480 -0.1897
13759TIP3    H262769   1.582   3.014  11.556 -1.9802 -0.4210  2.7421
13760TIP3   OH262770   1.520   0.982  14.070  0.0457 -0.3896  0.4214
13760TIP3    H162771   1.570   0.908  14.106 -0.6555 -1.7942 -1.3597
13760TIP3    H262772   1.430   0.950  14.066 -0.5272  1.1075  0.9656
13761TIP3   OH262773   6.320   3.528  10.482 -0.1572  0.1985 -0.4098
13761TIP3    H162774   6.284   3.566  10.562  0.5282 -0.5308  0.2564
13761TIP3    H262775   6.245   3.485  10.440 -0.7544  1.5519 -0.7450
13762TIP3   OH262776   5.170   4.838   2.717  0.2819 -0.1185 -0.0190
13762TIP3    H162777   5.208   4.863   2.633  1.0348  0.2563  0.4245
13762TIP3    H262778   5.225   4.766   2.747  0.4624  0.2228  0.4828
13763TIP3   OH262779   0.232   3.685  14.477  0.1862 -0.6112  0.0435
13763TIP3    H162780   0.216   3.605  14.427  1.0434  0.3161 -1.7754
13763TIP3    H262781   0.326   3.701  14.467 -0.1718  1.2077 -0.5620
13764TIP3   OH262782   2.372   2.133  11.699  0.6773  0.3284  0.1227
13764TIP3    H162783   2.400   2.197  11.634 -1.3028  0.0609 -1.0032
13764TIP3    H262784   2.390   2.175  11.783  1.9069  1.2408 -0.5768
13765TIP3   OH262785   5.296   4.523   3.924 -0.0333  0.3284  0.2366
13765TIP3    H162786   5.375   4.555   3.883 -0.5677 -1.5290 -2.3757
13765TIP3    H262787   5.226   4.541   3.861 -1.1415 -1.1474  0.9882
13766TIP3   OH262788   1.930   1.788   3.429 -0.0813  0.4439 -0.0187
13766TIP3    H162789   1.990   1.770   3.357  0.1841  0.0557  0.3005
13766TIP3    H262790   1.846   1.805   3.386 -0.6089 -2.6321 -0.2854
13767TIP3   OH262791   5.778   5.269  15.454  0.2214 -0.1775 -0.4477
13767TIP3    H162792   5.794   5.223  15.372  0.9510 -1.2563  0.2933
13767TIP3    H262793   5.741   5.202  15.512 -2.2210  1.0490 -0.5285
13768TIP3   OH262794   5.883   0.724   5.738  0.0911  0.0152  0.0577
13768TIP3    H162795   5.964   0.748   5.782  1.2539 -0.5104 -1.7520
13768TIP3    H262796   5.878   0.629   5.746  0.4675 -0.1189 -1.1659
13769TIP3   OH262797   2.019   0.370   1.762  0.5104  0.6943  0.2332
13769TIP3    H162798   1.937   0.418   1.772 -0.6482 -1.0296 -0.6941
13769TIP3    H262799   2.054   0.400   1.678  0.0992  0.3892 -0.0511
13770TIP3   OH262800   0.169   2.274  15.840  0.6870  0.1960 -0.3573
13770TIP3    H162801   0.236   2.334  15.873 -0.2468  0.2945  1.3923
13770TIP3    H262802   0.092   2.328  15.828  0.4157 -0.2615 -0.6911
13771TIP3   OH262803   3.920   5.171   2.008 -0.4888  0.5697  0.0856
13771TIP3    H162804   3.986   5.221   2.056 -0.3620 -0.3011  0.8368
13771TIP3    H262805   3.970   5.107   1.957 -0.7000  0.4342  0.0453
13772TIP3   OH262806   2.618   5.767   3.376  0.1236 -0.5730  0.2908
13772TIP3    H162807   2.688   5.827   3.350  1.2314 -1.9391  0.0336
13772TIP3    H262808   2.570   5.814   3.444  0.8145  0.7040 -0.0913
13773TIP3   OH262809   2.602   6.375   2.312 -0.7293 -0.2547 -0.4162
13773TIP3    H162810   2.654   6.390   2.391  0.1893  0.8363 -1.2240
13773TIP3    H262811   2.623   6.285   2.287  0.8550  0.1982 -0.7811
13774TIP3   OH262812   5.938   1.639   1.753 -0.5327  0.1868 -0.1210
13774TIP3    H162813   5.939   1.551   1.789 -0.4025  0.7013  1.1811
13774TIP3    H262814   6.030   1.668   1.758 -0.8380  1.0000  1.0252
13775TIP3   OH262815   4.627   0.781  12.044 -0.2700 -0.3968  0.6735
13775TIP3    H162816   4.589   0.864  12.073 -0.4650 -0.1211 -0.3195
13775TIP3    H262817   4.667   0.802  11.959  2.5435 -0.5666  1.9147
13776TIP3   OH262818   2.952   2.148   3.808  0.2762 -0.5693 -0.3725
13776TIP3    H162819   2.879   2.197   3.771  0.6835 -1.1273 -1.9503
13776TIP3    H262820   2.921   2.058   3.814 -0.4198 -0.2042  2.3862
13777TIP3   OH262821   4.798   4.628   0.427 -0.0131  0.3273 -0.0113
13777TIP3    H162822   4.725   4.689   0.440  0.5170  1.3372 -1.5639
13777TIP3    H262823   4.765   4.563   0.366 -0.3295 -0.5318  1.0543
13778TIP3   OH262824   6.228   0.778   3.665 -0.1585 -0.0596 -0.4452
13778TIP3    H162825   6.148   0.809   3.623 -1.2687 -1.8920  0.2585
13778TIP3    H262826   6.291   0.771   3.593 -1.2483 -0.6068 -1.3679
13779TIP3   OH262827   5.054   5.726   4.176  0.3413 -0.8864 -0.1042
13779TIP3    H162828   5.085   5.699   4.090  2.8042  0.9629  0.1430
13779TIP3    H262829   5.088   5.659   4.236  1.3624 -0.4598 -0.1998
13780TIP3   OH262830   2.607   2.267   3.363 -0.4404 -0.1042 -0.0154
13780TIP3    H162831   2.677   2.313   3.317 -0.4662 -0.0908 -0.0417
13780TIP3    H262832   2.605   2.180   3.324  0.6544 -0.6564  1.1088
13781TIP3   OH262833   2.948   1.724  11.134  0.0382  0.0593  0.2556
13781TIP3    H162834   2.915   1.635  11.126 -0.4914  0.3982 -1.4339
13781TIP3    H262835   2.880   1.771  11.181  0.2977 -0.4110  1.1088
13782TIP3   OH262836   0.138   5.196  16.565  0.1333 -0.0542 -0.6199
13782TIP3    H162837   0.098   5.118  16.603  1.9179 -2.1804 -2.9215
13782TIP3    H262838   0.107   5.196  16.474  0.0072  2.0522 -0.6002
13783TIP3   OH262839   6.662   4.371   5.640 -0.1071 -0.1697  0.9017
13783TIP3    H162840   6.696   4.344   5.726  0.1315 -0.0503  0.8451
13783TIP3    H262841   6.595   4.436   5.660 -0.2338 -0.3310  1.0093
13784TIP3   OH262842   3.587   3.658   1.762 -0.0268  0.1652 -0.1566
13784TIP3    H162843   3.586   3.570   1.799 -2.7523 -0.5766 -1.9183
13784TIP3    H262844   3.652   3.654   1.691  1.8197  0.3610  1.4665
13785TIP3   OH262845   2.679   5.932   2.074 -0.2988  0.4213 -0.3266
13785TIP3    H162846   2.774   5.936   2.058 -0.1902  0.5989  0.3473
13785TIP3    H262847   2.642   5.909   1.989  0.1611  2.6546 -1.1827
13786TIP3   OH262848   6.058   5.590  16.414  0.6262  0.4925  0.8880
13786TIP3    H162849   6.040   5.545  16.496 -0.5341  1.4241  1.1489
13786TIP3    H262850   6.154   5.601  16.414  0.5968  0.8856  2.3328
13787TIP3   OH262851   6.440   3.350  15.331 -0.2352  0.2856 -0.1602
13787TIP3    H162852   6.458   3.257  15.347 -0.4303  0.6556  2.3381
13787TIP3    H262853   6.504   3.396  15.386 -1.3202  1.6214 -0.0140
13788TIP3   OH262854   5.985   0.380   6.354  0.1673  0.1038  0.1734
13788TIP3    H162855   6.046   0.306   6.350  0.6149  0.5017 -0.4840
13788TIP3    H262856   5.933   0.372   6.274 -0.7996 -0.3708  0.8539
13789TIP3   OH262857   2.513   6.570   5.611 -0.2302  0.1842  0.4019
13789TIP3    H162858   2.438   6.599   5.662 -0.6534 -1.3839  0.6626
13789TIP3    H262859   2.545   6.650   5.568 -1.7594  0.9289  0.6410
13790TIP3   OH262860   0.403   1.649   3.230 -0.1251  0.7250 -0.1126
13790TIP3    H162861   0.311   1.636   3.254  0.4289 -2.5662  0.5451
13790TIP3    H262862   0.444   1.683   3.309 -0.4344  0.3575  0.2113
13791TIP3   OH262863   0.933   1.994  12.888 -0.0348 -0.1910  0.0483
13791TIP3    H162864   1.001   1.954  12.836  0.6955  0.7802  0.2475
13791TIP3    H262865   0.894   1.921  12.937  0.0644 -0.9162 -0.9335
13792TIP3   OH262866   5.703   0.012  11.260 -0.5354  0.0171  0.7354
13792TIP3    H162867   5.782  -0.022  11.303 -2.1695 -0.2006  3.6858
13792TIP3    H262868   5.724   0.104  11.243  0.5009 -0.1248  1.1796
13793TIP3   OH262869   0.917   6.429   2.750 -0.7045  0.3391  0.4861
13793TIP3    H162870   0.938   6.497   2.685 -1.4999 -0.8542 -1.0593
13793TIP3    H262871   0.979   6.359   2.731 -2.2747 -0.8536 -0.3490
13794TIP3   OH262872   4.488   3.647  12.996  0.2486 -0.1611  0.1802
13794TIP3    H162873   4.508   3.736  12.968 -2.0187  0.0675 -0.8056
13794TIP3    H262874   4.424   3.658  13.067  0.1275 -0.9976  0.2067
13795TIP3   OH262875   5.133   6.408   3.400 -0.2294 -0.0924 -0.3019
13795TIP3    H162876   5.118   6.431   3.492 -0.8919 -0.4043 -0.3350
13795TIP3    H262877   5.055   6.438   3.354  0.3684  0.6156 -0.8650
13796TIP3   OH262878   0.117   3.628  14.108  0.0340  0.3768  0.1224
13796TIP3    H162879   0.073   3.646  14.025  0.1073  0.1649  0.0384
13796TIP3    H262880   0.061   3.563  14.151  0.5873 -0.3412 -0.2449
13797TIP3   OH262881   5.471   3.611   5.657 -0.2927 -0.2400 -0.1478
13797TIP3    H162882   5.432   3.685   5.702  0.0236 -0.7393  0.9540
13797TIP3    H262883   5.424   3.607   5.573  1.3014  2.6514 -1.2435
13798TIP3   OH262884   4.183   0.303   2.180  0.2749 -0.1643 -0.2021
13798TIP3    H162885   4.255   0.364   2.192  1.1162 -1.1868 -0.0368
13798TIP3    H262886   4.224   0.223   2.148 -0.7710 -0.7779 -0.0347
13799TIP3   OH262887   2.180   4.368  13.032  0.2280 -0.1141  0.3219
13799TIP3    H162888   2.187   4.279  13.067 -1.6052  0.0438  1.1492
13799TIP3    H262889   2.173   4.356  12.937 -1.5885 -0.9511  0.5502
13800TIP3   OH262890   1.754   3.833   2.484 -0.4195 -0.1391 -0.3184
13800TIP3    H162891   1.689   3.764   2.473 -0.0521 -0.2089 -2.3719
13800TIP3    H262892   1.834   3.788   2.511  0.0911 -0.7016 -2.6097
13801TIP3   OH262893   4.370   1.989   0.173  0.0101  0.1915  0.1441
13801TIP3    H162894   4.418   2.071   0.175 -0.3219  0.4327 -1.0218
13801TIP3    H262895   4.331   1.987   0.085 -0.3754 -0.9771  0.3356
13802TIP3   OH262896   0.501   4.427  13.281  0.2304  0.4438  0.0236
13802TIP3    H162897   0.508   4.465  13.369 -0.4600  1.0332 -0.1695
13802TIP3    H262898   0.588   4.392  13.263  1.4347  3.4917 -0.4784
13803TIP3   OH262899   4.061   1.120  11.975 -0.3343  0.2305  0.4220
13803TIP3    H162900   4.154   1.131  11.993 -0.1348 -2.3114  1.1289
13803TIP3    H262901   4.020   1.200  12.008  1.4830  0.9376  0.9981
13804TIP3   OH262902   5.368   2.472  10.374  0.0796 -0.3112  0.0228
13804TIP3    H162903   5.320   2.555  10.365 -1.3072 -1.1072 -0.1094
13804TIP3    H262904   5.456   2.498  10.399 -0.1898  1.2399 -0.5630
13805TIP3   OH262905   2.769   6.057  12.906  0.3637  0.4126  0.1369
13805TIP3    H162906   2.717   5.983  12.876  2.3189 -0.5083 -1.1130
13805TIP3    H262907   2.779   6.111  12.828  1.1731  0.6412  0.3999
13806TIP3   OH262908   6.629   0.501   0.218  0.3449  0.0647 -0.2918
13806TIP3    H162909   6.554   0.559   0.237 -0.7608 -2.0166  1.9357
13806TIP3    H262910   6.607   0.461   0.134 -0.4973  0.3531 -0.2215
13807TIP3   OH262911   5.770   1.843  16.475  0.6761 -0.2158 -0.1464
13807TIP3    H162912   5.853   1.846  16.522 -0.4425  2.3293  1.8154
13807TIP3    H262913   5.729   1.762  16.504  1.6009 -0.4697  0.4649
13808TIP3   OH262914   5.884   3.357   3.267 -0.1554  0.3637  0.2464
13808TIP3    H162915   5.870   3.446   3.299 -2.5713  1.0020 -2.3642
13808TIP3    H262916   5.944   3.367   3.192 -0.9762 -0.0882 -0.4846
13809TIP3   OH262917   4.940   4.318  12.192 -0.3873  0.1829 -0.3704
13809TIP3    H162918   4.866   4.280  12.145 -0.6104  0.3456 -0.1539
13809TIP3    H262919   4.912   4.407  12.214  0.6142  0.9093 -1.9626
13810TIP3   OH262920   6.425   0.961  15.580 -0.3775  0.1965 -0.4080
13810TIP3    H162921   6.493   1.025  15.561 -0.2270 -0.1162 -0.9379
13810TIP3    H262922   6.465   0.902  15.644  0.0084 -0.2528 -1.0607
13811TIP3   OH262923   3.448   5.264   3.150 -0.3307 -0.2788  0.2373
13811TIP3    H162924   3.511   5.200   3.183  0.7480  0.5182 -0.2284
13811TIP3    H262925   3.409   5.223   3.073  0.4419 -0.3343 -0.1288
13812TIP3   OH262926   6.747   5.043   5.422 -0.1256 -0.4105  0.5628
13812TIP3    H162927   6.790   5.099   5.486  1.0254 -0.3423 -0.2499
13812TIP3    H262928   6.706   5.104   5.360  0.7586 -0.4711 -0.0793
13813TIP3   OH262929   6.618   3.341  14.523  0.3473 -0.6110 -0.1938
13813TIP3    H162930   6.560   3.326  14.598  2.2405 -0.9406  1.2401
13813TIP3    H262931   6.604   3.433  14.500  0.8809 -0.0554  1.5841
13814TIP3   OH262932   5.159   3.288  12.426  0.8609 -0.4053 -0.2143
13814TIP3    H162933   5.171   3.316  12.517  0.7285  1.5503 -0.7813
13814TIP3    H262934   5.173   3.367  12.374  1.1093 -1.5318 -1.9237
13815TIP3   OH262935   4.798   2.363  14.618  1.0525 -0.5359  0.9211
13815TIP3    H162936   4.731   2.343  14.683  0.5212  1.4005  0.9907
13815TIP3    H262937   4.849   2.435  14.657  1.5220 -0.2189 -0.2490
13816TIP3   OH262938   6.173   0.949   0.461 -0.4290  0.2608  0.0588
13816TIP3    H162939   6.201   0.877   0.517  0.0563 -0.3598 -0.9603
13816TIP3    H262940   6.135   1.013   0.521  1.3947  0.2497  1.2528
13817TIP3   OH262941   4.747   3.909   4.523  0.1683  0.9243  0.2885
13817TIP3    H162942   4.828   3.883   4.479 -0.9589 -2.1944 -0.0532
13817TIP3    H262943   4.685   3.925   4.452 -0.3351  0.4224  0.6120
13818TIP3   OH262944   3.652   2.197   0.502  0.3805 -0.3268 -0.3026
13818TIP3    H162945   3.574   2.161   0.544 -0.2323  1.4487  0.1194
13818TIP3    H262946   3.686   2.261   0.564  1.0124  0.3816 -1.3529
13819TIP3   OH262947   2.631   4.747   3.235 -0.3719 -0.1469  0.8715
13819TIP3    H162948   2.591   4.834   3.230 -0.3314  0.0232  3.1899
13819TIP3    H262949   2.568   4.694   3.283 -0.1852 -1.2954 -0.1226
13820TIP3   OH262950   3.868   2.498   3.133  0.4848 -0.3294 -0.4800
13820TIP3    H162951   3.858   2.472   3.042  0.5025  0.0637 -0.5958
13820TIP3    H262952   3.958   2.530   3.139  0.0862  0.8602 -0.6377
13821TIP3   OH262953   4.178   4.601  13.486 -0.2173  0.2560 -0.4788
13821TIP3    H162954   4.146   4.691  13.476  0.5956  1.2318  4.4770
13821TIP3    H262955   4.105   4.555  13.528  0.3751 -0.7177 -0.5168
13822TIP3   OH262956   2.057   2.368  11.984 -0.6118  0.2048  0.1837
13822TIP3    H162957   2.027   2.282  11.954 -0.8959  0.6575 -0.8488
13822TIP3    H262958   2.142   2.351  12.025 -0.4217 -0.4979 -0.4872
13823TIP3   OH262959   1.578   2.326  16.748 -0.0116  0.1636 -0.0569
13823TIP3    H162960   1.593   2.418  16.725  4.8482  0.4501  3.3813
13823TIP3    H262961   1.508   2.330  16.813 -1.8627  1.0657 -2.0398
13824TIP3   OH262962   6.172   0.680  17.112  0.3646  0.0855 -0.2673
13824TIP3    H162963   6.252   0.657  17.066 -0.4437 -1.5452 -0.9091
13824TIP3    H262964   6.116   0.719  17.045 -0.1666 -0.7315 -0.3138
13825TIP3   OH262965   1.225   5.899   0.803 -0.0777  0.1590  0.4662
13825TIP3    H162966   1.136   5.871   0.825  0.1984 -0.1012  1.2545
13825TIP3    H262967   1.256   5.834   0.740 -0.6376  0.5433 -0.2039
13826TIP3   OH262968   2.336   3.343  14.342  0.3417  0.6369 -0.0001
13826TIP3    H162969   2.375   3.408  14.400 -0.8394  1.7112 -0.4006
13826TIP3    H262970   2.253   3.320  14.384  0.8142 -0.7479  0.2258
13827TIP3   OH262971   4.651   2.386   2.555 -0.5135 -0.7154 -0.3216
13827TIP3    H162972   4.701   2.307   2.534 -0.9412 -1.5371  1.6363
13827TIP3    H262973   4.665   2.444   2.480  0.7008 -2.2154 -1.2838
13828TIP3   OH262974   2.917   4.643  12.261 -0.1837 -0.0739 -0.1724
13828TIP3    H162975   2.853   4.587  12.304  0.3580  0.0497  0.7947
13828TIP3    H262976   2.976   4.582  12.217 -0.2405 -0.2280 -0.0371
13829TIP3   OH262977   4.593   1.377   2.093 -0.0921 -0.1595 -0.4816
13829TIP3    H162978   4.546   1.448   2.049  0.6482 -0.1887 -1.3408
13829TIP3    H262979   4.639   1.420   2.165 -1.2073 -0.0894  0.2066
13830TIP3   OH262980   2.132   4.337  16.977  0.0484 -0.1120 -0.0105
13830TIP3    H162981   2.168   4.291  17.052 -0.6558  0.8760  0.9487
13830TIP3    H262982   2.115   4.426  17.009  0.6989  0.6285 -1.6120
13831TIP3   OH262983   1.092   5.613  13.403 -0.0692  0.3121 -0.2655
13831TIP3    H162984   1.050   5.595  13.486  2.8855  2.6678  1.8533
13831TIP3    H262985   1.117   5.527  13.369 -2.5156 -0.7629  0.5621
13832TIP3   OH262986   5.875   6.704  10.570 -0.3120 -0.0571  0.0275
13832TIP3    H162987   5.892   6.749  10.653  0.8364  0.6831 -0.5967
13832TIP3    H262988   5.961   6.683  10.536 -0.7356  0.8131 -1.6195
13833TIP3   OH262989   0.507   1.324   6.024  0.8785  0.0251  0.5768
13833TIP3    H162990   0.533   1.332   6.115  1.6757  0.0487  0.3479
13833TIP3    H262991   0.413   1.345   6.024  1.2752  1.8862  1.1027
13834TIP3   OH262992   5.801   6.273  12.904 -0.1345  0.5185  0.4807
13834TIP3    H162993   5.859   6.347  12.890 -1.7771  1.3652 -2.0740
13834TIP3    H262994   5.714   6.312  12.909 -0.9154 -1.1488  0.0607
13835TIP3   OH262995   1.521   6.492   6.338  0.3306  0.7028 -0.1427
13835TIP3    H162996   1.456   6.476   6.270  2.3797 -0.8369 -1.8163
13835TIP3    H262997   1.502   6.581   6.368 -1.7156  0.7730 -1.4834
13836TIP3   OH262998   0.434   4.579  11.737  0.0553  0.6016  0.3874
13836TIP3    H162999   0.377   4.637  11.686  0.9886 -0.9265 -2.5232
13836TIP3    H263000   0.382   4.499  11.747  0.7754  0.0586 -0.2051
13837TIP3   OH263001   1.786   3.090  15.378 -0.2347 -0.5799 -0.1748
13837TIP3    H163002   1.715   3.057  15.322 -1.5848  2.9346 -0.6338
13837TIP3    H263003   1.763   3.058  15.465 -1.7712 -0.4417 -0.5036
13838TIP3   OH263004   4.064   6.170  16.728 -0.0822  0.1009  0.3059
13838TIP3    H163005   4.063   6.085  16.684 -0.0863  1.5332 -2.6150
13838TIP3    H263006   3.988   6.216  16.693 -0.4488  1.0732  2.3472
13839TIP3   OH263007   4.889   5.169   3.053 -0.0204  0.0764 -1.1966
13839TIP3    H163008   4.953   5.216   3.108  0.0683  0.9054 -1.9914
13839TIP3    H263009   4.915   5.190   2.963  0.7075 -2.4293 -1.6142
13840TIP3   OH263010   5.853   2.229   0.068 -0.0941 -1.1102 -0.1095
13840TIP3    H163011   5.875   2.268   0.153  1.4944  0.5915 -1.2671
13840TIP3    H263012   5.824   2.303   0.015 -2.9700 -2.4409 -0.4964
13841TIP3   OH263013   4.954   5.520  12.544  0.3077 -0.7291 -0.1080
13841TIP3    H163014   4.967   5.609  12.576 -0.1127 -1.0940  1.0958
13841TIP3    H263015   4.863   5.501  12.564 -0.1384 -0.7536 -2.0816
13842TIP3   OH263016   6.052   5.507  13.796  0.1541  0.4860 -0.1025
13842TIP3    H163017   6.067   5.482  13.705 -0.1570  0.9218 -0.2754
13842TIP3    H263018   6.140   5.522  13.832  0.2061  2.1500 -0.8618
13843TIP3   OH263019   6.338   2.328   2.992  0.0339 -0.3803 -0.1363
13843TIP3    H163020   6.338   2.253   2.932  0.9004 -0.4624 -0.0327
13843TIP3    H263021   6.427   2.362   2.989 -0.5702  1.1865 -0.8420
13844TIP3   OH263022   6.105   3.476  12.175 -0.3066 -0.2881  0.7967
13844TIP3    H163023   6.188   3.435  12.199 -0.1248 -0.8587 -0.7426
13844TIP3    H263024   6.114   3.567  12.206  0.5681 -0.5563  1.3533
13845TIP3   OH263025   2.888   0.346   1.317 -0.0852 -0.6417  0.2932
13845TIP3    H163026   2.970   0.302   1.295 -0.0044  0.3019 -1.3397
13845TIP3    H263027   2.820   0.281   1.298  0.1761 -0.8198 -0.0356
13846TIP3   OH263028   0.935   3.905  13.837  0.4934 -0.1435 -0.2428
13846TIP3    H163029   0.988   3.870  13.910 -0.6468 -0.8292  0.2704
13846TIP3    H263030   0.868   3.958  13.880 -0.8921 -1.4962 -0.7085
13847TIP3   OH263031   4.589   5.210   4.403  0.1906 -0.2011  0.3924
13847TIP3    H163032   4.565   5.118   4.395  1.1044 -0.5342  1.3560
13847TIP3    H263033   4.531   5.244   4.471  1.5143 -0.6856  1.7937
13848TIP3   OH263034   6.406   3.929   4.106 -0.0326 -0.2294  0.5536
13848TIP3    H163035   6.413   3.986   4.029  1.9710 -0.8588  0.2456
13848TIP3    H263036   6.316   3.941   4.136  0.0034  2.2010 -0.1916
13849TIP3   OH263037   4.892   4.683   0.061  0.1315  0.4330  0.5926
13849TIP3    H163038   4.880   4.631   0.141  2.5774 -0.9057  0.1488
13849TIP3    H263039   4.808   4.679   0.017 -0.7082 -0.3665  2.2062
13850TIP3   OH263040   1.740   0.279   2.849  0.0830 -0.5643 -0.8626
13850TIP3    H163041   1.780   0.232   2.922  1.0515 -0.0777 -1.0735
13850TIP3    H263042   1.810   0.336   2.816 -0.7402  0.1754 -1.3357
13851TIP3   OH263043   6.462   4.892  14.714  0.3947  0.2921  0.0725
13851TIP3    H163044   6.556   4.900  14.700  0.7226  1.9367  2.8429
13851TIP3    H263045   6.442   4.801  14.690  2.7084 -0.1365 -0.3267
13852TIP3   OH263046   0.776   2.497   0.206  0.3661 -0.1201 -0.0108
13852TIP3    H163047   0.683   2.516   0.192  0.8017  1.3084 -1.1098
13852TIP3    H263048   0.788   2.503   0.301 -0.0286  2.8194 -0.1071
13853TIP3   OH263049   4.873   3.275   1.474 -0.2017 -0.2602  0.3348
13853TIP3    H163050   4.861   3.363   1.439 -0.8262 -0.8438 -0.9175
13853TIP3    H263051   4.823   3.274   1.555 -2.4125 -0.2977 -1.0129
13854TIP3   OH263052   1.916   4.867   1.371 -0.5850  0.4226  0.0487
13854TIP3    H163053   1.930   4.961   1.386 -1.7297  0.4294  1.0855
13854TIP3    H263054   1.852   4.863   1.301 -1.7109  0.4262  1.0719
13855TIP3   OH263055   0.063   6.699   5.994  0.0104 -0.1891 -0.1385
13855TIP3    H163056   0.005   6.767   6.028  0.5057  0.1306  0.0767
13855TIP3    H263057   0.149   6.722   6.029  0.2883 -0.5854 -0.5624
13856TIP3   OH263058   6.282   5.171  12.563  0.1303  0.3258  0.4452
13856TIP3    H163059   6.272   5.266  12.568 -2.2304  0.1470 -0.2454
13856TIP3    H263060   6.339   5.149  12.636  0.6252  2.2470  0.6795
13857TIP3   OH263061   1.501   1.851   1.748  0.1648 -0.1234 -0.2856
13857TIP3    H163062   1.544   1.923   1.702 -0.3549  0.8356  0.7078
13857TIP3    H263063   1.442   1.894   1.809  0.0697 -1.3990  0.5332
13858TIP3   OH263064   5.070   0.176   5.627  0.1356  0.7766 -0.0739
13858TIP3    H163065   5.009   0.237   5.668  1.0341  1.4960  0.2046
13858TIP3    H263066   5.097   0.220   5.547  1.3913  1.0888  0.5191
13859TIP3   OH263067   0.732   3.082  13.523  0.0111  0.2688  0.1192
13859TIP3    H163068   0.721   3.054  13.614 -2.2647 -0.8035 -0.4215
13859TIP3    H263069   0.782   3.012  13.482  1.0830  0.7786  0.5607
13860TIP3   OH263070   2.916   1.142   5.356 -0.4528 -0.3572  0.3686
13860TIP3    H163071   2.910   1.101   5.442  1.7763  1.1976  1.3120
13860TIP3    H263072   2.825   1.159   5.331 -1.1122 -0.7680  2.4211
13861TIP3   OH263073   5.844   4.864  13.256  0.1551 -0.4343 -0.3976
13861TIP3    H163074   5.826   4.842  13.347 -0.1981  1.5789  0.0186
13861TIP3    H263075   5.920   4.922  13.259 -1.4776  1.7950 -1.1671
13862TIP3   OH263076   4.542   5.704  11.631 -0.1812  0.4948  0.1987
13862TIP3    H163077   4.478   5.775  11.624  0.2307  0.8492  0.0091
13862TIP3    H263078   4.584   5.719  11.716 -0.3943  0.2227  0.3538
13863TIP3   OH263079   4.743   3.010   3.801  0.1794  0.2278 -0.5835
13863TIP3    H163080   4.767   3.083   3.744 -0.6499  0.7016 -0.3219
13863TIP3    H263081   4.816   2.948   3.791  1.6134  1.7181  0.3098
13864TIP3   OH263082   5.368   3.616   1.444  0.5799 -0.0288 -0.5798
13864TIP3    H163083   5.317   3.585   1.368 -1.4275  0.5238  0.5073
13864TIP3    H263084   5.302   3.648   1.505  2.2792  0.9096  0.7941
13865TIP3   OH263085   1.771   1.477   4.654  0.1834 -0.3379 -0.3596
13865TIP3    H163086   1.733   1.406   4.604 -2.1006 -0.5912  1.6099
13865TIP3    H263087   1.788   1.546   4.590  0.1633 -1.7600 -1.9083
13866TIP3   OH263088   0.123   1.476  10.624 -0.5540 -0.7552  0.6065
13866TIP3    H163089   0.118   1.389  10.584  3.2621 -0.7720 -0.0203
13866TIP3    H263090   0.105   1.536  10.553  2.4775 -0.9154 -0.3705
13867TIP3   OH263091   3.619   0.744  15.964  0.7158  0.2346 -0.3492
13867TIP3    H163092   3.594   0.834  15.983  0.6813  0.5321 -1.7717
13867TIP3    H263093   3.655   0.711  16.046 -0.2060  1.2229  0.4610
13868TIP3   OH263094   1.440   5.768  16.352  0.4448 -0.3034 -0.5529
13868TIP3    H163095   1.535   5.778  16.364  0.3935  1.4839 -1.3878
13868TIP3    H263096   1.431   5.712  16.275  0.8516  0.6150 -1.2832
13869TIP3   OH263097   0.275   5.054   5.566  0.1888  0.4990 -0.3979
13869TIP3    H163098   0.286   5.130   5.623 -1.6595  1.8987 -1.8300
13869TIP3    H263099   0.358   5.046   5.520  1.2259  0.1676  1.4790
13870TIP3   OH263100   4.457   2.054   1.016 -0.1270 -0.4675 -0.1222
13870TIP3    H163101   4.547   2.025   1.005  0.1189 -0.5577  1.9436
13870TIP3    H263102   4.405   1.974   1.019 -0.0058 -0.5099  0.9169
13871TIP3   OH263103   0.221   1.221  14.034  0.9401  0.0691 -0.3191
13871TIP3    H163104   0.133   1.212  13.997  1.0157  1.2788 -0.8152
13871TIP3    H263105   0.279   1.225  13.959  1.2989  0.4793 -0.0267
13872TIP3   OH263106   0.218   3.011   2.054 -0.0916  0.1874 -0.1256
13872TIP3    H163107   0.284   3.071   2.019 -0.1467  0.2731 -0.0841
13872TIP3    H263108   0.266   2.954   2.113 -0.2281  0.8938  0.6688
13873TIP3   OH263109   6.550   3.208   4.526  0.2471  0.4784 -0.3045
13873TIP3    H163110   6.544   3.277   4.461 -0.1507 -1.2499 -2.1627
13873TIP3    H263111   6.633   3.163   4.506  0.6757  0.6170  1.0963
13874TIP3   OH263112   3.112   3.774   1.131 -0.0928 -0.1866 -0.4358
13874TIP3    H163113   3.115   3.702   1.194 -0.3791  0.2271  0.0526
13874TIP3    H263114   3.179   3.835   1.161 -0.9666  0.5184  0.0885
13875TIP3   OH263115   3.591   0.520   2.998 -0.1039  0.4018  0.0501
13875TIP3    H163116   3.615   0.545   3.087 -1.5947  1.5128  0.1516
13875TIP3    H263117   3.547   0.597   2.962 -0.5119 -0.4291 -1.2682
13876TIP3   OH263118   5.412   5.575   1.003 -0.4698  0.1298  0.2096
13876TIP3    H163119   5.459   5.603   0.924 -1.4730 -1.3674 -0.9279
13876TIP3    H263120   5.330   5.537   0.971 -1.2612  0.2485  2.0238
13877TIP3   OH263121   4.597   1.509   4.252  0.1492  0.0804 -0.9198
13877TIP3    H163122   4.551   1.577   4.203  1.4906  0.0838 -2.1896
13877TIP3    H263123   4.539   1.491   4.327 -1.1737  1.1708 -1.6475
13878TIP3   OH263124   1.800   3.335   1.006 -0.0711 -0.1536  0.4476
13878TIP3    H163125   1.847   3.409   1.045  1.6150 -1.2478  0.5389
13878TIP3    H263126   1.869   3.272   0.983 -1.3620 -1.1298 -0.8585
13879TIP3   OH263127   1.398   4.238   4.488 -0.5135  0.2093  0.0677
13879TIP3    H163128   1.341   4.277   4.555 -0.7116 -2.0915  1.3047
13879TIP3    H263129   1.476   4.292   4.488 -1.2007  1.2247  0.9993
13880TIP3   OH263130   0.432   0.044  16.724  0.1776 -0.4620 -0.3549
13880TIP3    H163131   0.490   0.047  16.648 -0.2136  0.3056 -0.6307
13880TIP3    H263132   0.421  -0.049  16.742  0.7644 -0.6336 -0.8598
13881TIP3   OH263133   3.220   3.547  12.729  0.0200  0.5184  0.1946
13881TIP3    H163134   3.208   3.468  12.676 -1.7851 -0.1715  1.5798
13881TIP3    H263135   3.230   3.515  12.818 -0.1885  1.8241  0.6989
13882TIP3   OH263136   4.676   1.484  11.771 -0.1297  0.1344 -0.2569
13882TIP3    H163137   4.769   1.505  11.765 -0.5547  2.5956  0.7486
13882TIP3    H263138   4.663   1.461  11.863 -0.0178 -3.0170 -0.9858
13883TIP3   OH263139   0.572   6.408   1.801  0.0271  0.3893 -0.5251
13883TIP3    H163140   0.561   6.383   1.709  1.9684  0.7883 -0.8992
13883TIP3    H263141   0.527   6.492   1.808  0.2083  0.5497 -1.2126
13884TIP3   OH263142   3.677   6.306  15.951  0.1444 -0.2047  0.3007
13884TIP3    H163143   3.725   6.388  15.960 -1.0910  0.5695 -0.0713
13884TIP3    H263144   3.684   6.284  15.858 -0.0849 -0.1859  0.2804
13885TIP3   OH263145   6.165   0.969   6.375  0.3860  0.7585 -0.1646
13885TIP3    H163146   6.139   0.917   6.451  1.5077  1.9487  1.0546
13885TIP3    H263147   6.095   1.034   6.365  0.1187  0.4518 -0.3068
13886TIP3   OH263148   1.037   3.296   1.568  0.2930 -0.2657  0.3427
13886TIP3    H163149   1.078   3.329   1.648 -0.3341 -0.9771  0.9555
13886TIP3    H263150   1.070   3.354   1.499  1.1294  0.1150  1.0550
13887TIP3   OH263151   4.061   5.724   4.855 -0.5281  0.3459 -0.4095
13887TIP3    H163152   4.151   5.690   4.851 -1.2340 -1.6638  0.4872
13887TIP3    H263153   4.007   5.656   4.816 -1.7921  1.1304 -0.0678
13888TIP3   OH263154   1.859   6.122  13.038  0.1079 -0.4283 -0.2425
13888TIP3    H163155   1.801   6.078  13.100  0.2551 -1.3791 -0.7615
13888TIP3    H263156   1.917   6.052  13.006  3.3711  1.0015  2.3113
13889TIP3   OH263157   5.448   6.039  10.933  0.4706  0.1117  0.0167
13889TIP3    H163158   5.384   6.087  10.986  0.2715  0.2506 -0.3519
13889TIP3    H263159   5.503   6.107  10.894 -0.9676  0.1381 -1.9939
13890TIP3   OH263160   5.957   4.021   2.106  0.5246  0.3519  0.3302
13890TIP3    H163161   5.966   4.041   2.013 -0.5815 -0.2131  0.0872
13890TIP3    H263162   5.948   3.926   2.110  1.1502  0.3192  1.0695
13891TIP3   OH263163   5.319   6.018  16.250 -0.4585  0.0438 -0.3653
13891TIP3    H163164   5.357   6.105  16.234 -2.4326  0.8416 -0.8103
13891TIP3    H263165   5.300   5.984  16.162  0.5135 -0.9587 -0.2069
13892TIP3   OH263166   5.735   0.613   5.517  0.2130 -0.1451  0.1075
13892TIP3    H163167   5.652   0.655   5.540  0.3717 -1.2148  2.7046
13892TIP3    H263168   5.801   0.661   5.567  0.6457 -2.0202  1.3854
13893TIP3   OH263169   6.742   6.216   1.030  0.4456  0.1408 -0.0888
13893TIP3    H163170   6.826   6.261   1.040 -0.1887  1.2212  0.5449
13893TIP3    H263171   6.701   6.225   1.116  0.0856 -1.2271 -0.1071
13894TIP3   OH263172   0.652   2.002  13.495 -0.2875 -0.3853  0.2761
13894TIP3    H163173   0.640   1.955  13.578 -0.6982 -1.1986 -0.2423
13894TIP3    H263174   0.636   1.936  13.427  1.8351 -0.1791 -0.4588
13895TIP3   OH263175   0.242   4.085   2.733 -0.6656 -0.2826  0.2533
13895TIP3    H163176   0.258   4.174   2.765 -1.4238 -0.1748  0.3492
13895TIP3    H263177   0.251   4.091   2.638 -1.4329  0.0504  0.2014
13896TIP3   OH263178   0.805   1.527   3.683 -0.3942  0.6662 -0.2674
13896TIP3    H163179   0.810   1.473   3.604  0.7126  1.3483 -0.6738
13896TIP3    H263180   0.764   1.470   3.748  0.1496 -0.4398 -0.8803
13897TIP3   OH263181   0.350   0.229  12.541  0.1427  0.7196  0.0038
13897TIP3    H163182   0.392   0.220  12.627  0.7696  1.6715 -0.1891
13897TIP3    H263183   0.383   0.312  12.507  1.2950 -0.4923 -1.9264
13898TIP3   OH263184   4.252   1.358   0.229 -0.4088  0.1562 -0.0436
13898TIP3    H163185   4.231   1.387   0.140  0.9561  1.9680  0.2104
13898TIP3    H263186   4.257   1.438   0.280 -0.0325 -0.7943  1.4392
13899TIP3   OH263187   6.638   3.968  12.325 -0.3048  0.3832 -0.5315
13899TIP3    H163188   6.721   3.930  12.352 -0.2969 -2.0751 -3.7744
13899TIP3    H263189   6.662   4.036  12.263 -0.6610  1.1700  0.1750
13900TIP3   OH263190   5.405   1.671  11.367  0.1118 -0.6435  0.3371
13900TIP3    H163191   5.477   1.613  11.344  1.6304  1.0526  0.6392
13900TIP3    H263192   5.375   1.706  11.284 -1.2240 -2.3146  0.1006
13901TIP3   OH263193   3.908   3.901  15.954  0.1088 -0.6428  1.0378
13901TIP3    H163194   3.939   3.988  15.980  0.0626  0.0280 -1.1162
13901TIP3    H263195   3.818   3.898  15.986  0.1089  0.1073  1.1363
13902TIP3   OH263196   3.941   5.149   1.641  0.1586  0.9298 -0.5180
13902TIP3    H163197   3.909   5.062   1.664 -2.9964  1.9605 -0.8567
13902TIP3    H263198   3.915   5.161   1.550  1.0681  2.0385 -0.6488
13903TIP3   OH263199   1.226   6.245  17.008 -0.7476  0.1661 -0.2400
13903TIP3    H163200   1.254   6.160  16.977 -1.9831  0.2102 -1.5285
13903TIP3    H263201   1.181   6.285  16.933 -2.3932  0.9166  1.0971
13904TIP3   OH263202   1.973   1.349   5.696  0.3677 -0.3412  0.1978
13904TIP3    H163203   2.059   1.372   5.660  0.0654 -0.2611 -0.4800
13904TIP3    H263204   1.912   1.408   5.652 -0.0679 -0.5953  0.4609
13905TIP3   OH263205   1.159   3.275  13.196 -0.6354 -0.1235  0.2880
13905TIP3    H163206   1.173   3.289  13.103 -0.0526 -0.6174  0.2935
13905TIP3    H263207   1.159   3.362  13.235  0.2694  0.0223 -0.0210
13906TIP3   OH263208   1.673   1.948  11.733 -0.5321 -0.1574 -0.2260
13906TIP3    H163209   1.729   2.015  11.693  0.3372 -0.5174  0.3701
13906TIP3    H263210   1.693   1.869  11.683 -0.2299 -0.3697  0.2299
13907TIP3   OH263211   0.557   2.296  11.638  0.6218  0.2304 -0.0504
13907TIP3    H163212   0.542   2.366  11.701  2.2039  0.4456  0.0974
13907TIP3    H263213   0.643   2.260  11.661 -0.2155 -1.8452 -0.0390
13908TIP3   OH263214   4.855   2.766  10.607  0.0680 -0.2254  0.1570
13908TIP3    H163215   4.940   2.810  10.600 -0.1382  0.0472 -0.7708
13908TIP3    H263216   4.867   2.683  10.562 -0.1535 -0.1888  0.0268
13909TIP3   OH263217   5.928   3.582   5.219  0.1880  0.2043  0.6561
13909TIP3    H163218   6.022   3.590   5.238  0.3503 -0.4839  0.1405
13909TIP3    H263219   5.903   3.668   5.186  0.5386  0.5255  1.2086
13910TIP3   OH263220   2.957   1.339   5.096 -0.0353 -0.1592 -0.5066
13910TIP3    H163221   2.998   1.281   5.031  0.0861  0.1328 -0.6910
13910TIP3    H263222   3.027   1.359   5.157  0.5517  1.6835 -1.7423
13911TIP3   OH263223   2.997   4.093   6.263 -0.5981 -0.5452  0.3149
13911TIP3    H163224   2.993   4.071   6.170 -0.8627  0.4495  0.0862
13911TIP3    H263225   3.006   4.188   6.265 -2.2176 -0.3915  1.3353
13912TIP3   OH263226   5.877   1.711  14.848 -0.0331 -0.5276 -0.3212
13912TIP3    H163227   5.942   1.746  14.909  1.0567 -0.5757 -1.4246
13912TIP3    H263228   5.806   1.680  14.903  0.8793 -0.4509  0.9160
13913TIP3   OH263229   5.488   0.219   4.183 -0.3062  0.1891 -0.8654
13913TIP3    H163230   5.473   0.124   4.182 -0.7974  0.2714 -1.7373
13913TIP3    H263231   5.415   0.254   4.233  0.8009 -0.0300  0.9748
13914TIP3   OH263232   6.742   2.244   1.235  0.0435  0.2151 -0.2117
13914TIP3    H163233   6.701   2.250   1.322  1.7268 -2.4681  0.8100
13914TIP3    H263234   6.816   2.304   1.240  1.0378 -1.0575  0.7677
13915TIP3   OH263235   0.808   4.709  14.398 -0.0803 -0.3384 -0.0456
13915TIP3    H163236   0.818   4.634  14.339 -0.7676 -0.7325  0.3337
13915TIP3    H263237   0.863   4.777  14.359 -0.0230 -0.8020 -0.7949
13916TIP3   OH263238   6.701   3.462   1.412 -0.3459  0.5149 -0.0483
13916TIP3    H163239   6.644   3.390   1.384 -0.3577  0.1634  0.8626
13916TIP3    H263240   6.710   3.450   1.507  3.5617 -1.1541 -0.5194
13917TIP3   OH263241   5.820   5.444  15.187 -0.2981 -0.1906  0.4187
13917TIP3    H163242   5.909   5.412  15.201 -0.7503 -0.8022  1.9154
13917TIP3    H263243   5.797   5.414  15.099  0.9713 -0.0017  0.0139
13918TIP3   OH263244   6.657   3.536  12.550 -0.2598 -0.2535 -0.5368
13918TIP3    H163245   6.676   3.537  12.644 -1.1836  0.6989 -0.3500
13918TIP3    H263246   6.735   3.573  12.509  0.9123 -2.3594 -0.3112
13919TIP3   OH263247   4.254   6.254   5.962  0.1297 -0.0750  0.1899
13919TIP3    H163248   4.196   6.257   6.038  1.6335  0.1370  1.3645
13919TIP3    H263249   4.252   6.162   5.934 -0.2511 -0.2051  0.6343
13920TIP3   OH263250   6.257   1.098   2.729 -0.4495 -0.5353 -0.1393
13920TIP3    H163251   6.199   1.083   2.803 -0.1620 -0.9497  0.0004
13920TIP3    H263252   6.226   1.039   2.661 -1.8671  1.1501 -0.9918
13921TIP3   OH263253   2.875   4.069   3.912  0.0018  0.6790 -0.0676
13921TIP3    H163254   2.916   4.155   3.903  0.6119  0.3275 -0.7210
13921TIP3    H263255   2.920   4.015   3.847 -0.5479 -0.0683  0.1755
13922TIP3   OH263256   2.803   0.359   2.733 -0.0164  0.4274  0.3865
13922TIP3    H163257   2.821   0.426   2.799  1.9607  2.3003 -1.9968
13922TIP3    H263258   2.879   0.300   2.737 -1.4930 -1.4387  2.0956
13923TIP3   OH263259   4.583   5.645  13.472 -0.4389 -0.2469 -0.5707
13923TIP3    H163260   4.624   5.603  13.548 -0.5707  0.6708  0.0171
13923TIP3    H263261   4.657   5.672  13.417 -0.2946  0.2937 -0.1146
13924TIP3   OH263262   2.896   3.299  11.373  1.0221  0.3489 -0.6392
13924TIP3    H163263   2.875   3.383  11.415  1.9661  1.2492 -1.9348
13924TIP3    H263264   2.831   3.291  11.303  0.3175 -0.4832  0.1049
13925TIP3   OH263265   1.988   3.426   2.992  0.1021  0.0104 -0.1494
13925TIP3    H163266   1.932   3.458   3.062  0.4665  0.7978 -0.2142
13925TIP3    H263267   2.077   3.428   3.030  0.0284 -1.7994  0.1627
13926TIP3   OH263268   5.219   4.979  16.233  0.2265  0.2200 -0.1692
13926TIP3    H163269   5.183   4.891  16.237  0.6370 -0.1038 -2.5235
13926TIP3    H263270   5.266   4.990  16.315 -1.8556 -0.8431  1.1945
13927TIP3   OH263271   4.357   5.254   4.606 -0.3088  0.0980 -0.1575
13927TIP3    H163272   4.304   5.288   4.678 -0.1504  0.6851 -0.3137
13927TIP3    H263273   4.294   5.224   4.541 -0.5099  3.7952 -1.7786
13928TIP3   OH263274   0.021   5.754  14.905  0.1441 -0.0492 -0.4235
13928TIP3    H163275   0.106   5.797  14.909 -0.0694  0.2075  1.9863
13928TIP3    H263276  -0.040   5.824  14.881  0.3946  0.1028 -0.6123
13929TIP3   OH263277   6.373   4.222   3.193  0.2736  0.3855  0.0548
13929TIP3    H163278   6.319   4.151   3.228  0.6154  0.5244  0.8712
13929TIP3    H263279   6.401   4.271   3.270  1.6238  0.2797 -0.3576
13930TIP3   OH263280   0.662   4.159  11.418  0.3071 -0.1791 -0.0761
13930TIP3    H163281   0.621   4.182  11.502 -0.3619  1.5800 -0.8539
13930TIP3    H263282   0.590   4.129  11.363  0.5482 -0.1583 -0.4084
13931TIP3   OH263283   1.144   3.444  11.547  0.0152  0.2566  0.5251
13931TIP3    H163284   1.202   3.368  11.550  0.0165  0.2388  0.0730
13931TIP3    H263285   1.156   3.480  11.459 -1.6280 -0.5010 -0.0271
13932TIP3   OH263286   5.560   0.860   1.015 -0.4902 -0.0794  0.1575
13932TIP3    H163287   5.645   0.860   1.060 -0.0506  0.0675 -0.6664
13932TIP3    H263288   5.578   0.900   0.930 -1.3348 -0.2825 -0.1190
13933TIP3   OH263289   4.047   6.817   6.826  0.0855 -0.7046 -0.0411
13933TIP3    H163290   4.124   6.857   6.786  0.1221  1.8174  2.3730
13933TIP3    H263291   3.976   6.835   6.765  0.6827  0.4702 -0.4163
13934TIP3   OH263292   4.726   0.110   2.931  0.8817  0.1045  0.2279
13934TIP3    H163293   4.801   0.157   2.895 -0.0437  1.5651  0.1572
13934TIP3    H263294   4.654   0.173   2.927 -0.0946 -0.9106  1.3023
13935TIP3   OH263295   6.589   3.325   5.940 -0.5310 -0.2184  0.6929
13935TIP3    H163296   6.552   3.297   6.024 -0.6856 -0.1163  0.6582
13935TIP3    H263297   6.522   3.382   5.902 -0.3271 -0.0165  0.6398
13936TIP3   OH263298   0.424   3.265  16.495  0.1773  0.1797  0.5042
13936TIP3    H163299   0.488   3.239  16.561 -0.2788 -1.0578  0.4569
13936TIP3    H263300   0.339   3.259  16.538 -0.0108  0.7532  0.2287
13937TIP3   OH263301   3.071   2.422  15.632  0.2007  0.0200 -0.2197
13937TIP3    H163302   3.077   2.457  15.543 -1.1854  0.7413 -0.0313
13937TIP3    H263303   3.123   2.342  15.629  2.2524  1.3463 -1.0114
13938TIP3   OH263304   2.790   0.090  13.130  0.1342  0.4062  0.2684
13938TIP3    H163305   2.812   0.074  13.039  1.3784 -3.2262  1.1207
13938TIP3    H263306   2.872   0.122  13.169  0.4323 -0.8151  0.6835
13939TIP3   OH263307   4.118   1.233  15.376  0.0492 -0.0914  0.1310
13939TIP3    H163308   4.203   1.190  15.366  0.9112  1.8066 -0.9240
13939TIP3    H263309   4.075   1.184  15.447  0.9295 -2.7360 -1.0925
13940TIP3   OH263310   4.085   4.827   1.414 -0.3275 -0.2118  0.2425
13940TIP3    H163311   4.031   4.759   1.374  0.1246 -0.7778  0.5811
13940TIP3    H263312   4.175   4.805   1.390 -0.2830  1.0510 -0.7967
13941TIP3   OH263313   5.908   3.151   2.945  0.2892  0.0507 -0.5297
13941TIP3    H163314   5.973   3.124   2.880  2.2059  2.0228  0.5054
13941TIP3    H263315   5.925   3.093   3.020 -2.2943 -2.6148 -1.8792
13942TIP3   OH263316   4.065   1.919  10.905 -0.2568 -0.4156 -0.6398
13942TIP3    H163317   4.153   1.916  10.868  0.6416 -0.6729  1.4437
13942TIP3    H263318   4.027   1.834  10.883 -0.1366 -0.1530 -1.8867
13943TIP3   OH263319   3.559   6.600  10.363 -0.3950  0.7839 -0.0060
13943TIP3    H163320   3.503   6.548  10.421 -0.3544  1.2294  0.4307
13943TIP3    H263321   3.648   6.578  10.391 -0.3141 -0.4593 -1.1494
13944TIP3   OH263322   1.475   4.729  12.569 -0.2337 -0.0858  0.6344
13944TIP3    H163323   1.392   4.721  12.521 -0.2369  1.4564  0.3792
13944TIP3    H263324   1.493   4.640  12.600 -0.6829 -0.9435 -1.4843
13945TIP3   OH263325   3.134   5.407  13.783  0.0960  0.3462  0.3513
13945TIP3    H163326   3.167   5.335  13.836 -0.0737 -0.3899 -0.5125
13945TIP3    H263327   3.085   5.364  13.713 -1.9351  1.3708  1.1019
13946TIP3   OH263328   1.709   3.450  13.637 -0.2579 -0.0696  0.0542
13946TIP3    H163329   1.630   3.456  13.691 -1.0149 -0.0932 -1.0328
13946TIP3    H263330   1.678   3.467  13.548  0.9241 -0.3514 -0.4166
13947TIP3   OH263331   5.199   3.735  15.392  0.2276 -0.4255  0.1239
13947TIP3    H163332   5.176   3.828  15.398 -0.2929 -0.5654  0.3675
13947TIP3    H263333   5.286   3.729  15.431 -0.0640 -0.1582  0.8235
13948TIP3   OH263334   6.584   6.283  15.541  0.5467 -0.1394  0.3305
13948TIP3    H163335   6.656   6.342  15.520 -1.3593  1.6317 -1.4485
13948TIP3    H263336   6.516   6.339  15.576  0.2560 -1.8911  2.6893
13949TIP3   OH263337   0.723   3.008   0.632  0.0601 -0.3804 -0.0414
13949TIP3    H163338   0.755   3.053   0.710  0.0695  0.7418 -0.6827
13949TIP3    H263339   0.637   2.974   0.657 -0.6651  1.3730 -0.0272
13950TIP3   OH263340   0.476   5.635  15.876 -0.1509  0.3018  0.4002
13950TIP3    H163341   0.535   5.668  15.944  0.8713  2.5033 -1.4577
13950TIP3    H263342   0.392   5.678  15.894 -0.0108  0.5139  0.5514
13951TIP3   OH263343   2.868   6.125   2.987  0.1219  0.7164 -0.7273
13951TIP3    H163344   2.955   6.159   3.008  0.2662  0.0285 -0.1924
13951TIP3    H263345   2.815   6.145   3.065  0.0344  0.3209 -0.6852
13952TIP3   OH263346   4.008   4.115   0.565 -0.4738  0.4188 -0.5537
13952TIP3    H163347   4.068   4.188   0.550 -0.0729  0.2647  0.2614
13952TIP3    H263348   3.934   4.154   0.611 -0.8807  0.5597 -1.3237
13953TIP3   OH263349   2.482   4.124  14.772 -0.0450 -0.2645 -0.0639
13953TIP3    H163350   2.534   4.112  14.851  0.1007 -0.7197 -0.2273
13953TIP3    H263351   2.539   4.175  14.713 -0.1270  0.0134  0.0952
13954TIP3   OH263352   6.192   5.714   2.863 -0.0233  0.6331 -0.0082
13954TIP3    H163353   6.230   5.690   2.779  2.1610  1.9558  0.5503
13954TIP3    H263354   6.135   5.788   2.844 -2.2301 -1.2499 -0.8332
13955TIP3   OH263355   3.981   3.760   5.617  0.0532  0.3439  0.5205
13955TIP3    H163356   3.903   3.772   5.563 -0.0824  0.4398  0.7366
13955TIP3    H263357   4.008   3.849   5.640  1.2810  0.3943 -1.0547
13956TIP3   OH263358   2.499   5.917  10.487  0.3607 -0.0795  0.5902
13956TIP3    H163359   2.473   5.931  10.578  1.7387 -0.2119  1.0075
13956TIP3    H263360   2.595   5.923  10.488  0.2997  1.4594 -1.1070
13957TIP3   OH263361   4.649   0.389   3.574 -0.1022  0.4010  0.2329
13957TIP3    H163362   4.638   0.357   3.485  1.3112 -1.3345  0.6518
13957TIP3    H263363   4.561   0.382   3.613 -0.8436  1.6951 -1.1605
13958TIP3   OH263364   2.549   2.514  15.833 -0.0170  0.4122 -0.2167
13958TIP3    H163365   2.612   2.496  15.763  0.0352  0.6721 -0.2355
13958TIP3    H263366   2.600   2.556  15.902 -0.3608  1.5920 -0.6583
13959TIP3   OH263367   3.984   3.579   2.851 -0.1627  0.3444 -0.3712
13959TIP3    H163368   4.069   3.554   2.815  0.1244  0.0875  0.4667
13959TIP3    H263369   3.957   3.655   2.799  1.2930  1.4000  0.3817
13960TIP3   OH263370   4.847   5.413  11.843  0.5319  0.2177  0.2501
13960TIP3    H163371   4.908   5.455  11.782 -0.0275  1.1151  0.2894
13960TIP3    H263372   4.865   5.456  11.927  1.4056 -1.1205  0.7511
13961TIP3   OH263373   2.566   2.316  16.840 -0.8744  0.0351  0.7983
13961TIP3    H163374   2.650   2.283  16.809 -1.3428 -0.2828 -0.1446
13961TIP3    H263375   2.570   2.410  16.825 -1.1046 -0.1172 -0.2676
13962TIP3   OH263376   2.403   4.452  11.126  0.1357 -0.1128  0.3954
13962TIP3    H163377   2.423   4.382  11.188  0.4793 -0.6820 -0.3522
13962TIP3    H263378   2.455   4.431  11.048 -3.6793 -1.9177 -1.8213
13963TIP3   OH263379   0.081   5.722   1.224 -0.4508 -0.0633  0.6655
13963TIP3    H163380   0.012   5.734   1.290 -0.9892 -0.0981  0.1137
13963TIP3    H263381   0.109   5.812   1.204 -1.5789  0.0564 -0.4113
13964TIP3   OH263382   4.502   0.740  11.614 -0.1131  0.4912 -0.1720
13964TIP3    H163383   4.441   0.789  11.559 -1.1628  1.7833  2.0749
13964TIP3    H263384   4.567   0.804  11.641 -0.1635  0.0999  0.8999
13965TIP3   OH263385   0.426   1.441   4.837  1.2976  0.6040 -0.1581
13965TIP3    H163386   0.365   1.444   4.764  0.8373  0.7563  0.2363
13965TIP3    H263387   0.372   1.454   4.915  1.8617  0.9880  0.1709
13966TIP3   OH263388   6.123   6.295   0.768 -0.0381  0.4278 -0.8122
13966TIP3    H163389   6.210   6.271   0.735 -0.2003 -1.6062  0.1856
13966TIP3    H263390   6.115   6.250   0.852 -1.8573  1.0170 -0.6395
13967TIP3   OH263391   0.095   1.899   1.504  0.5801 -0.0377  0.3759
13967TIP3    H163392   0.164   1.844   1.467 -0.0174 -0.5466 -0.0082
13967TIP3    H263393   0.139   1.979   1.532  1.5248 -0.8321  1.2057
13968TIP3   OH263394   6.097   4.710  11.051  0.0471 -0.0028 -0.4202
13968TIP3    H163395   6.140   4.639  11.003 -0.4948 -0.8628  0.3369
13968TIP3    H263396   6.042   4.753  10.987  0.6023 -0.0858 -0.9570
13969TIP3   OH263397   1.666   3.257   3.442  0.4977  0.1633 -0.3747
13969TIP3    H163398   1.731   3.322   3.469  1.6201 -0.8355 -0.6191
13969TIP3    H263399   1.712   3.201   3.379 -0.4629 -0.8158 -0.2321
13970TIP3   OH263400   4.749   4.817  16.619 -0.2837 -0.3925 -0.0598
13970TIP3    H163401   4.752   4.885  16.552  0.1205 -0.7829 -0.4478
13970TIP3    H263402   4.779   4.738  16.573  1.0719 -0.4289  0.8784
13971TIP3   OH263403   1.415   5.769  15.686 -0.7080  0.0526  0.4404
13971TIP3    H163404   1.434   5.735  15.598 -1.0257 -1.2839  0.8880
13971TIP3    H263405   1.456   5.707  15.746 -1.2790  0.4577  1.2595
13972TIP3   OH263406   5.036   4.345   0.641  0.4293 -0.1809  0.6680
13972TIP3    H163407   4.963   4.283   0.645  0.2364 -0.0133 -0.0852
13972TIP3    H263408   5.092   4.322   0.715 -0.9872  0.4456  1.9496
13973TIP3   OH263409   1.750   3.296   2.507 -0.8005 -0.1961  0.1286
13973TIP3    H163410   1.806   3.370   2.486 -1.3343  0.2627  0.3154
13973TIP3    H263411   1.700   3.279   2.427 -0.2658 -0.7270 -0.0997
13974TIP3   OH263412   3.164   2.122   2.652 -0.0116  0.0224  1.3883
13974TIP3    H163413   3.195   2.059   2.587 -0.2262  0.2024  1.1044
13974TIP3    H263414   3.089   2.079   2.694 -1.3105  0.7790 -0.0640
13975TIP3   OH263415   0.290   4.331   2.016 -0.1072  0.0855 -0.1877
13975TIP3    H163416   0.233   4.257   1.996  2.2265 -1.2762 -2.0340
13975TIP3    H263417   0.248   4.406   1.973 -0.7613 -0.8033 -1.1142
13976TIP3   OH263418   2.594   3.747   0.763 -0.3459 -0.3516  0.2375
13976TIP3    H163419   2.502   3.772   0.773  0.3426  1.0695  3.5869
13976TIP3    H263420   2.638   3.784   0.839  3.1253 -0.6320 -1.5113
13977TIP3   OH263421   6.596   0.918   0.406  0.2230 -0.1636  0.1737
13977TIP3    H163422   6.564   0.967   0.481  0.4176  0.4821 -0.1604
13977TIP3    H263423   6.691   0.932   0.407  0.1487  0.3934 -0.5774
13978TIP3   OH263424   0.944   6.604   2.525  0.7647  0.2024 -0.1261
13978TIP3    H163425   0.993   6.535   2.481  0.8428 -0.3713  0.8415
13978TIP3    H263426   0.955   6.681   2.469 -1.0605 -1.0707 -2.3088
13979TIP3   OH263427   0.420   3.109  14.945  0.2624  0.0044 -0.4267
13979TIP3    H163428   0.428   3.017  14.918  1.6058 -0.0596  0.1656
13979TIP3    H263429   0.387   3.105  15.034  0.1035  0.0998 -0.4817
13980TIP3   OH263430   4.621   0.691   2.860  0.4294 -0.2758  0.0559
13980TIP3    H163431   4.530   0.706   2.836 -0.5693 -2.3656  2.2973
13980TIP3    H263432   4.672   0.729   2.788 -2.2178 -0.0376 -1.7441
13981TIP3   OH263433   6.072   3.120  17.189  0.0623 -0.1084 -0.2587
13981TIP3    H163434   6.092   3.069  17.110  0.9859  0.9230 -0.7230
13981TIP3    H263435   6.154   3.120  17.238 -0.0403  0.5964 -0.0855
13982TIP3   OH263436   0.509   4.081  11.688  0.2736  0.1397 -0.4997
13982TIP3    H163437   0.428   4.106  11.643 -0.2064  0.0429  0.3002
13982TIP3    H263438   0.494   3.990  11.716 -0.8596  1.3252  2.9876
13983TIP3   OH263439   5.381   5.149  11.320 -0.1848  0.2916 -0.2031
13983TIP3    H163440   5.365   5.206  11.245  0.3181  1.8397  0.8469
13983TIP3    H263441   5.306   5.089  11.320 -0.9957  1.2827 -1.0139
13984TIP3   OH263442   6.558   1.297  13.768 -0.2062 -0.4556 -0.0855
13984TIP3    H163443   6.555   1.354  13.691 -0.7113 -0.6221 -0.1846
13984TIP3    H263444   6.467   1.282  13.791 -0.0914 -1.7375 -0.4260
13985TIP3   OH263445   1.645   5.502   1.880 -0.2630 -0.3013 -0.4607
13985TIP3    H163446   1.704   5.564   1.839  0.8658 -1.4975 -0.6895
13985TIP3    H263447   1.572   5.555   1.912  0.7491  1.1410 -0.5042
13986TIP3   OH263448   4.539   1.041  15.715 -0.6570 -0.1511  0.2235
13986TIP3    H163449   4.595   1.014  15.643 -1.9682 -0.6776 -0.6093
13986TIP3    H263450   4.556   1.135  15.725  0.6262 -0.3693  0.2292
13987TIP3   OH263451   1.098   3.335  14.001 -0.2450 -0.1993  0.6511
13987TIP3    H163452   1.191   3.339  14.022  0.1521 -1.5801 -0.6660
13987TIP3    H263453   1.053   3.346  14.084  1.1161  0.0403  1.3633
13988TIP3   OH263454   5.511   2.488   1.767  0.7692  0.1350  0.7815
13988TIP3    H163455   5.485   2.494   1.675  0.1885  0.5285  0.9637
13988TIP3    H263456   5.498   2.396   1.790 -0.1087  0.2489  0.7568
13989TIP3   OH263457   5.110   2.377  11.816 -0.2569 -0.2380  0.2133
13989TIP3    H163458   5.185   2.402  11.870  0.5589 -3.0126  0.4376
13989TIP3    H263459   5.034   2.399  11.869  0.4413  0.3943  0.9721
13990TIP3   OH263460   2.119   0.241   4.199  0.6370 -0.5617  0.2217
13990TIP3    H163461   2.193   0.273   4.147  1.3291  0.0796  1.5732
13990TIP3    H263462   2.132   0.281   4.285 -0.2619 -1.9522  1.0093
13991TIP3   OH263463   2.850   4.651   2.246  0.1818 -0.1089  0.1594
13991TIP3    H163464   2.777   4.603   2.283  0.0611 -0.0474  0.0007
13991TIP3    H263465   2.820   4.679   2.160  0.4625 -0.2490  0.0148
13992TIP3   OH263466   4.730   2.235  12.264 -0.0546  0.2085  0.5186
13992TIP3    H163467   4.692   2.151  12.289 -1.3218  0.9169  0.9765
13992TIP3    H263468   4.680   2.263  12.188 -0.8377  1.4087  1.4619
13993TIP3   OH263469   2.222   3.150   4.106  0.0793 -0.5880 -0.1884
13993TIP3    H163470   2.255   3.092   4.175 -2.4254 -0.7119  0.9338
13993TIP3    H263471   2.236   3.239   4.140  1.0820 -0.5772 -0.5966
13994TIP3   OH263472   2.921   1.960  16.329 -0.3885  0.0645 -0.4902
13994TIP3    H163473   2.983   2.002  16.269 -3.0835  1.0248 -2.7235
13994TIP3    H263474   2.874   2.032  16.370  0.3418 -0.6342  1.6605
13995TIP3   OH263475   5.656   2.625   2.436  0.1966 -0.7937  0.7916
13995TIP3    H163476   5.711   2.551   2.410  1.1380 -0.1274  0.8793
13995TIP3    H263477   5.648   2.679   2.357 -2.6809 -2.3085 -0.0361
13996TIP3   OH263478   0.354   2.626  12.483  0.3013 -0.5187 -0.4965
13996TIP3    H163479   0.360   2.572  12.404 -2.6341  0.5146 -1.4857
13996TIP3    H263480   0.357   2.716  12.451 -1.4278 -0.0802  0.4808
13997TIP3   OH263481   3.141   0.342  13.769  0.1746  0.0719  0.2924
13997TIP3    H163482   3.088   0.408  13.813  0.7309  1.3035 -0.8616
13997TIP3    H263483   3.231   0.375  13.774  0.1401  0.7641 -2.6168
13998TIP3   OH263484   5.056   5.591   3.922 -0.1195 -0.4510  0.2468
13998TIP3    H163485   5.061   5.497   3.939  0.6401 -0.4974 -0.2318
13998TIP3    H263486   5.111   5.604   3.845 -0.5619  0.3229  0.0608
13999TIP3   OH263487   5.694   2.366   3.532 -0.1152  0.1000  0.9053
13999TIP3    H163488   5.599   2.358   3.537 -0.1659  1.0462  1.6747
13999TIP3    H263489   5.711   2.394   3.441 -0.5309 -0.4783  0.6477
14000TIP3   OH263490   3.542   5.640  15.717 -0.2226  0.8560 -0.4255
14000TIP3    H163491   3.466   5.614  15.665 -0.0843  1.3840 -0.8988
14000TIP3    H263492   3.540   5.583  15.794  1.7214 -2.6021 -2.8288
14001TIP3   OH263493   3.501   4.087  12.408 -0.3970  0.8547 -0.0630
14001TIP3    H163494   3.491   4.168  12.359  0.1097  0.3139 -1.0850
14001TIP3    H263495   3.486   4.112  12.499  1.9656  2.5711 -0.0819
14002TIP3   OH263496   2.578   5.285   5.476  0.3369  0.4173 -0.4392
14002TIP3    H163497   2.664   5.278   5.519  1.2703  2.3336 -1.9462
14002TIP3    H263498   2.559   5.378   5.475  0.5622  0.4838 -4.5599
14003TIP3   OH263499   1.062   6.396  17.147 -0.0483 -0.2051 -0.2379
14003TIP3    H163500   1.080   6.305  17.123  1.3561  0.1014 -0.3900
14003TIP3    H263501   1.089   6.402  17.239 -0.3935 -0.0151 -0.1529
14004TIP3   OH263502   2.470   2.316   3.672  0.0873  0.2295 -0.2747
14004TIP3    H163503   2.445   2.225   3.657 -1.2874  0.6612 -0.6640
14004TIP3    H263504   2.457   2.358   3.587  1.7731  0.5646 -0.3896
14005TIP3   OH263505   6.773   5.616   3.408 -0.1268  0.6896 -0.0299
14005TIP3    H163506   6.835   5.645   3.475  1.6945 -0.9373 -0.9753
14005TIP3    H263507   6.751   5.696   3.359  2.4930  1.0304 -0.7103
14006TIP3   OH263508   1.305   1.274   4.377  0.0653 -0.2465  0.1041
14006TIP3    H163509   1.221   1.298   4.418  0.7452  0.7631  0.9349
14006TIP3    H263510   1.357   1.237   4.448 -0.2057 -2.2807 -0.7410
14007TIP3   OH263511   4.235   3.564   4.386  0.0162  0.1961  0.2131
14007TIP3    H163512   4.195   3.614   4.456 -0.8065  0.8326 -0.6964
14007TIP3    H263513   4.316   3.529   4.423 -0.7817 -0.0958  1.6967
14008TIP3   OH263514   2.982   6.794   4.253 -0.5097 -0.4692  0.1002
14008TIP3    H163515   2.951   6.709   4.220 -0.0972 -1.0802  1.2529
14008TIP3    H263516   2.915   6.856   4.226 -0.3915 -1.0212 -1.5005
14009TIP3   OH263517   4.579   6.216   3.166 -0.6430 -0.5647 -0.2673
14009TIP3    H163518   4.617   6.179   3.246  1.0671  3.3403  0.8084
14009TIP3    H263519   4.485   6.217   3.183 -0.2789  0.3994  1.7799
14010TIP3   OH263520   0.645   5.040  14.424  0.3198  0.4173  0.0201
14010TIP3    H163521   0.636   5.090  14.342  2.6297  0.3027 -0.3257
14010TIP3    H263522   0.673   5.104  14.489 -1.0371  0.4094  0.6269
14011TIP3   OH263523   2.498   3.331   5.422  0.1240  0.2525 -0.0283
14011TIP3    H163524   2.498   3.398   5.490  0.0374 -0.1635  0.3776
14011TIP3    H263525   2.576   3.279   5.439 -1.3236 -1.5238  1.3916
14012TIP3   OH263526   0.603   4.575   0.899 -0.6974 -0.7458 -0.0701
14012TIP3    H163527   0.552   4.647   0.934  1.4297  1.2972 -1.0300
14012TIP3    H263528   0.571   4.565   0.809 -0.6203 -0.6135 -0.1131
14013TIP3   OH263529   0.102   5.349   3.390  0.3826  0.5340 -0.1754
14013TIP3    H163530   0.025   5.296   3.368  0.3252 -0.1593  1.5772
14013TIP3    H263531   0.088   5.433   3.346 -0.9148  0.0717 -0.6434
14014TIP3   OH263532   3.179   6.063   0.826 -0.2950  0.2945  0.6280
14014TIP3    H163533   3.160   6.109   0.745  0.9538 -0.6252 -0.2187
14014TIP3    H263534   3.106   6.084   0.884  0.0493  3.0105  0.1464
14015TIP3   OH263535   0.462   4.125  16.474  0.1894 -0.1448 -0.1035
14015TIP3    H163536   0.445   4.204  16.525  2.1493  1.9235 -2.5098
14015TIP3    H263537   0.375   4.094  16.449 -0.6819  0.1927  2.3914
14016TIP3   OH263538   4.671   3.422  15.136 -0.6564 -0.1537  0.0905
14016TIP3    H163539   4.578   3.430  15.112 -0.8184  1.3047  1.1387
14016TIP3    H263540   4.677   3.463  15.222  1.1286  0.5908 -0.3627
14017TIP3   OH263541   1.251   1.945   4.148 -0.0918  0.2631  0.2451
14017TIP3    H163542   1.339   1.942   4.185  0.5815  1.8313 -1.1831
14017TIP3    H263543   1.193   1.932   4.223  1.2673  2.8453  1.7969
14018TIP3   OH263544   5.982   5.760   3.644 -0.5239  0.1374 -0.0208
14018TIP3    H163545   5.976   5.765   3.549 -2.0211 -0.9045  0.0098
14018TIP3    H263546   6.076   5.757   3.662 -0.2612 -0.7855 -1.5210
14019TIP3   OH263547   6.208   5.731  13.189  0.2880 -0.4119  0.0607
14019TIP3    H163548   6.291   5.715  13.234  0.1983  0.2159  0.4523
14019TIP3    H263549   6.151   5.661  13.220  0.7563 -1.0393 -0.4558
14020TIP3   OH263550   3.568   4.237   5.944 -0.1838 -0.3821  0.2204
14020TIP3    H163551   3.580   4.168   5.878  0.2594 -0.9414  0.8838
14020TIP3    H263552   3.602   4.316   5.901  1.3758 -1.0058  0.2698
14021TIP3   OH263553   6.045   5.952   4.399 -0.4042  0.3293 -0.6042
14021TIP3    H163554   6.018   5.861   4.385  0.7298 -0.3608  1.4301
14021TIP3    H263555   6.108   5.969   4.329  0.6528 -1.0322 -0.0095
14022TIP3   OH263556   0.942   3.431  12.624 -0.5280  0.0592 -0.1582
14022TIP3    H163557   0.867   3.488  12.642 -0.3399  0.7654 -1.4928
14022TIP3    H263558   0.912   3.375  12.552 -0.0753 -0.2511 -0.1040
14023TIP3   OH263559   2.187   6.082  13.590  0.0299  0.0529  0.0122
14023TIP3    H163560   2.113   6.039  13.635  0.1190  0.6137  0.7119
14023TIP3    H263561   2.169   6.175  13.600  0.8053  0.1877  0.1283
14024TIP3   OH263562   4.964   0.100  11.999 -0.4291  0.0780  0.2237
14024TIP3    H163563   5.004   0.083  11.914 -1.3637  1.2295 -0.4595
14024TIP3    H263564   5.014   0.174  12.035  0.6824 -1.1140  1.1774
14025TIP3   OH263565   6.044   4.655   0.399 -0.4624 -0.4388  0.4430
14025TIP3    H163566   6.005   4.739   0.420  0.3235 -0.2318  1.1336
14025TIP3    H263567   6.011   4.595   0.467 -0.0215 -0.3838  0.7136
14026TIP3   OH263568   3.347   0.315   3.041 -0.3376  0.3264 -0.2097
14026TIP3    H163569   3.370   0.256   3.112 -0.7126  2.0238  1.3531
14026TIP3    H263570   3.411   0.386   3.045 -0.6418  0.6791 -1.2496
14027TIP3   OH263571   0.400   4.744  13.018 -0.2031  0.6631  0.2993
14027TIP3    H163572   0.475   4.687  13.000  0.4388  0.3795  3.6643
14027TIP3    H263573   0.437   4.832  13.022 -0.4984  0.8356 -0.6346
14028TIP3   OH263574   3.534   1.351  13.021 -0.8565 -0.1437 -0.1518
14028TIP3    H163575   3.561   1.438  13.050  0.2674 -0.3582 -0.5032
14028TIP3    H263576   3.444   1.362  12.992 -0.4330  1.1279 -1.0551
14029TIP3   OH263577   2.968   3.423  14.169 -0.2625  0.3728  0.1012
14029TIP3    H163578   3.035   3.489  14.156  2.0126 -2.1057 -1.2691
14029TIP3    H263579   2.973   3.403  14.263  0.8140  0.3261  0.0428
14030TIP3   OH263580   5.258   3.741  14.479 -0.2634  0.1988 -0.0740
14030TIP3    H163581   5.189   3.703  14.425  0.8572 -1.2768 -0.4900
14030TIP3    H263582   5.230   3.723  14.569 -0.7765  0.2374 -0.2232
14031TIP3   OH263583   2.128   3.169  16.691 -0.4723  0.1302 -0.0777
14031TIP3    H163584   2.075   3.099  16.728 -1.1086  1.0502  0.7805
14031TIP3    H263585   2.090   3.249  16.727 -0.4374  0.9829 -1.8780
14032TIP3   OH263586   0.454   2.446   0.215 -0.6482  0.3195 -0.0204
14032TIP3    H163587   0.440   2.504   0.140  0.6229  1.0408  0.2922
14032TIP3    H263588   0.368   2.439   0.256 -1.2618  0.2815 -1.2781
14033TIP3   OH263589   2.963   6.627  12.548  0.2757  0.6710 -0.7170
14033TIP3    H163590   2.881   6.672  12.568  0.0670  0.1494 -0.3772
14033TIP3    H263591   3.008   6.622  12.633 -0.2616 -0.8661 -0.5164
14034TIP3   OH263592   6.087   6.741  15.973  0.9194  0.0741  0.1854
14034TIP3    H163593   6.037   6.796  15.912  0.4427  0.6905  1.1293
14034TIP3    H263594   6.172   6.784  15.979  1.4405 -0.7388 -1.0915
14035TIP3   OH263595   4.739   1.397   1.823  0.5324  0.0458  0.0818
14035TIP3    H163596   4.779   1.335   1.762  0.6754  0.4335 -0.2171
14035TIP3    H263597   4.669   1.347   1.865 -0.1414  0.0382 -1.0434
14036TIP3   OH263598   2.240   3.152  17.005  1.4369 -0.4252 -0.1585
14036TIP3    H163599   2.288   3.234  17.017  0.1250  0.2849  0.4595
14036TIP3    H263600   2.154   3.169  17.046  0.2092 -1.2073 -2.3449
14037TIP3   OH263601   6.718   2.484  12.504 -0.2422 -0.2867 -0.1191
14037TIP3    H163602   6.684   2.544  12.438  0.0228 -0.0035  0.0001
14037TIP3    H263603   6.697   2.527  12.587  0.9129  0.1686 -0.0590
14038TIP3   OH263604   6.644   4.383  15.340  0.9472 -0.1827  0.1721
14038TIP3    H163605   6.583   4.435  15.392  2.3357  0.3802  1.2742
14038TIP3    H263606   6.627   4.408  15.250 -1.5978 -1.2734  0.3120
14039TIP3   OH263607   1.964   2.633  16.052 -0.6357  0.2963 -0.0417
14039TIP3    H163608   1.925   2.621  16.139 -0.3968 -1.6602 -0.1724
14039TIP3    H263609   1.988   2.544  16.025  1.3576  1.1432 -1.1447
14040TIP3   OH263610   1.333   3.508   0.809 -0.0509 -0.0338  0.4809
14040TIP3    H163611   1.359   3.570   0.741 -1.3950 -2.0595 -1.9928
14040TIP3    H263612   1.415   3.478   0.847  0.7837  0.5803 -0.7883
14041TIP3   OH263613   3.050   5.323  15.625  0.2531  0.0715  0.8757
14041TIP3    H163614   3.123   5.315  15.687  0.7651  1.3151  0.4560
14041TIP3    H263615   2.993   5.250  15.646  0.8109  0.0195  2.3061
14042TIP3   OH263616   6.799   0.974   5.760 -0.5124  0.0390  0.4049
14042TIP3    H163617   6.759   1.061   5.754 -1.6458 -0.5405 -0.4182
14042TIP3    H263618   6.744   0.926   5.821 -0.6584 -0.5298 -0.1711
14043TIP3   OH263619   1.674   3.841   1.021 -0.0304  0.0671 -0.1844
14043TIP3    H163620   1.699   3.931   1.042  0.0306  0.0318 -0.1079
14043TIP3    H263621   1.600   3.851   0.960  1.2501  0.1730 -1.7658
14044TIP3   OH263622   4.899   3.920  12.754  0.2323  0.2413  0.8123
14044TIP3    H163623   4.920   3.830  12.728  1.7328  0.8933 -0.2976
14044TIP3    H263624   4.932   3.927  12.844  0.0275 -0.3499  0.9372
14045TIP3   OH263625   5.629   0.103  16.627 -0.1908 -0.2168  0.8357
14045TIP3    H163626   5.632   0.027  16.569 -1.9174 -0.2439  0.7565
14045TIP3    H263627   5.677   0.075  16.705  1.8283 -0.3093 -0.4067
14046TIP3   OH263628   1.513   1.452   0.556 -0.0765  0.4139  0.2361
14046TIP3    H163629   1.441   1.484   0.502 -0.7667 -0.2474  0.7539
14046TIP3    H263630   1.527   1.362   0.527  0.2030  0.3771  0.4809
14047TIP3   OH263631   5.937   3.061   1.007  0.4075 -0.3924 -0.0611
14047TIP3    H163632   5.874   3.045   0.938 -1.7002  1.3524  1.4068
14047TIP3    H263633   5.980   3.143   0.982 -0.8644  0.6294  0.9969
14048TIP3   OH263634   6.656   0.103  16.995  0.4389 -0.5487 -0.3816
14048TIP3    H163635   6.738   0.125  17.039 -0.2249 -0.1088  0.6588
14048TIP3    H263636   6.595   0.087  17.067 -0.3637 -0.9531 -1.1554
14049TIP3   OH263637   3.313   6.096   0.475  0.0917  0.1860 -0.3385
14049TIP3    H163638   3.252   6.037   0.429 -0.1420  0.4674 -0.3915
14049TIP3    H263639   3.392   6.044   0.487 -0.3117 -0.3212  0.1098
14050TIP3   OH263640   1.673   5.564  15.278 -0.1107 -0.7872 -0.2069
14050TIP3    H163641   1.601   5.511  15.244 -0.6975  0.1650 -0.4741
14050TIP3    H263642   1.752   5.525  15.240 -0.3782 -2.4957  0.9462
14051TIP3   OH263643   4.402   6.104  12.627  0.2170 -1.1414 -0.0719
14051TIP3    H163644   4.442   6.191  12.637  0.5443 -1.3353  0.3364
14051TIP3    H263645   4.476   6.043  12.637 -0.0006 -1.4653 -0.4228
14052TIP3   OH263646   3.725   6.259  16.947  0.2652  0.4527 -1.0219
14052TIP3    H163647   3.776   6.189  16.987 -0.3760  1.5139  1.7371
14052TIP3    H263648   3.791   6.315  16.905  0.8308 -1.3430 -2.6272
14053TIP3   OH263649   0.666   1.706   0.653 -0.3188  0.2667  0.1229
14053TIP3    H163650   0.614   1.725   0.575 -0.3207  0.1265  0.0914
14053TIP3    H263651   0.649   1.614   0.672  1.8761 -0.5009 -1.3615
14054TIP3   OH263652   2.555   5.886   7.009 -0.6399  0.7419 -0.1577
14054TIP3    H163653   2.587   5.803   6.975 -0.6039 -0.2282  2.1133
14054TIP3    H263654   2.485   5.912   6.949 -1.2117 -1.3640 -0.4281
14055TIP3   OH263655   6.655   4.904  16.354 -0.4596  0.6098  0.1227
14055TIP3    H163656   6.665   4.998  16.369  0.3089  0.7639 -1.2926
14055TIP3    H263657   6.692   4.889  16.267 -1.1733 -0.8964  0.0542
14056TIP3   OH263658   0.826   5.993   2.666 -0.6154 -0.1055  0.0279
14056TIP3    H163659   0.921   6.002   2.681 -0.5317  0.5565 -0.8958
14056TIP3    H263660   0.802   6.071   2.616 -1.3544 -1.0723 -1.1551
14057TIP3   OH263661   4.481   5.725  14.554  0.3278  0.0997 -0.1212
14057TIP3    H163662   4.438   5.786  14.493  0.0754  0.8631  0.8080
14057TIP3    H263663   4.501   5.778  14.631  0.0406 -1.0099  0.7364
14058TIP3   OH263664   0.500   6.108   4.279 -0.2524  0.0384 -0.1695
14058TIP3    H163665   0.559   6.038   4.250 -0.1387 -0.9324  2.2600
14058TIP3    H263666   0.525   6.124   4.370 -1.0480  2.4774 -0.3463
14059TIP3   OH263667   0.862   6.590  14.298 -0.1731  0.4502 -0.0535
14059TIP3    H163668   0.865   6.668  14.354 -0.9461 -0.8036  1.7612
14059TIP3    H263669   0.770   6.566  14.296  0.1979 -1.0111  0.2434
14060TIP3   OH263670   2.429   2.588  10.529 -0.1253  0.0483  0.1899
14060TIP3    H163671   2.475   2.507  10.547  0.7223  0.5484  0.2777
14060TIP3    H263672   2.349   2.560  10.484  0.2742 -0.8114  0.0028
14061TIP3   OH263673   5.662   0.276  14.381  0.3775  0.1422 -0.1143
14061TIP3    H163674   5.710   0.279  14.463 -0.0721 -2.1681  0.2697
14061TIP3    H263675   5.723   0.308  14.315  1.1716  0.7538  0.9071
14062TIP3   OH263676   6.588   5.077  12.569  0.0748 -0.5928  0.1714
14062TIP3    H163677   6.578   5.055  12.662  1.3145 -0.3325  0.3781
14062TIP3    H263678   6.562   4.997  12.523 -1.8814 -0.2873  0.6718
14063TIP3   OH263679   3.770   0.927  14.472 -0.2864 -0.2209  0.5546
14063TIP3    H163680   3.689   0.922  14.523  0.5172  1.3984  2.0363
14063TIP3    H263681   3.790   1.021  14.469  1.7131 -0.6407  0.4924
14064TIP3   OH263682   5.889   2.310   0.614  0.0209 -0.5424  0.2899
14064TIP3    H163683   5.871   2.267   0.698  1.0497 -0.9386  0.3139
14064TIP3    H263684   5.976   2.349   0.625 -1.8550  3.7698  1.1807
14065TIP3   OH263685   2.099   1.769   4.810  0.2729  0.1533 -0.2514
14065TIP3    H163686   2.183   1.790   4.769 -0.4677  0.3646 -1.6879
14065TIP3    H263687   2.082   1.843   4.869  0.7846  0.4061 -0.4187
14066TIP3   OH263688   6.790   4.752   1.244  0.0237  0.0352  0.3063
14066TIP3    H163689   6.838   4.831   1.220 -0.6434  0.0206 -1.0969
14066TIP3    H263690   6.702   4.765   1.209  0.3541 -2.0246 -1.4046
14067TIP3   OH263691   4.595   4.562  15.298 -0.4506 -0.0046 -0.4890
14067TIP3    H163692   4.644   4.632  15.255 -0.9535  1.5067  1.3477
14067TIP3    H263693   4.528   4.607  15.349 -1.2858 -1.8685  0.0969
14068TIP3   OH263694   3.158   0.866  15.124 -0.1799 -0.2236  0.3509
14068TIP3    H163695   3.203   0.879  15.040  0.0305  0.8235  0.6172
14068TIP3    H263696   3.226   0.834  15.183  0.1106  0.8480  0.6119
14069TIP3   OH263697   4.443   5.469   3.294 -0.2407 -0.2666  0.1772
14069TIP3    H163698   4.356   5.429   3.300 -1.2219  2.0123  1.9138
14069TIP3    H263699   4.436   5.530   3.221  0.3401 -1.0537 -0.5488
14070TIP3   OH263700   0.587   0.910   1.455  0.1589  0.2492 -0.1313
14070TIP3    H163701   0.524   0.981   1.471  0.2315  0.3327 -0.2075
14070TIP3    H263702   0.536   0.841   1.413  0.4122  0.8894 -1.5078
14071TIP3   OH263703   6.376   1.179   4.376 -0.4903 -0.2095 -0.3550
14071TIP3    H163704   6.444   1.181   4.309 -0.9201 -1.5137 -0.8374
14071TIP3    H263705   6.365   1.086   4.397 -0.7263  0.1464  1.1458
14072TIP3   OH263706   3.424   6.054   3.016  0.4848 -0.3338 -0.0135
14072TIP3    H163707   3.373   6.039   3.096  0.3689 -1.7221 -0.3420
14072TIP3    H263708   3.381   6.001   2.949 -0.5094  2.1908 -1.4630
14073TIP3   OH263709   5.115   5.602  12.329  0.2062  0.1064  0.0564
14073TIP3    H163710   5.069   5.550  12.395  0.1043  0.8193  0.5518
14073TIP3    H263711   5.199   5.623  12.370 -0.0470  0.9524  0.1570
14074TIP3   OH263712   2.603   3.766  11.464  0.8740  0.2778 -0.6216
14074TIP3    H163713   2.518   3.804  11.441  0.0227 -0.8563  0.5610
14074TIP3    H263714   2.604   3.766  11.559  1.1373 -1.9794 -0.5951
14075TIP3   OH263715   6.574   6.807  14.288 -0.8539 -0.2519  0.7430
14075TIP3    H163716   6.605   6.851  14.368 -0.6060 -0.6817  0.8855
14075TIP3    H263717   6.626   6.845  14.218 -0.1101 -0.8465  0.9600
14076TIP3   OH263718   3.761   0.998  12.797  0.3133  0.5387 -0.4156
14076TIP3    H163719   3.760   0.905  12.818  1.0993  0.2309 -1.7208
14076TIP3    H263720   3.717   1.040  12.872  0.6422 -0.7944  0.5359
14077TIP3   OH263721   0.993   1.359  15.528  0.4853 -0.1370 -0.2368
14077TIP3    H163722   0.970   1.452  15.521 -1.5242 -0.6643 -0.6183
14077TIP3    H263723   0.961   1.333  15.614  1.4844 -0.3848  0.0757
14078TIP3   OH263724   4.931   4.816  13.867  0.0824 -0.0502  0.6559
14078TIP3    H163725   4.938   4.909  13.847 -1.4942 -0.2018 -0.7202
14078TIP3    H263726   4.945   4.772  13.783  1.2538 -1.0945  1.3639
14079TIP3   OH263727   0.128   5.639  12.142  0.4799  0.6138  0.5640
14079TIP3    H163728   0.055   5.597  12.187  0.9461  0.4710  1.1797
14079TIP3    H263729   0.136   5.591  12.060 -0.4467  0.9518  0.2593
14080TIP3   OH263730   3.213   6.407  13.510  0.4025 -0.4391  0.1110
14080TIP3    H163731   3.126   6.430  13.479  0.3126 -2.0374 -0.8676
14080TIP3    H263732   3.271   6.427  13.437  0.7201 -0.4129  0.3654
14081TIP3   OH263733   2.147   5.382  16.461  0.1855 -0.0289  0.3938
14081TIP3    H163734   2.136   5.350  16.371 -1.2391  1.0442  0.1467
14081TIP3    H263735   2.105   5.316  16.515 -3.9481  1.9294 -0.2136
14082TIP3   OH263736   5.777   1.814  16.982  0.2930  0.3508  0.1056
14082TIP3    H163737   5.747   1.888  17.034  0.3073  0.0338  0.5651
14082TIP3    H263738   5.786   1.850  16.893  0.4278  0.9344  0.3476
14083TIP3   OH263739   1.468   0.945   4.425  0.1027  0.2827  0.3977
14083TIP3    H163740   1.376   0.950   4.398 -0.4294  0.7749  2.2426
14083TIP3    H263741   1.488   1.032   4.459  0.5514 -0.4496  2.0979
14084TIP3   OH263742   0.324   4.205   3.540 -0.0943 -0.2391  0.3507
14084TIP3    H163743   0.241   4.251   3.528  0.0685 -0.0052  0.1053
14084TIP3    H263744   0.385   4.273   3.569 -0.3037 -0.6594  1.8183
14085TIP3   OH263745   6.247   4.616  15.211 -0.2850 -0.1314  0.2781
14085TIP3    H163746   6.244   4.522  15.228 -0.0579 -0.2389 -0.2580
14085TIP3    H263747   6.273   4.623  15.119 -0.9095  0.4462  0.1387
14086TIP3   OH263748   3.763   1.637   6.451  0.2999 -0.5634  0.4355
14086TIP3    H163749   3.723   1.556   6.420  0.4437 -0.3599 -0.3028
14086TIP3    H263750   3.695   1.704   6.437  0.0732 -0.6028  1.3194
14087TIP3   OH263751   0.611   6.517  16.100 -0.1980 -0.3549  1.2774
14087TIP3    H163752   0.674   6.561  16.043  1.0869 -4.3073 -0.5052
14087TIP3    H263753   0.656   6.508  16.184 -0.3132  1.3098  1.5246
14088TIP3   OH263754   5.696   3.858  15.916  0.4693  0.4642  0.2811
14088TIP3    H163755   5.733   3.860  16.004 -1.2257  1.3866  0.9765
14088TIP3    H263756   5.663   3.769  15.906  0.3657  0.4589  0.6832
14089TIP3   OH263757   2.163   0.888   0.831 -1.0638  0.1561 -0.0515
14089TIP3    H163758   2.235   0.896   0.768  0.0937  2.9178  1.5465
14089TIP3    H263759   2.091   0.937   0.792 -0.4848  1.5018  0.5383
14090TIP3   OH263760   4.107   1.356   2.007 -0.9222  0.3806  0.4736
14090TIP3    H163761   4.112   1.304   1.927  0.6704 -0.0868  0.8450
14090TIP3    H263762   4.078   1.295   2.075  0.3502  0.0924  0.7830
14091TIP3   OH263763   3.895   2.307  15.676 -0.2104 -0.6205 -0.6491
14091TIP3    H163764   3.913   2.393  15.638  0.7729 -0.1656  0.8329
14091TIP3    H263765   3.810   2.317  15.719 -0.0838 -0.3983 -0.4549
14092TIP3   OH263766   3.876   0.013   3.116 -0.1479  0.1607  0.3122
14092TIP3    H163767   3.831  -0.044   3.055  1.4349 -1.1044  0.2911
14092TIP3    H263768   3.965   0.021   3.080 -0.1171  2.0128  0.7276
14093TIP3   OH263769   4.894   6.221   6.225  0.3955  0.2261  0.0137
14093TIP3    H163770   4.812   6.263   6.252  0.1669 -0.7345  0.8547
14093TIP3    H263771   4.927   6.179   6.305  1.6501  0.4967 -0.3399
14094TIP3   OH263772   5.204   0.105   1.052  0.4207 -0.0755 -0.1504
14094TIP3    H163773   5.247   0.188   1.033 -0.4092 -0.2436 -2.9455
14094TIP3    H263774   5.140   0.127   1.120  0.6485  1.4144 -0.3894
14095TIP3   OH263775   6.060   5.280  11.317 -0.0773  0.2630 -0.1523
14095TIP3    H163776   6.153   5.287  11.294  0.6550  2.0904  3.0894
14095TIP3    H263777   6.020   5.356  11.274 -0.6528 -1.8568 -3.6397
14096TIP3   OH263778   2.708   2.160  16.399 -0.2928 -0.3375  0.2785
14096TIP3    H163779   2.673   2.171  16.310  0.5131  0.2940  0.0223
14096TIP3    H263780   2.640   2.194  16.457 -0.4845  0.0160 -0.1496
14097TIP3   OH263781   1.351   2.947   3.085  0.3901 -0.3833 -0.0786
14097TIP3    H163782   1.260   2.974   3.074  0.8806  0.7725 -1.4832
14097TIP3    H263783   1.376   2.982   3.171 -0.4270 -0.5599  0.2368
14098TIP3   OH263784   4.296   1.222  12.041  0.2895  0.3586 -0.1455
14098TIP3    H163785   4.361   1.264  11.984  0.3839  1.2592  0.6063
14098TIP3    H263786   4.310   1.262  12.127 -2.2620  1.7344 -0.3077
14099TIP3   OH263787   3.837   0.296   6.314  0.0524 -0.7024 -0.0212
14099TIP3    H163788   3.743   0.308   6.299 -0.0596  0.5971  1.4565
14099TIP3    H263789   3.842   0.248   6.397  0.6866 -1.0327 -0.2477
14100TIP3   OH263790   3.900   0.236   6.589 -0.9715 -0.0684  0.1428
14100TIP3    H163791   3.906   0.143   6.612 -1.0069 -0.5904 -1.8538
14100TIP3    H263792   3.984   0.257   6.549 -1.7330  0.1823 -1.3807
14101TIP3   OH263793   1.003   0.237   2.008 -0.2533 -0.8637  0.0210
14101TIP3    H163794   1.037   0.218   2.095 -0.8913 -2.5794 -0.0952
14101TIP3    H263795   0.983   0.331   2.010  0.7005 -0.6733  1.3725
14102TIP3   OH263796   4.058   1.199   6.583 -0.0360  0.7673 -0.1500
14102TIP3    H163797   4.074   1.108   6.557 -0.0341  1.2817 -2.0179
14102TIP3    H263798   3.976   1.222   6.540  0.1349  1.7533  0.0405
14103TIP3   OH263799   1.277   0.401  11.875 -0.1315 -0.1103 -0.9090
14103TIP3    H163800   1.226   0.321  11.885  0.6033 -0.7489 -2.1225
14103TIP3    H263801   1.218   0.472  11.902 -0.4201 -1.1546  1.2299
14104TIP3   OH263802   0.682   6.094   3.755 -0.1257 -0.5379  0.2263
14104TIP3    H163803   0.644   6.166   3.706  0.9090  0.3077  0.6536
14104TIP3    H263804   0.644   6.102   3.843 -2.8106 -2.6821 -0.6406
14105TIP3   OH263805   1.335   5.889  15.318 -0.3671 -0.0931  0.1524
14105TIP3    H163806   1.399   5.959  15.302 -0.8644  0.5691  1.0754
14105TIP3    H263807   1.382   5.825  15.372 -0.5388  0.4866  0.9940
14106TIP3   OH263808   5.679   4.794   1.018  0.2169  0.5392 -0.3580
14106TIP3    H163809   5.711   4.880   1.041  0.9129 -0.1025  1.1199
14106TIP3    H263810   5.654   4.754   1.101 -1.0717 -0.3072 -1.1218
14107TIP3   OH263811   6.752   4.070  16.767 -0.1237 -0.8685  0.1106
14107TIP3    H163812   6.825   4.056  16.828 -0.3176  0.7251  0.7486
14107TIP3    H263813   6.694   4.130  16.814 -1.0346 -0.8386 -1.0450
14108TIP3   OH263814   0.594   3.985  16.656 -0.4224 -0.1728  0.5843
14108TIP3    H163815   0.550   4.038  16.589  1.6589 -1.0381 -1.5669
14108TIP3    H263816   0.642   4.049  16.709 -0.4309  0.3739 -0.0553
14109TIP3   OH263817   0.458   3.176  11.351  0.5916  0.0594  0.2846
14109TIP3    H163818   0.534   3.173  11.409 -0.0576 -0.6519  1.0938
14109TIP3    H263819   0.430   3.267  11.354  0.0899 -0.1329  1.6925
14110TIP3   OH263820   4.437   5.107   1.877 -0.3440  0.3857 -0.0870
14110TIP3    H163821   4.457   5.020   1.912 -0.4442  0.3949 -0.0095
14110TIP3    H263822   4.421   5.161   1.955  0.5824  0.6853 -0.0939
14111TIP3   OH263823   5.556   5.220  15.955  0.6753 -0.1847  0.1309
14111TIP3    H163824   5.498   5.160  16.002 -1.2867  1.9189  0.4632
14111TIP3    H263825   5.555   5.300  16.007  2.1613  0.6004 -1.0338
14112TIP3   OH263826   3.600   5.474   0.881 -0.6373 -0.5228  0.0731
14112TIP3    H163827   3.526   5.413   0.873 -0.5058 -0.4625 -1.9144
14112TIP3    H263828   3.563   5.560   0.860 -0.1402 -0.4019 -0.3305
14113TIP3   OH263829   3.863   6.736   1.114  0.5131  0.0112 -0.1955
14113TIP3    H163830   3.888   6.750   1.022  2.6203 -0.6152  0.2509
14113TIP3    H263831   3.942   6.760   1.163 -1.4528  2.9932  1.6567
14114TIP3   OH263832   3.346   5.592  16.843  0.4175  0.0594 -0.5166
14114TIP3    H163833   3.267   5.645  16.830  1.4412  1.1919 -2.5408
14114TIP3    H263834   3.418   5.656  16.836  1.5870 -1.2908 -1.0068
14115TIP3   OH263835   0.103   5.442  16.666  0.5297  0.4861 -0.4648
14115TIP3    H163836   0.144   5.357  16.650  1.8691  1.9821 -5.8771
14115TIP3    H263837   0.009   5.425  16.657  0.6245 -0.7648  0.6501
14116TIP3   OH263838   0.124   0.147  15.588 -0.4785 -0.5980  0.3452
14116TIP3    H163839   0.130   0.184  15.677 -1.4569 -0.1231  0.2213
14116TIP3    H263840   0.040   0.178  15.555  1.1501  1.7432 -1.8730
14117TIP3   OH263841   1.558   0.791  14.546 -0.1630 -0.2744 -0.1523
14117TIP3    H163842   1.547   0.886  14.544 -0.0037 -0.2767 -1.6900
14117TIP3    H263843   1.469   0.756  14.547 -0.2598 -0.1207 -1.5393
14118TIP3   OH263844   0.137   6.313  11.949  0.2333 -0.7494 -0.3159
14118TIP3    H163845   0.066   6.252  11.970  1.0971 -2.3407 -1.7857
14118TIP3    H263846   0.207   6.290  12.010 -0.4916  0.7684  1.0844
14119TIP3   OH263847   6.080   3.088   2.735  0.2785  0.2382  0.2991
14119TIP3    H163848   6.112   3.164   2.686  0.0975 -0.8204 -1.5454
14119TIP3    H263849   6.047   3.029   2.667  0.9002 -1.7093  1.6601
14120TIP3   OH263850   0.022   1.920   0.397  0.2295 -0.2331  0.6370
14120TIP3    H163851   0.103   1.971   0.389 -0.6424  1.2756  1.1808
14120TIP3    H263852  -0.022   1.931   0.313  0.5870 -1.0724  0.3334
14121TIP3   OH263853   6.190   4.030  13.663  0.4712 -0.1988  0.4433
14121TIP3    H163854   6.254   4.034  13.733  0.1313 -2.8928  0.9845
14121TIP3    H263855   6.117   3.980  13.700 -0.0635 -0.9475 -1.5250
14122TIP3   OH263856   5.306   5.899   1.067  0.5384 -0.6792 -0.4239
14122TIP3    H163857   5.311   5.993   1.051 -0.9759 -0.1771  1.7092
14122TIP3    H263858   5.395   5.868   1.055  0.8392  0.8103 -2.3435
14123TIP3   OH263859   5.885   3.166   3.912 -0.7980 -0.6633 -0.7585
14123TIP3    H163860   5.857   3.088   3.960 -0.2226 -0.6749 -0.4386
14123TIP3    H263861   5.978   3.151   3.895 -0.3262  0.5987  0.5741
14124TIP3   OH263862   6.755   5.748   2.064  0.8137  0.0866 -0.5649
14124TIP3    H163863   6.684   5.801   2.100  1.3848 -0.0060  0.7036
14124TIP3    H263864   6.710   5.672   2.025  0.0007  1.4416 -2.3486
14125TIP3   OH263865   0.833   3.433  14.996  0.7660 -0.0985  0.3689
14125TIP3    H163866   0.772   3.413  14.924  2.6432 -0.6216 -1.1164
14125TIP3    H263867   0.839   3.529  14.995 -0.2341 -0.0223  0.7103
14126TIP3   OH263868   5.608   1.808  15.828 -0.7054 -0.3231 -0.2554
14126TIP3    H163869   5.601   1.767  15.914  0.1172  3.2974  1.6604
14126TIP3    H263870   5.701   1.828  15.818 -1.1805  1.7868 -0.7245
14127TIP3   OH263871   3.530   6.677   1.800  0.4161 -0.0835 -0.7844
14127TIP3    H163872   3.526   6.757   1.747  0.7992 -1.1542 -2.4803
14127TIP3    H263873   3.582   6.616   1.747  0.1240 -1.4581  0.4829
14128TIP3   OH263874   4.274   6.075   5.105  0.3388 -0.1869  0.1586
14128TIP3    H163875   4.216   6.133   5.055  0.8298  0.9326  0.8727
14128TIP3    H263876   4.279   6.115   5.191  2.8329  0.1912 -0.1270
14129TIP3   OH263877   0.993   0.036   2.462 -0.0489 -0.3639 -0.6691
14129TIP3    H163878   1.042   0.075   2.389 -0.1589 -0.0006 -0.5504
14129TIP3    H263879   0.971   0.111   2.518 -1.7513 -0.3633 -1.3193
14130TIP3   OH263880   3.381   5.399  16.107 -0.0918  0.0718 -0.4038
14130TIP3    H163881   3.422   5.467  16.161  0.2238 -1.0914  0.8489
14130TIP3    H263882   3.347   5.446  16.031 -0.7299  1.7916  0.9166
14131TIP3   OH263883   0.495   5.702  13.403  0.4057  0.3020  0.3148
14131TIP3    H163884   0.575   5.755  13.409  0.3631  0.5007 -0.8204
14131TIP3    H263885   0.491   5.655  13.486  2.5059 -0.8571 -0.2033
14132TIP3   OH263886   3.533   4.833  15.383  0.4983 -0.2086 -0.3617
14132TIP3    H163887   3.453   4.861  15.429  1.6848  1.1035  0.9424
14132TIP3    H263888   3.512   4.745  15.351 -1.4368  0.0729  0.0381
14133TIP3   OH263889   5.579   5.176   1.796  0.1620 -0.1842  0.9394
14133TIP3    H163890   5.527   5.252   1.821 -1.6738 -0.3792 -2.0599
14133TIP3    H263891   5.665   5.211   1.775 -1.8627  1.8731 -4.7818
14134TIP3   OH263892   6.641   0.832  14.890  0.1736  0.5048  0.2946
14134TIP3    H163893   6.730   0.804  14.912  0.3257  2.2846  2.0272
14134TIP3    H263894   6.642   0.927  14.903 -1.3574  0.8596 -1.8781
14135TIP3   OH263895   3.925   0.346  13.263  0.3019  0.1666  0.0599
14135TIP3    H163896   3.897   0.436  13.248  1.8559  0.6479  0.0302
14135TIP3    H263897   4.017   0.345  13.238  0.5369 -1.2093  0.9568
14136TIP3   OH263898   3.461   4.976  13.676 -0.1270 -0.1357  0.2659
14136TIP3    H163899   3.485   4.895  13.631 -0.6905 -0.1100 -0.0902
14136TIP3    H263900   3.437   5.036  13.605 -1.1540 -0.1416  0.6041
14137TIP3   OH263901   6.611   0.984  14.002  0.4287  0.3115 -0.3867
14137TIP3    H163902   6.517   0.970  14.009  0.3347  0.7935 -0.6913
14137TIP3    H263903   6.647   0.897  13.985  0.1922 -0.1255  1.2578
14138TIP3   OH263904   5.710   1.206  16.970 -0.0377 -0.0993  0.2494
14138TIP3    H163905   5.764   1.180  17.045 -1.0061 -1.0603  0.6240
14138TIP3    H263906   5.653   1.275  17.004  0.9442  0.9144 -0.1431
14139TIP3   OH263907   2.406   5.907   2.154 -0.2638 -0.1003  0.3225
14139TIP3    H163908   2.480   5.931   2.209  1.7491 -4.8666 -0.0244
14139TIP3    H263909   2.433   5.930   2.065  0.0587 -0.1343  0.4129
14140TIP3   OH263910   0.845   4.874   2.932 -0.0004  0.1393 -0.3351
14140TIP3    H163911   0.772   4.932   2.912 -1.7878 -2.1786 -0.6919
14140TIP3    H263912   0.826   4.839   3.019  0.7288 -0.3931 -0.3773
14141TIP3   OH263913   3.587   2.598   5.146  0.3791 -0.5432  0.6329
14141TIP3    H163914   3.668   2.611   5.097 -0.7584  0.6288 -0.9693
14141TIP3    H263915   3.548   2.686   5.152 -1.9377 -1.4619 -0.6658
14142TIP3   OH263916   0.796   5.646   3.405  0.2984  0.1618 -0.5668
14142TIP3    H163917   0.863   5.653   3.338  1.1988 -1.6465  0.0977
14142TIP3    H263918   0.765   5.735   3.419  1.2763  0.7645 -2.1785
14143TIP3   OH263919   4.763   2.006   0.850 -0.2065 -0.4282  0.6472
14143TIP3    H163920   4.835   2.011   0.787 -2.0597  0.5658 -1.4288
14143TIP3    H263921   4.684   2.015   0.798 -1.8103  0.1388  3.0873
14144TIP3   OH263922   2.826   4.424   5.231 -0.1400  0.5266 -0.0644
14144TIP3    H163923   2.841   4.469   5.314 -0.4575  1.1647 -0.3495
14144TIP3    H263924   2.731   4.413   5.227 -0.1650  0.8883 -0.5403
14145TIP3   OH263925   2.760   5.405  14.410 -0.2789 -0.6807 -0.3191
14145TIP3    H163926   2.782   5.498  14.416 -0.5779 -0.6541  0.3662
14145TIP3    H263927   2.760   5.387  14.316 -0.3802  0.0522 -0.4643
14146TIP3   OH263928   2.673   6.072   3.158 -0.4730 -0.1804  0.2617
14146TIP3    H163929   2.619   6.099   3.083 -1.9642 -1.9313  0.6580
14146TIP3    H263930   2.697   5.981   3.138  1.2827  0.1748  0.7110
14147TIP3   OH263931   5.959   2.521  13.721 -0.4869  0.5900 -0.3450
14147TIP3    H163932   6.006   2.591  13.676  0.5656 -0.5716 -1.0861
14147TIP3    H263933   5.897   2.488  13.656 -1.3216  1.1553  0.1622
14148TIP3   OH263934   4.006   6.080  11.341  0.0229 -0.7127 -0.4336
14148TIP3    H163935   3.942   6.150  11.343  1.2470  0.4325 -0.5962
14148TIP3    H263936   3.992   6.032  11.422  0.5571  0.9760  0.6758
14149TIP3   OH263937   0.608   0.389  12.825  0.0069 -0.6982  0.0785
14149TIP3    H163938   0.530   0.359  12.872 -0.4994  0.8507  0.2712
14149TIP3    H263939   0.593   0.362  12.735 -1.5556  0.9944 -0.2160
14150TIP3   OH263940   2.203   4.405   3.325 -0.2380  0.3256  0.3238
14150TIP3    H163941   2.164   4.486   3.294  0.0959  0.1080 -0.6809
14150TIP3    H263942   2.163   4.336   3.272  1.0381  0.0410 -0.2899
14151TIP3   OH263943   1.577   4.377   2.188 -0.3616  0.0584  0.0895
14151TIP3    H163944   1.482   4.364   2.185 -0.3094 -0.3675  0.2216
14151TIP3    H263945   1.602   4.391   2.097 -0.7831  1.8691  0.2356
14152TIP3   OH263946   6.801   2.902  16.390  0.6958  0.0656 -0.5938
14152TIP3    H163947   6.827   2.839  16.458  1.8450  0.0874 -1.0020
14152TIP3    H263948   6.832   2.863  16.308 -1.9374 -0.6373 -1.2810
14153TIP3   OH263949   0.580   6.756   4.959  0.2817  0.3277 -0.0176
14153TIP3    H163950   0.539   6.733   5.042 -0.6448 -0.9094 -0.7952
14153TIP3    H263951   0.588   6.851   4.962 -2.7536  0.6320  0.1489
14154TIP3   OH263952   2.273   5.925   1.057 -0.3998  0.1156  0.5388
14154TIP3    H163953   2.189   5.969   1.070 -1.0670 -0.3053 -2.0436
14154TIP3    H263954   2.338   5.994   1.061 -1.0414  0.7007  0.8729
14155TIP3   OH263955   1.324   5.548  17.095 -0.3943  0.2831  0.3869
14155TIP3    H163956   1.357   5.621  17.147 -0.5794  0.6407  0.0117
14155TIP3    H263957   1.289   5.590  17.015 -1.4523 -0.1132  0.6341
14156TIP3   OH263958   0.778   1.601   3.161 -0.3255 -0.5806  0.7081
14156TIP3    H163959   0.716   1.531   3.179  1.2797 -2.2583 -0.1309
14156TIP3    H263960   0.739   1.649   3.088 -0.4094 -1.9392 -0.1660
14157TIP3   OH263961   2.441   3.452   0.327 -0.9193  0.4924  1.0700
14157TIP3    H163962   2.515   3.450   0.267  0.0572 -0.4059  2.2849
14157TIP3    H263963   2.398   3.536   0.308  1.1383  1.6342  1.2476
14158TIP3   OH263964   0.842   1.325  16.063 -0.6431 -0.2669  0.4049
14158TIP3    H163965   0.845   1.375  16.145  1.1067  2.0400 -0.9899
14158TIP3    H263966   0.847   1.234  16.090  0.7325  0.4759  2.8418
14159TIP3   OH263967   0.353   3.934  15.573 -0.4126 -0.0763  0.5591
14159TIP3    H163968   0.296   3.981  15.513 -0.9248 -0.8929  0.3995
14159TIP3    H263969   0.441   3.956  15.544 -0.6389  0.9554  0.6232
14160TIP3   OH263970   3.907   5.606  15.055  0.0494 -0.3097  0.2070
14160TIP3    H163971   3.823   5.578  15.020  1.1641 -0.9409 -2.0715
14160TIP3    H263972   3.912   5.700  15.034 -0.2562 -0.1873  0.6869
14161TIP3   OH263973   1.899   3.900   2.082 -0.1671  0.0078 -0.2419
14161TIP3    H163974   1.820   3.945   2.111  1.3185  1.9493  0.9293
14161TIP3    H263975   1.920   3.840   2.154 -1.5302 -1.8080 -1.3233
14162TIP3   OH263976   4.529   3.703  11.162 -0.2722  0.1087  0.3845
14162TIP3    H163977   4.441   3.679  11.192 -0.0679 -0.3858  0.5907
14162TIP3    H263978   4.514   3.770  11.096 -0.8957 -1.1111 -0.7376
14163TIP3   OH263979   6.582   1.642   4.993 -0.3438  0.5904 -0.1843
14163TIP3    H163980   6.644   1.677   5.057 -0.6963 -0.9751  1.0149
14163TIP3    H263981   6.633   1.636   4.912 -0.0465  3.0662 -0.2347
14164TIP3   OH263982   2.117   6.112  12.102  0.1386  0.2988 -0.6316
14164TIP3    H163983   2.106   6.164  12.022  0.7375 -1.3119 -1.7919
14164TIP3    H263984   2.199   6.144  12.140 -0.1512  1.0806 -0.6458
14165TIP3   OH263985   3.993   5.598   6.340  0.2960  0.6250 -0.0085
14165TIP3    H163986   3.997   5.565   6.430  0.1523 -0.2125 -0.2998
14165TIP3    H263987   3.962   5.688   6.348  0.2760  0.5511  0.7763
14166TIP3   OH263988   1.653   4.060  14.648  0.1914  0.0653 -0.5550
14166TIP3    H163989   1.724   4.104  14.694  0.0018  0.1764 -0.3708
14166TIP3    H263990   1.679   4.063  14.556  0.5687 -0.1577 -0.4579
14167TIP3   OH263991   4.637   5.624  12.525  0.7407  0.0758  0.2699
14167TIP3    H163992   4.646   5.536  12.490  0.2154  0.2582 -0.3477
14167TIP3    H263993   4.720   5.667  12.506  1.1593 -0.4310  0.9822
14168TIP3   OH263994   4.139   2.674   5.672 -0.6198 -0.5081  0.5093
14168TIP3    H163995   4.160   2.640   5.759 -1.4252 -2.2860  0.0428
14168TIP3    H263996   4.221   2.711   5.640 -0.3930  0.4584  2.1386
14169TIP3   OH263997   2.280   5.395  13.458  0.3867 -0.1067 -0.4991
14169TIP3    H163998   2.370   5.422  13.477  0.5810 -1.1188  0.0935
14169TIP3    H263999   2.283   5.366  13.367  1.9136 -4.8628  0.8664
14170TIP3   OH264000   2.488   6.430  11.604  0.8315  0.2247 -0.4187
14170TIP3    H164001   2.493   6.512  11.556 -0.2653 -0.3060 -1.4609
14170TIP3    H264002   2.521   6.364  11.542  1.4000 -0.1714  0.2942
14171TIP3   OH264003   6.043   0.325  16.521 -0.0296  0.0113  0.3613
14171TIP3    H164004   5.957   0.354  16.493  0.4461 -0.4032 -1.6114
14171TIP3    H264005   6.104   0.377  16.469  0.8734 -1.6008 -0.2227
14172TIP3   OH264006   1.864   4.328   5.773 -0.7037  0.4949  0.1108
14172TIP3    H164007   1.873   4.344   5.679 -0.7188 -0.1674 -0.0037
14172TIP3    H264008   1.934   4.266   5.794 -0.5359  0.8381  0.5890
14173TIP3   OH264009   0.979   0.003  13.025  0.5138  0.3326 -0.0635
14173TIP3    H164010   0.957   0.011  12.932  1.2888 -1.0725 -0.3738
14173TIP3    H264011   0.896   0.017  13.070 -0.1592 -0.4326 -1.0298
14174TIP3   OH264012   5.712   5.860  13.615 -0.3751  0.6742  0.1055
14174TIP3    H164013   5.782   5.800  13.588 -0.1330  1.0824 -0.1695
14174TIP3    H264014   5.703   5.920  13.542 -1.7298 -0.0097 -0.2967
14175TIP3   OH264015   3.347   3.759   1.823  0.0156 -0.2452  0.5990
14175TIP3    H164016   3.437   3.728   1.819 -1.0731 -3.3926 -1.0873
14175TIP3    H264017   3.344   3.832   1.761  1.4903  0.2274  1.0588
14176TIP3   OH264018   0.945   5.279  14.206  0.0854 -0.0969 -0.5837
14176TIP3    H164019   1.019   5.222  14.184 -0.4120 -0.6457 -0.8514
14176TIP3    H264020   0.958   5.357  14.153  0.7508  0.0299 -0.2450
14177TIP3   OH264021   1.711   4.500  13.638 -0.0579  0.2399 -0.3117
14177TIP3    H164022   1.768   4.439  13.686  0.5456  1.6037  0.7615
14177TIP3    H264023   1.637   4.447  13.610  0.0262 -0.8090  1.3764
14178TIP3   OH264024   1.629   1.950   5.883  0.5448  0.4257 -0.4165
14178TIP3    H164025   1.630   1.921   5.792 -0.7228 -0.4047 -0.1875
14178TIP3    H264026   1.711   1.998   5.894  0.2973  1.3351 -2.2535
14179TIP3   OH264027   1.287   4.693   1.681 -1.1797 -0.1242  0.2349
14179TIP3    H164028   1.200   4.667   1.711 -1.3961  0.9501  0.5432
14179TIP3    H264029   1.326   4.612   1.647 -1.5430 -1.0359  1.9438
14180TIP3   OH264030   1.676   6.476   4.266  0.1540  0.6214  0.0246
14180TIP3    H164031   1.724   6.399   4.297 -1.3892 -1.0246 -1.5101
14180TIP3    H264032   1.729   6.551   4.292  2.0081 -1.0083  1.0010
14181TIP3   OH264033   3.053   0.488  11.906  0.5034  0.0971  0.8760
14181TIP3    H164034   3.012   0.473  11.820  0.5309  0.4737  0.7957
14181TIP3    H264035   2.983   0.473  11.969  0.4069  0.1072  0.7706
14182TIP3   OH264036   1.818   4.454   1.107 -0.2205 -0.3396 -0.2277
14182TIP3    H164037   1.864   4.521   1.058 -0.4716 -0.3977 -0.5491
14182TIP3    H264038   1.881   4.424   1.172  0.2906 -0.6140 -0.8388
14183TIP3   OH264039   2.851   6.642   2.342 -0.3937 -0.2759 -0.4308
14183TIP3    H164040   2.865   6.692   2.261  1.5513 -1.9706 -1.2103
14183TIP3    H264041   2.893   6.558   2.324 -0.2670 -0.8047  2.2410
14184TIP3   OH264042   1.872   4.715  16.879 -0.1167 -0.4915  0.4590
14184TIP3    H164043   1.819   4.636  16.883 -0.8814  0.0243  0.6933
14184TIP3    H264044   1.826   4.778  16.935 -0.0893  0.4453 -0.5489
14185TIP3   OH264045   1.565   1.407   6.460  0.3204 -0.4314  0.1680
14185TIP3    H164046   1.483   1.410   6.509  0.3344 -0.6287  0.2049
14185TIP3    H264047   1.617   1.340   6.505  0.3874 -0.5135 -0.0324
14186TIP3   OH264048   3.952   3.227   5.591  0.4624  0.5566  0.3647
14186TIP3    H164049   3.921   3.308   5.551 -0.0524 -0.1526 -0.6902
14186TIP3    H264050   3.894   3.159   5.557  3.2984 -0.8634 -1.8845
14187TIP3   OH264051   3.640   1.552   4.863  0.3803 -0.3016  1.1144
14187TIP3    H164052   3.675   1.581   4.947  0.3145 -1.3986  1.5232
14187TIP3    H264053   3.611   1.633   4.820 -0.1065  0.2067  2.3753
14188TIP3   OH264054   1.628   0.964   5.774  0.5453 -0.6388  0.3753
14188TIP3    H164055   1.645   0.915   5.854  1.5039 -2.4591 -0.8800
14188TIP3    H264056   1.714   1.000   5.749  0.6788 -1.7197 -0.8291
14189TIP3   OH264057   0.587   3.344  11.562 -0.6303 -0.4765  0.3050
14189TIP3    H164058   0.643   3.412  11.600  0.6018 -1.2578 -0.0877
14189TIP3    H264059   0.647   3.284  11.519 -1.7930 -1.2195 -0.3288
14190TIP3   OH264060   0.452   2.666  13.353 -0.5327  0.8202 -0.1411
14190TIP3    H164061   0.488   2.754  13.343 -3.0439  1.8075 -0.9094
14190TIP3    H264062   0.486   2.617  13.279  0.6409  1.2018  0.1277
14191TIP3   OH264063   6.122   2.672  14.932  0.5800  0.1043 -0.2616
14191TIP3    H164064   6.203   2.722  14.941 -0.4657  1.5973  1.3122
14191TIP3    H264065   6.135   2.595  14.987  1.2516 -0.0854 -0.6821
14192TIP3   OH264066   4.323   2.205   4.933 -0.5489  0.1116  0.0841
14192TIP3    H164067   4.288   2.118   4.912 -1.1388  0.0128  1.4770
14192TIP3    H264068   4.254   2.247   4.984 -0.2664  1.4141 -0.5935
14193TIP3   OH264069   3.084   3.114   5.316 -0.7298 -0.0551 -0.0845
14193TIP3    H164070   2.993   3.127   5.290 -0.1896  0.7781 -1.6474
14193TIP3    H264071   3.111   3.034   5.272 -0.6744 -0.2766  0.3417
14194TIP3   OH264072   6.001   5.271   0.686 -0.1175 -0.3148  0.5776
14194TIP3    H164073   6.024   5.181   0.707 -1.0415 -0.5583  0.6026
14194TIP3    H264074   5.982   5.312   0.771  1.0968  0.1454  0.6426
14195TIP3   OH264075   5.882   1.968  12.521  0.1673  0.3944  0.1813
14195TIP3    H164076   5.970   1.930  12.522  0.6385  1.4576  1.0383
14195TIP3    H264077   5.897   2.062  12.535 -1.1145  0.5572  0.5308
14196TIP3   OH264078   3.825   2.508  13.007 -0.5542  0.0158 -0.0282
14196TIP3    H164079   3.848   2.437  12.948  2.0605  1.5938 -1.0000
14196TIP3    H264080   3.876   2.492  13.086  1.2724  1.5763 -0.8324
14197TIP3   OH264081   4.675   0.612   5.155  0.0253 -0.1382 -0.1957
14197TIP3    H164082   4.631   0.692   5.125  2.3173  1.4897  0.6494
14197TIP3    H264083   4.702   0.631   5.245  1.2977 -1.5655 -0.2542
14198TIP3   OH264084   2.589   1.943  14.378 -0.9405  0.1591  0.4550
14198TIP3    H164085   2.666   1.887  14.367  0.6940  2.4805 -0.3061
14198TIP3    H264086   2.558   1.960  14.289  1.0592  3.7357  0.3422
14199TIP3   OH264087   6.449   0.177  12.662  0.3514  0.1297 -0.2245
14199TIP3    H164088   6.513   0.206  12.597 -1.0575  0.4065 -1.5436
14199TIP3    H264089   6.399   0.108  12.617  1.8451 -2.4471  1.9196
14200TIP3   OH264090   1.028   6.757  11.621  0.0659 -0.2361 -0.0780
14200TIP3    H164091   0.940   6.777  11.589  0.1896 -0.4790 -0.5742
14200TIP3    H264092   1.083   6.825  11.582 -0.2666  1.4268  2.2257
14201TIP3   OH264093   6.281   5.591  10.702 -0.4985 -0.1304 -0.0062
14201TIP3    H164094   6.202   5.569  10.752  0.2086 -1.7525  0.4420
14201TIP3    H264095   6.353   5.578  10.765  0.2802 -0.7199 -1.0082
14202TIP3   OH264096   2.263   6.335  13.109  0.3342  0.4949  0.0481
14202TIP3    H164097   2.339   6.392  13.116  1.8468 -0.9436 -3.4721
14202TIP3    H264098   2.200   6.385  13.058  0.7885 -0.1141 -1.1195
14203TIP3   OH264099   3.464   1.509   5.430  0.1020 -0.3478 -0.0763
14203TIP3    H164100   3.519   1.431   5.429  0.6576  0.0487 -0.7632
14203TIP3    H264101   3.407   1.497   5.507 -0.2489 -1.7164 -0.5337
14204TIP3   OH264102   6.255   6.199  14.866  0.3088  0.2071 -0.0968
14204TIP3    H164103   6.324   6.196  14.932  1.0626 -2.3480 -0.9315
14204TIP3    H264104   6.180   6.238  14.910  1.8276  1.6823  1.2448
14205TIP3   OH264105   0.801   6.189   6.209 -0.6376  0.1884 -0.0582
14205TIP3    H164106   0.894   6.205   6.194 -1.1172  1.4032 -1.9349
14205TIP3    H264107   0.790   6.095   6.195  0.3447 -0.0218  0.5018
14206TIP3   OH264108   1.116   5.453   6.668  0.4611 -0.4105 -0.0027
14206TIP3    H164109   1.175   5.403   6.725  2.1509  0.0116 -1.3545
14206TIP3    H264110   1.108   5.399   6.589  0.1489  0.2013 -0.3913
14207TIP3   OH264111   4.945   2.021   2.885 -0.6305  0.0971 -0.3995
14207TIP3    H164112   4.990   1.938   2.902 -0.3190 -0.0271 -1.7995
14207TIP3    H264113   4.984   2.082   2.947 -1.0750 -0.8701  0.8530
14208TIP3   OH264114   2.073   1.363  12.822 -0.0173 -0.2567 -0.0125
14208TIP3    H164115   2.005   1.300  12.849  0.8412 -1.6588 -1.0760
14208TIP3    H264116   2.149   1.339  12.874 -0.3686  1.4522  1.3275
14209TIP3   OH264117   3.949   5.063  14.989  0.3407 -0.2213  0.0141
14209TIP3    H164118   3.965   5.076  15.083 -0.4099 -1.6424  0.3493
14209TIP3    H264119   3.869   5.011  14.985 -1.2811  2.2759 -1.5118
14210TIP3   OH264120   2.266   5.860   3.785 -0.8636  0.8629  0.8810
14210TIP3    H164121   2.234   5.948   3.764 -0.8308  0.7287  0.2744
14210TIP3    H264122   2.296   5.867   3.876  0.8527  1.9749  0.2433
14211TIP3   OH264123   6.605   1.808   2.932 -0.1702 -0.1729  0.3345
14211TIP3    H164124   6.541   1.877   2.952 -1.6995 -1.2486 -0.6871
14211TIP3    H264125   6.631   1.774   3.017 -1.0114  0.2503  0.7752
14212TIP3   OH264126   5.448   6.622   2.136  0.3866  0.3251 -1.0139
14212TIP3    H164127   5.407   6.702   2.168 -1.5836  0.6036 -4.0036
14212TIP3    H264128   5.384   6.586   2.074  1.8844 -2.7647 -0.8499
14213TIP3   OH264129   0.453   4.504  11.417  0.0780 -0.6183 -0.1090
14213TIP3    H164130   0.366   4.467  11.402  0.3971 -0.3158 -2.9105
14213TIP3    H264131   0.436   4.595  11.440 -0.3807 -0.7819  0.2150
14214TIP3   OH264132   0.723   6.422  11.920  0.0830  0.0110 -0.0041
14214TIP3    H164133   0.717   6.512  11.889  0.2752 -0.0096 -0.1001
14214TIP3    H264134   0.777   6.428  11.999 -0.2490  0.0373  0.2202
14215TIP3   OH264135   2.818   4.391   3.716 -0.2360  0.4355 -0.1166
14215TIP3    H164136   2.857   4.393   3.803  3.8723  1.2485 -1.8723
14215TIP3    H264137   2.845   4.307   3.679 -2.4705 -0.1778 -0.4580
14216TIP3   OH264138   3.807   5.554   1.211  0.1909  0.3838 -0.1382
14216TIP3    H164139   3.871   5.495   1.251  1.6596  2.7752  1.1436
14216TIP3    H264140   3.722   5.523   1.243  1.1667  0.9216  3.1476
14217TIP3   OH264141   5.822   3.989   0.263 -0.4952  0.9273  0.7040
14217TIP3    H164142   5.808   4.083   0.258 -1.0980  0.8307  0.4710
14217TIP3    H264143   5.794   3.965   0.351  1.7659  1.2964  1.5451
14218TIP3   OH264144   4.207   2.113   3.832 -0.1155  0.4051 -0.4935
14218TIP3    H164145   4.295   2.077   3.827 -0.9461 -2.2150  2.3758
14218TIP3    H264146   4.155   2.059   3.772 -0.3092  0.1903 -0.1340
14219TIP3   OH264147   3.168   3.618  14.158 -0.1463  0.5247  0.3348
14219TIP3    H164148   3.122   3.657  14.084  1.6613  1.3919 -0.3743
14219TIP3    H264149   3.250   3.584  14.121 -0.8737 -2.4142  1.2634
14220TIP3   OH264150   4.950   2.828  11.427  0.2109 -0.4046 -0.5662
14220TIP3    H164151   4.889   2.891  11.465 -0.4235 -2.0751  1.2521
14220TIP3    H264152   5.030   2.879  11.411 -0.0648  0.7252  1.5065
14221TIP3   OH264153   0.708   5.566   1.374  0.6107 -0.1441 -0.0440
14221TIP3    H164154   0.688   5.631   1.307 -1.7235 -0.7432  0.0284
14221TIP3    H264155   0.769   5.610   1.432 -0.3632  1.7476 -0.4038
14222TIP3   OH264156   2.264   4.170   4.280  0.3809  0.2794  0.0583
14222TIP3    H164157   2.265   4.081   4.246  0.0210 -0.1448  1.1434
14222TIP3    H264158   2.322   4.219   4.221  0.5371 -0.6535 -0.5699
14223TIP3   OH264159   2.060   1.631   5.160 -0.2355  0.0245  0.7244
14223TIP3    H164160   1.994   1.595   5.101 -0.3591 -2.3567  2.2611
14223TIP3    H264161   2.141   1.630   5.108 -0.8043  0.1923 -0.1770
14224TIP3   OH264162   6.131   1.954   1.414  0.6689 -0.4105 -0.3494
14224TIP3    H164163   6.074   1.958   1.491  3.4542 -0.5459  1.7549
14224TIP3    H264164   6.121   1.865   1.381 -1.1404 -0.1142 -0.6706
14225TIP3   OH264165   4.324   5.854  12.959 -0.4251  0.0286 -0.2046
14225TIP3    H164166   4.352   5.946  12.953 -1.3991  0.3715  0.3211
14225TIP3    H264167   4.229   5.858  12.956 -0.5843 -0.7412  2.5092
14226TIP3   OH264168   5.502   0.908  14.193 -0.0681 -0.5210  0.2699
14226TIP3    H164169   5.429   0.865  14.238 -0.3121 -0.2144  0.1660
14226TIP3    H264170   5.461   0.956  14.121  0.2589 -0.5243  0.0828
14227TIP3   OH264171   5.379   0.564  11.443  0.2537 -0.1443 -0.3815
14227TIP3    H164172   5.422   0.586  11.525  1.0475  0.4106 -0.9372
14227TIP3    H264173   5.287   0.582  11.458 -0.1026 -3.1374  1.4568
14228TIP3   OH264174   0.553   3.767   0.507  0.2947  0.0147  0.7841
14228TIP3    H164175   0.482   3.781   0.570  0.0896  3.3602 -0.0740
14228TIP3    H264176   0.510   3.737   0.428  0.0565  0.0084  0.9172
14229TIP3   OH264177   3.092   0.110  10.435 -0.3501  0.7319 -0.1375
14229TIP3    H164178   3.166   0.135  10.380 -1.0036 -0.0830 -1.4248
14229TIP3    H264179   3.130   0.095  10.522  1.0689 -0.0639 -0.8707
14230TIP3   OH264180   0.048   0.295   3.405 -0.2777  0.2313  0.1737
14230TIP3    H164181  -0.031   0.332   3.364 -1.7876 -1.8971  1.0387
14230TIP3    H264182   0.043   0.323   3.497 -0.1678 -0.1078  0.2859
14231TIP3   OH264183   0.425   1.282  12.363  0.3339 -0.0951  0.0229
14231TIP3    H164184   0.450   1.308  12.451  0.1667  1.3682 -0.3533
14231TIP3    H264185   0.454   1.354  12.307 -0.9400 -0.2980 -0.9320
14232TIP3   OH264186   3.176   4.924   2.848  0.7139 -0.3363  0.5479
14232TIP3    H164187   3.236   4.852   2.868  1.0908 -0.3166 -0.4755
14232TIP3    H264188   3.130   4.896   2.769 -1.6330 -0.9558  2.0872
14233TIP3   OH264189   5.130   3.447   4.705 -0.0831  0.7380 -0.3250
14233TIP3    H164190   5.135   3.509   4.778 -0.5871 -0.4730  0.7594
14233TIP3    H264191   5.148   3.500   4.628  0.7606  1.9850  0.7011
14234TIP3   OH264192   6.452   6.223   0.006  0.3085 -0.1075 -0.8199
14234TIP3    H164193   6.540   6.257  -0.010  1.4270 -1.5332  2.0646
14234TIP3    H264194   6.417   6.278   0.077 -0.8338 -0.0704 -1.3958
14235TIP3   OH264195   2.145   4.427  13.971  0.1994  1.0919 -0.2909
14235TIP3    H164196   2.202   4.382  13.909  0.2198  1.5935 -0.6394
14235TIP3    H264197   2.115   4.505  13.924  0.0169  1.3437  0.2390
14236TIP3   OH264198   1.583   5.688  11.640  0.1926  0.1654  0.8277
14236TIP3    H164199   1.497   5.719  11.670  0.0380  1.5441 -0.9357
14236TIP3    H264200   1.627   5.768  11.610  1.1390 -0.8849 -0.5931
14237TIP3   OH264201   6.376   3.447  11.891  0.5333  0.3582 -0.1436
14237TIP3    H164202   6.431   3.519  11.859 -0.0875  0.4028 -1.1521
14237TIP3    H264203   6.387   3.448  11.986 -0.7515  2.8352  0.0193
14238TIP3   OH264204   0.244   4.068   2.450  0.0986 -0.0150 -0.5212
14238TIP3    H164205   0.158   4.090   2.414 -0.1248 -0.4287 -0.2378
14238TIP3    H264206   0.306   4.094   2.382 -0.2214  0.6675 -0.5570
14239TIP3   OH264207   2.997   4.907   1.677 -0.2639  0.6195 -0.2535
14239TIP3    H164208   2.971   4.872   1.591  0.6512  2.2919 -1.2360
14239TIP3    H264209   2.956   4.993   1.681 -2.0862 -0.3181  1.9293
14240TIP3   OH264210   1.299   2.289  16.937 -0.1253 -0.3160  0.1404
14240TIP3    H164211   1.227   2.317  16.881 -1.7474 -1.7727  1.4493
14240TIP3    H264212   1.296   2.194  16.936  2.3955 -0.4371 -0.5313
14241TIP3   OH264213   5.784   3.918  16.659  0.6307 -0.4826 -0.3305
14241TIP3    H164214   5.794   4.010  16.682 -2.1936  0.2191 -1.6639
14241TIP3    H264215   5.873   3.888  16.639  1.5306  2.0721 -0.2701
14242TIP3   OH264216   6.135   0.672  15.545 -0.0511  0.1138 -0.6078
14242TIP3    H164217   6.127   0.768  15.546  1.1732  0.2277 -0.5508
14242TIP3    H264218   6.221   0.655  15.583 -0.0359 -0.9872 -1.1152
14243TIP3   OH264219   4.633   6.290   0.605  0.3455 -0.2598 -0.3375
14243TIP3    H164220   4.610   6.259   0.692 -1.1791 -0.0151 -0.6443
14243TIP3    H264221   4.701   6.356   0.620  0.7059 -0.8327  0.5925
14244TIP3   OH264222   5.876   0.674   4.703 -0.4475  0.0872  0.0635
14244TIP3    H164223   5.933   0.736   4.749  2.8579 -2.1707 -0.8186
14244TIP3    H264224   5.893   0.690   4.610  1.8305 -3.2161 -0.1868
14245TIP3   OH264225   4.455   2.452   0.629  0.3539 -0.4812 -0.2133
14245TIP3    H164226   4.487   2.413   0.710 -0.2093 -1.2609 -0.3510
14245TIP3    H264227   4.417   2.378   0.581 -0.0559  0.1175 -0.8229
14246TIP3   OH264228   5.688   6.114  16.206 -0.3109  0.3102 -0.1012
14246TIP3    H164229   5.654   6.026  16.219  0.5888 -0.0209  0.0233
14246TIP3    H264230   5.719   6.141  16.292  1.3088 -0.0566 -0.5501
14247TIP3   OH264231   0.866   2.731   2.006 -0.6697  0.0812  0.0746
14247TIP3    H164232   0.787   2.776   2.036 -0.2688  0.2478  0.8782
14247TIP3    H264233   0.929   2.801   1.987 -0.3121 -0.1069  0.5681
14248TIP3   OH264234   1.447   4.301   1.831  0.0347 -0.2748 -0.1280
14248TIP3    H164235   1.385   4.293   1.903  0.7219  0.3376  0.5412
14248TIP3    H264236   1.510   4.367   1.861  0.6394 -0.4201 -1.0607
14249TIP3   OH264237   1.162   2.641   0.421  0.6262  0.2246 -0.1520
14249TIP3    H164238   1.141   2.726   0.383 -0.6494  0.8231  1.8078
14249TIP3    H264239   1.240   2.657   0.474 -0.4888  0.5527  1.4287
14250TIP3   OH264240   6.460   2.125   4.662  0.1784  0.4787 -0.0104
14250TIP3    H164241   6.379   2.089   4.698  0.8403  0.4883  1.5331
14250TIP3    H264242   6.433   2.205   4.617 -0.8612 -0.2721 -0.7343
14251TIP3   OH264243   0.551   6.758   2.444 -0.1982  0.1982  0.0951
14251TIP3    H164244   0.476   6.722   2.491 -2.9262  0.9030 -3.4623
14251TIP3    H264245   0.607   6.683   2.427 -0.4786 -0.4832  2.1028
14252TIP3   OH264246   0.289   4.407   4.384  0.0290 -0.1539  0.7171
14252TIP3    H164247   0.249   4.336   4.333 -2.2959  0.4917  1.5925
14252TIP3    H264248   0.354   4.363   4.439  0.7362 -1.1959 -0.9078
14253TIP3   OH264249   6.750   6.253   5.409 -0.3227 -0.2179 -0.2182
14253TIP3    H164250   6.791   6.306   5.477  1.6445 -1.2734 -0.5405
14253TIP3    H264251   6.727   6.172   5.453  1.0446 -0.9418 -0.8011
14254TIP3   OH264252   2.479   2.330  12.613  0.3482 -0.2653 -0.2338
14254TIP3    H164253   2.528   2.394  12.563  0.0490  0.7119  0.7040
14254TIP3    H264254   2.391   2.367  12.620  0.3031 -0.5224  0.7398
14255TIP3   OH264255   0.723   4.390   1.737  0.5396 -0.1325  0.4522
14255TIP3    H164256   0.628   4.376   1.739  0.3153  1.3960  0.6249
14255TIP3    H264257   0.744   4.406   1.645  0.4144  0.9681  0.6111
14256TIP3   OH264258   2.018   3.357  15.883  0.3352  0.1437 -0.2670
14256TIP3    H164259   2.072   3.299  15.937  0.9718  0.7485 -0.2438
14256TIP3    H264260   1.954   3.299  15.842  0.0457 -0.3731  0.8823
14257TIP3   OH264261   6.584   5.558   0.520 -0.6282  0.2407  0.4929
14257TIP3    H164262   6.541   5.537   0.603  0.2032 -0.6222  0.7193
14257TIP3    H264263   6.657   5.496   0.515 -0.4107  0.5807 -0.6730
14258TIP3   OH264264   5.914   4.453  13.233 -0.0841  0.3817 -0.6175
14258TIP3    H164265   5.954   4.484  13.314 -1.8190 -1.3183  0.9218
14258TIP3    H264266   5.824   4.486  13.235 -0.2988 -0.1001 -1.6140
14259TIP3   OH264267   4.851   4.257   5.299 -0.2871  0.4068  0.2194
14259TIP3    H164268   4.756   4.258   5.296 -0.2486  0.1676 -2.7556
14259TIP3    H264269   4.877   4.209   5.220  2.2715 -0.6980  1.6751
14260TIP3   OH264270   3.362   1.468   1.353  0.2362 -1.0674 -1.1579
14260TIP3    H164271   3.391   1.386   1.314  1.7202 -1.2574  0.2803
14260TIP3    H264272   3.388   1.536   1.291  2.1025 -1.4095 -0.7972
14261TIP3   OH264273   6.404   3.258   3.845 -0.4565 -0.2394  0.9277
14261TIP3    H164274   6.350   3.261   3.766  0.2457 -0.5582  0.4287
14261TIP3    H264275   6.413   3.349   3.872  1.5150  0.1486 -0.8850
14262TIP3   OH264276   3.237   4.545  16.977  0.4500  0.0410  0.2381
14262TIP3    H164277   3.254   4.624  16.925 -2.5434 -1.2249 -2.7927
14262TIP3    H264278   3.151   4.561  17.017  0.3031 -1.2594  0.4490
14263TIP3   OH264279   2.976   4.725  14.616  0.7607  0.0359 -0.2852
14263TIP3    H164280   3.014   4.803  14.658  1.9130 -0.8339  0.3467
14263TIP3    H264281   2.882   4.735  14.627  0.8418  1.7826 -1.0193
14264TIP3   OH264282   1.640   4.526   0.270  0.4772  0.4218  0.0713
14264TIP3    H164283   1.655   4.459   0.203 -0.8953 -0.1095  0.2898
14264TIP3    H264284   1.561   4.571   0.241  0.6096  1.0298  0.6614
14265TIP3   OH264285   5.205   1.780   2.265 -0.0783  0.5765  0.4160
14265TIP3    H164286   5.195   1.687   2.281 -1.7912  0.9418  1.5430
14265TIP3    H264287   5.248   1.785   2.179  0.9494 -1.2378  0.8038
14266TIP3   OH264288   5.670   3.415   4.750  0.1479  0.0466  0.2729
14266TIP3    H164289   5.578   3.414   4.723 -0.1564 -3.1429  1.1852
14266TIP3    H264290   5.717   3.449   4.674 -1.5855 -0.3639 -1.0164
14267TIP3   OH264291   5.571   1.913  13.726 -0.6560 -0.2151  0.1235
14267TIP3    H164292   5.480   1.884  13.715 -0.9185  0.0405  1.5369
14267TIP3    H264293   5.623   1.834  13.717 -1.0317 -0.3994 -0.4782
14268TIP3   OH264294   0.242   4.924  14.113 -0.2616 -0.3147  0.0418
14268TIP3    H164295   0.178   4.971  14.059  1.5544  1.0754 -0.9456
14268TIP3    H264296   0.317   4.982  14.118  0.5328 -1.4571  2.1183
14269TIP3   OH264297   3.322   4.055  11.817  0.2706 -0.4705  0.0567
14269TIP3    H164298   3.278   4.001  11.751  1.7466 -2.1652  0.4092
14269TIP3    H264299   3.353   3.992  11.882  2.2634  0.7953  0.3580
14270TIP3   OH264300   3.220   1.498  12.020  0.5037 -0.5906  0.3347
14270TIP3    H164301   3.183   1.437  11.956  1.7998 -2.4080  1.2749
14270TIP3    H264302   3.304   1.524  11.983 -0.9617  2.4502 -1.1295
14271TIP3   OH264303   3.458   5.835  16.903 -0.0985 -0.1447 -0.2968
14271TIP3    H164304   3.495   5.895  16.968  0.2781 -0.1831 -0.4716
14271TIP3    H264305   3.434   5.891  16.830 -0.8834 -0.0507  0.0317
14272TIP3   OH264306   2.000   2.352  14.156  0.0922 -0.2574  0.2237
14272TIP3    H164307   2.075   2.385  14.205 -0.2746  0.5578  0.2429
14272TIP3    H264308   1.933   2.420  14.166  0.1591  0.1408 -1.7501
14273TIP3   OH264309   3.054   6.256   1.787 -0.1402  0.2045  0.0877
14273TIP3    H164310   3.095   6.188   1.735 -0.7044 -0.1561  0.1158
14273TIP3    H264311   3.125   6.317   1.806 -0.0555  0.6804 -1.6431
14274TIP3   OH264312   6.817   6.666   5.710 -0.0992 -0.1085  0.3772
14274TIP3    H164313   6.859   6.732   5.655 -0.6514  0.9859  1.2433
14274TIP3    H264314   6.843   6.689   5.800 -1.0388 -0.5039  0.7590
14275TIP3   OH264315   3.828   4.699   5.537 -0.0447 -0.1078  0.5587
14275TIP3    H164316   3.836   4.618   5.486 -0.5415  0.4334 -0.3955
14275TIP3    H264317   3.742   4.734   5.514 -0.4201 -0.0129  2.0235
14276TIP3   OH264318   2.728   6.231   1.156  0.1863 -0.6374  0.7069
14276TIP3    H164319   2.754   6.148   1.194  1.7150 -1.9356 -2.9095
14276TIP3    H264320   2.810   6.278   1.141 -0.4345  0.2717  0.0442
14277TIP3   OH264321   1.536   1.247  14.153  0.4821  0.1309  0.6392
14277TIP3    H164322   1.466   1.288  14.104  0.9460  1.3566  0.9856
14277TIP3    H264323   1.525   1.153  14.137 -1.4591  0.2828  0.9992
14278TIP3   OH264324   3.401   0.932  14.993 -0.4859  0.5199  0.1455
14278TIP3    H164325   3.456   0.916  15.070 -0.3919 -0.4860 -0.1245
14278TIP3    H264326   3.452   0.897  14.919  0.2423  3.1449 -0.6292
14279TIP3   OH264327   0.493   0.408  15.094  0.5936  0.0394 -0.0145
14279TIP3    H164328   0.479   0.488  15.144  4.6404  0.8436  0.0606
14279TIP3    H264329   0.421   0.350  15.120 -0.6310  2.5037  2.3387
14280TIP3   OH264330   4.191   3.649   6.373  0.2548  0.0778  0.5051
14280TIP3    H164331   4.250   3.574   6.381 -0.6211 -0.6527  0.1516
14280TIP3    H264332   4.137   3.645   6.452 -0.0048  0.1528  0.3300
14281TIP3   OH264333   2.122   4.085   0.768 -0.3616 -0.2823 -0.8121
14281TIP3    H164334   2.055   4.043   0.822  0.7679  0.0391  0.8445
14281TIP3    H264335   2.158   4.014   0.715  0.0828 -1.0130  0.4597
14282TIP3   OH264336   0.599   3.524  17.101  0.1848 -0.0129  0.5686
14282TIP3    H164337   0.570   3.462  17.168 -2.8896 -0.1933 -0.8572
14282TIP3    H264338   0.663   3.579  17.146 -1.1853 -0.6631  3.4377
14283TIP3   OH264339   3.439   4.885   0.483  0.2653  0.1288  0.0776
14283TIP3    H164340   3.497   4.948   0.526  0.7566 -1.3597  1.6466
14283TIP3    H264341   3.489   4.803   0.481 -1.8807 -1.2756  1.7915
14284TIP3   OH264342   4.980   0.457  11.393 -0.5383  0.5873 -0.0882
14284TIP3    H164343   5.068   0.469  11.430 -0.7406  1.5892  0.0936
14284TIP3    H264344   4.944   0.545  11.390 -1.6434  0.1401  0.0785
14285TIP3   OH264345   2.753   5.271   2.262 -0.1693 -0.4591  0.1896
14285TIP3    H164346   2.771   5.196   2.206  1.0206  0.3487 -0.5321
14285TIP3    H264347   2.812   5.261   2.337 -0.9649 -0.9447  0.7629
14286TIP3   OH264348   6.650   0.011  13.362 -0.2053  0.1805  0.6021
14286TIP3    H164349   6.609   0.092  13.331 -1.0389 -1.0364 -1.5342
14286TIP3    H264350   6.582  -0.033  13.413 -1.0901 -1.1166 -1.6739
14287TIP3   OH264351   2.636   0.020   2.683  0.4888 -0.2163 -0.1021
14287TIP3    H164352   2.643  -0.006   2.592  1.1703 -1.7959  0.3804
14287TIP3    H264353   2.672  -0.054   2.732  0.1909  0.6330  1.4414
14288TIP3   OH264354   4.879   0.656  16.138 -0.3103  0.3417  0.1589
14288TIP3    H164355   4.790   0.689  16.147 -0.4577  0.1386 -0.5441
14288TIP3    H264356   4.878   0.571  16.181 -1.3542 -1.2261 -2.8687
14289TIP3   OH264357   6.044   2.706  11.977 -0.3498 -0.3724  0.0152
14289TIP3    H164358   5.980   2.775  11.964  1.7790  1.6817  0.1157
14289TIP3    H264359   6.119   2.732  11.924  0.0620 -3.2387 -0.9031
14290TIP3   OH264360   3.670   0.029  15.588  0.0736 -0.1953 -0.5676
14290TIP3    H164361   3.665   0.087  15.664  0.4302 -0.6021 -0.2348
14290TIP3    H264362   3.738  -0.034  15.610  0.0781 -0.3995 -1.1663
14291TIP3   OH264363   4.280   5.858  10.536  0.1487 -0.3448 -0.1526
14291TIP3    H164364   4.332   5.791  10.493  1.9952  0.3935  0.8651
14291TIP3    H264365   4.344   5.908  10.588 -1.2757  1.7530 -0.3637
14292TIP3   OH264366   6.181   0.602   4.135 -0.0576  0.4457  0.1626
14292TIP3    H164367   6.147   0.632   4.050  0.0095  1.2383  0.4065
14292TIP3    H264368   6.275   0.597   4.122  0.1010  1.8989  0.5704
14293TIP3   OH264369   4.148   4.774  15.674  0.3635  0.7041 -0.2052
14293TIP3    H164370   4.214   4.771  15.605  1.2971  0.2212  0.7095
14293TIP3    H264371   4.153   4.689  15.717  0.3923  1.3213  1.0229
14294TIP3   OH264372   2.328   3.348   5.173  0.1545  0.3232  0.5541
14294TIP3    H164373   2.398   3.411   5.157  0.3440 -0.1671 -0.5102
14294TIP3    H264374   2.342   3.320   5.264  1.8933 -0.4869  0.0457
14295TIP3   OH264375   4.745   1.434   4.871 -0.0394  0.0468  0.2532
14295TIP3    H164376   4.828   1.451   4.826  2.0295  0.1045  3.9206
14295TIP3    H264377   4.723   1.344   4.848  1.6940 -0.3801  0.2004
14296TIP3   OH264378   3.973   0.466   2.428 -0.0155 -0.1470 -0.9761
14296TIP3    H164379   3.919   0.401   2.473  0.8893  0.5732  1.2584
14296TIP3    H264380   4.035   0.415   2.376  0.1924 -1.0706  0.1666
14297TIP3   OH264381   1.922   1.590  15.932 -0.2339 -0.4920  0.5109
14297TIP3    H164382   2.002   1.559  15.974  0.5865 -0.0809 -0.7217
14297TIP3    H264383   1.878   1.642  15.999  1.4224  0.7961  0.6095
14298TIP3   OH264384   3.100   1.560   5.562  0.4011  0.4352 -0.2237
14298TIP3    H164385   3.095   1.464   5.567 -1.0365  0.5453  0.9522
14298TIP3    H264386   3.179   1.583   5.611 -0.2563 -0.0519  1.0907
14299TIP3   OH264387   6.391   6.756   5.910 -0.0919  0.5946  0.1339
14299TIP3    H164388   6.346   6.718   5.835 -1.9230 -0.2680  1.6305
14299TIP3    H264389   6.352   6.713   5.986  2.0510  1.1041  1.5738
14300TIP3   OH264390   4.481   1.838   2.806 -0.0568 -0.4764  0.1482
14300TIP3    H164391   4.448   1.863   2.893 -0.6672  0.1617 -0.2650
14300TIP3    H264392   4.514   1.748   2.818  0.9804  0.0465  1.3319
14301TIP3   OH264393   3.273   1.400  10.480 -0.2642  0.0288 -0.0189
14301TIP3    H164394   3.231   1.486  10.489  0.3864  0.0759  3.0782
14301TIP3    H264395   3.200   1.338  10.483 -0.5906  0.3842 -0.5119
14302TIP3   OH264396   1.642   6.535   1.041  0.8661 -0.5739  1.0136
14302TIP3    H164397   1.720   6.542   1.096  1.4382  0.6456  0.0809
14302TIP3    H264398   1.676   6.510   0.955  0.2514  0.2039  0.5440
14303TIP3   OH264399   3.064   3.693   3.842 -0.3627 -0.4150 -0.1978
14303TIP3    H164400   3.039   3.603   3.823  0.1553 -0.9669  1.6269
14303TIP3    H264401   3.157   3.687   3.867 -0.3647  0.5966  0.0797
14304TIP3   OH264402   0.477   6.608  16.796  0.3847 -0.1291  0.0937
14304TIP3    H164403   0.545   6.541  16.789  0.2054 -0.2176 -0.8458
14304TIP3    H264404   0.417   6.574  16.863  0.7812 -0.4776  0.2739
14305TIP3   OH264405   0.657   6.336   6.405  0.1918 -0.4771  0.8414
14305TIP3    H164406   0.721   6.287   6.354 -0.1033  0.7725 -0.7852
14305TIP3    H264407   0.702   6.358   6.486  1.0298 -1.5934  0.6806
14306TIP3   OH264408   4.915   1.438  14.637  0.5153  0.1024 -0.1205
14306TIP3    H164409   4.903   1.355  14.591  0.7365 -1.7787  3.0299
14306TIP3    H264410   4.989   1.423  14.695  0.7626  2.6302  0.2843
14307TIP3   OH264411   2.712   0.864  12.487 -0.4112 -0.4185  0.6092
14307TIP3    H164412   2.728   0.846  12.580 -0.8477 -1.5726  0.4728
14307TIP3    H264413   2.626   0.907  12.485 -0.7312 -1.0461  0.6828
14308TIP3   OH264414   0.288   2.579   2.458  0.0013  0.3598  0.9282
14308TIP3    H164415   0.254   2.500   2.414 -0.1880 -0.3593  2.3546
14308TIP3    H264416   0.232   2.650   2.427  0.5279  0.0497 -0.8222
14309TIP3   OH264417   6.096   1.150  13.296  0.7355  0.0402  0.7923
14309TIP3    H164418   6.102   1.228  13.241 -0.9872 -1.0545 -0.9991
14309TIP3    H264419   6.186   1.134  13.325  1.1829  2.3898  0.8117
14310TIP3   OH264420   1.463   1.194   4.578  0.5252  0.1361  0.2663
14310TIP3    H164421   1.426   1.138   4.646  0.2609  0.3828  0.3264
14310TIP3    H264422   1.542   1.231   4.616 -0.6238  1.7597  1.1147
14311TIP3   OH264423   3.174   2.750   5.521  0.8209 -0.2259  0.1632
14311TIP3    H164424   3.267   2.728   5.523  0.7667 -0.4231  0.6792
14311TIP3    H264425   3.137   2.695   5.452  1.1246  0.0266 -0.2084
14312TIP3   OH264426   0.362   1.876  15.000 -0.6555 -0.1037  0.3817
14312TIP3    H164427   0.419   1.889  15.076 -1.0339  0.4638  0.5649
14312TIP3    H264428   0.299   1.809  15.029 -0.4218 -0.3320  0.3632
14313TIP3   OH264429   1.759   0.423  16.758 -0.0715 -0.4661 -0.2226
14313TIP3    H164430   1.739   0.475  16.680 -0.4572  0.8821  0.7530
14313TIP3    H264431   1.764   0.488  16.829 -0.2212 -1.7322  0.9559
14314TIP3   OH264432   6.722   6.153  14.807  0.1116 -0.2524  0.1605
14314TIP3    H164433   6.698   6.212  14.735  1.6241  0.6034  0.3194
14314TIP3    H264434   6.697   6.066  14.776 -0.0793  0.2108 -1.0330
14315TIP3   OH264435   0.250   5.798   2.349 -0.2362 -0.1365 -0.2965
14315TIP3    H164436   0.232   5.815   2.256 -2.5554  1.2747  0.3790
14315TIP3    H264437   0.290   5.878   2.381  1.7058 -1.0610 -0.3209
14316TIP3   OH264438   2.307   6.609   2.581  0.4704 -0.1635 -0.1040
14316TIP3    H164439   2.275   6.563   2.503  0.8418  1.2237 -1.0841
14316TIP3    H264440   2.322   6.699   2.551 -0.7435  0.7392  1.9139
14317TIP3   OH264441   3.972   5.465   5.806  0.2932 -0.3073 -0.5625
14317TIP3    H164442   4.004   5.529   5.869  2.1430 -1.5652 -0.1597
14317TIP3    H264443   3.902   5.419   5.851 -0.6854  1.0574 -0.6648
14318TIP3   OH264444   6.663   4.788   0.466 -0.3499 -0.3180  0.2889
14318TIP3    H164445   6.591   4.781   0.403  1.0423 -0.5209 -1.3231
14318TIP3    H264446   6.620   4.786   0.552 -2.2256 -0.8458 -0.6270
14319TIP3   OH264447   5.581   0.894   6.303  0.1221  0.2958 -0.2294
14319TIP3    H164448   5.524   0.933   6.369  0.8819  0.1315  0.5353
14319TIP3    H264449   5.584   0.959   6.232 -2.5473 -0.5403 -1.1604
14320TIP3   OH264450   6.816   1.637   1.254  0.2659  0.1111 -0.1264
14320TIP3    H164451   6.751   1.701   1.283  0.2563  0.1764 -0.2948
14320TIP3    H264452   6.880   1.688   1.205  1.1299  0.2484  1.1320
14321TIP3   OH264453   2.708   2.184   1.221 -0.5055 -0.0812 -0.2452
14321TIP3    H164454   2.787   2.131   1.227 -1.1945 -0.9915  1.2755
14321TIP3    H264455   2.659   2.146   1.148 -1.0213 -1.6406  0.8668
14322TIP3   OH264456   2.358   6.411   1.828 -0.2641  0.3690  0.1631
14322TIP3    H164457   2.393   6.498   1.809  0.0121  0.0598 -0.7533
14322TIP3    H264458   2.431   6.352   1.809 -0.5098 -0.0767  0.6086
14323TIP3   OH264459   1.633   3.409  14.053 -0.3452  0.2837  0.6352
14323TIP3    H164460   1.658   3.473  13.986  2.0019 -1.4416 -0.2429
14323TIP3    H264461   1.642   3.455  14.136  1.4068  1.0800  0.0155
14324TIP3   OH264462   0.282   6.716  14.485 -0.0802 -0.0742  0.8063
14324TIP3    H164463   0.357   6.667  14.451  1.9792  1.6445  2.6976
14324TIP3    H264464   0.207   6.657  14.473  2.0712 -3.0811  1.6453
14325TIP3   OH264465   3.016   5.418  17.191  0.0464  0.0625  0.1336
14325TIP3    H164466   3.044   5.423  17.282  1.3806  0.4517 -0.2967
14325TIP3    H264467   2.942   5.357  17.192 -1.2430  1.6021  1.7820
14326TIP3   OH264468   3.082   1.932   5.790  0.1292  0.9560 -0.4499
14326TIP3    H164469   3.032   1.971   5.718  0.5481  0.7260 -0.8689
14326TIP3    H264470   3.031   1.856   5.816  0.3773  0.5757 -1.0463
14327TIP3   OH264471   5.761   0.165  10.781  0.3027 -0.2861  0.1784
14327TIP3    H164472   5.739   0.191  10.691  0.3906  0.5404  0.3897
14327TIP3    H264473   5.779   0.248  10.826 -0.0348 -0.6722  1.0339
14328TIP3   OH264474   1.416   4.989   0.837 -0.3367  0.2431 -0.3820
14328TIP3    H164475   1.359   5.025   0.769  1.5259  1.0541 -1.5355
14328TIP3    H264476   1.481   5.057   0.853  0.5441 -0.8151  0.6422
14329TIP3   OH264477   5.706   4.354   2.642 -0.2019 -0.6257 -0.5304
14329TIP3    H164478   5.781   4.383   2.694 -0.6038  0.6679 -0.6406
14329TIP3    H264479   5.665   4.436   2.612 -2.4145 -1.2500  0.6409
14330TIP3   OH264480   1.378   3.695   3.692 -0.2099 -0.0597  0.2492
14330TIP3    H164481   1.410   3.641   3.620 -0.2907  1.3916 -0.8891
14330TIP3    H264482   1.320   3.637   3.741  1.8761 -1.8417  0.6831
14331TIP3   OH264483   6.492   6.478  13.180 -0.4178  0.2693 -0.7211
14331TIP3    H164484   6.477   6.447  13.269 -0.2779 -1.2466 -1.2127
14331TIP3    H264485   6.581   6.511  13.180 -0.3379  0.0537 -0.3588
14332TIP3   OH264486   6.107   1.488  13.079  0.0446 -0.0185  0.2680
14332TIP3    H164487   6.166   1.419  13.049 -0.5695 -1.5572  2.4530
14332TIP3    H264488   6.022   1.444  13.087 -0.7057  1.3971  0.1506
14333TIP3   OH264489   6.076   4.293   0.446  0.6288  0.0529  0.5233
14333TIP3    H164490   6.005   4.281   0.509 -0.5349 -1.4842 -1.0379
14333TIP3    H264491   6.033   4.324   0.367  1.3702 -2.8329 -1.1025
14334TIP3   OH264492   6.390   3.450   6.305 -0.4120 -0.5441  0.1278
14334TIP3    H164493   6.308   3.401   6.295 -2.9710  3.5321  0.1621
14334TIP3    H264494   6.396   3.503   6.225  0.1263  2.0751  1.8429
14335TIP3   OH264495   4.657   3.531   5.800  0.3307 -0.3165  0.5575
14335TIP3    H164496   4.572   3.508   5.762  0.5777 -0.5311  0.1289
14335TIP3    H264497   4.658   3.487   5.886 -0.5400  0.7945  1.1445
14336TIP3   OH264498   5.710   6.749  16.417  0.1141 -0.6192  0.4245
14336TIP3    H164499   5.678   6.730  16.329  0.1338  0.2848  0.2239
14336TIP3    H264500   5.668   6.682  16.472  0.1803 -1.2425 -0.2803
14337TIP3   OH264501   6.459   5.860   5.304  0.0682 -1.0195 -0.2141
14337TIP3    H164502   6.496   5.776   5.276  2.6244 -0.3624  0.9914
14337TIP3    H264503   6.475   5.863   5.398 -2.1745 -0.2166  0.1595
14338TIP3   OH264504   3.972   5.147   6.098  0.4541  0.0326  0.6287
14338TIP3    H164505   3.990   5.053   6.107  1.6197  0.3026  1.1806
14338TIP3    H264506   3.909   5.166   6.169 -0.1823 -0.4313  0.1899
14339TIP3   OH264507   6.099   6.436  12.682  0.4539 -0.2172  0.0551
14339TIP3    H164508   6.125   6.527  12.671  0.1854  0.1435  2.1385
14339TIP3    H264509   6.054   6.434  12.767 -1.8039 -1.8128 -1.1338
14340TIP3   OH264510   4.220   0.153   0.629  0.4579  0.4456 -0.3987
14340TIP3    H164511   4.282   0.140   0.557  0.7410  1.6247 -0.3750
14340TIP3    H264512   4.203   0.064   0.661  0.8743 -0.0331 -1.4556
14341TIP3   OH264513   1.728   4.679   5.111 -0.5297  0.8688  0.2269
14341TIP3    H164514   1.728   4.742   5.039 -1.2457 -1.2093 -1.6559
14341TIP3    H264515   1.818   4.676   5.141  0.0688  0.6991 -1.5536
14342TIP3   OH264516   1.667   1.992   0.074  0.1520  0.4475 -0.2089
14342TIP3    H164517   1.629   1.907   0.053 -3.2260  1.2142  2.1513
14342TIP3    H264518   1.630   2.052   0.009 -0.1998  0.6586  0.1790
14343TIP3   OH264519   0.380   4.688   3.784 -0.5450 -0.0447 -0.1881
14343TIP3    H164520   0.311   4.673   3.848 -1.2398  0.8958 -0.6942
14343TIP3    H264521   0.338   4.673   3.699 -0.1766  0.6655 -0.5042
14344TIP3   OH264522   2.538   6.667  14.345  0.1276 -0.2354 -0.0319
14344TIP3    H164523   2.566   6.707  14.262 -1.1822  1.2708  0.2208
14344TIP3    H264524   2.566   6.576  14.338  0.8573  0.0841 -1.7425
14345TIP3   OH264525   5.935   6.740  11.345 -0.1125 -0.3305  0.1621
14345TIP3    H164526   5.991   6.771  11.274 -1.6488  1.2595 -0.4075
14345TIP3    H264527   5.909   6.652  11.318  0.4617 -0.2833 -0.5658
14346TIP3   OH264528   5.991   5.806  14.418  0.2130  0.6252 -0.3085
14346TIP3    H164529   5.917   5.851  14.459  0.2351  1.8821 -1.6265
14346TIP3    H264530   6.060   5.808  14.484 -0.7014  0.0713  0.6688
14347TIP3   OH264531   0.840   2.603  12.100  0.7224  0.0228 -0.3229
14347TIP3    H164532   0.826   2.518  12.143 -0.9220  1.2705  1.7135
14347TIP3    H264533   0.829   2.585  12.007 -0.3550 -1.8541  0.1477
14348TIP3   OH264534   2.572   4.363   5.252  0.0560 -0.2137  0.0718
14348TIP3    H164535   2.577   4.433   5.187  1.3820 -0.2203  0.1449
14348TIP3    H264536   2.510   4.395   5.317 -0.0295  0.4991 -0.3498
14349TIP3   OH264537   3.259   6.446   2.409  0.4895 -0.0405  0.4102
14349TIP3    H164538   3.175   6.438   2.365  0.4904 -0.7096  0.5195
14349TIP3    H264539   3.278   6.540   2.409 -0.9709  0.2748  1.7250
14350TIP3   OH264540   4.017   2.223  11.798  0.6620 -0.2043  0.3822
14350TIP3    H164541   4.034   2.161  11.727 -3.9718 -1.9213  0.6572
14350TIP3    H264542   3.975   2.298  11.754  0.6000  0.0701  0.9069
14351TIP3   OH264543   1.941   5.891  14.453  0.5551 -0.5008  0.4502
14351TIP3    H164544   2.028   5.931  14.452 -0.1510  1.1016  0.6956
14351TIP3    H264545   1.904   5.917  14.537 -1.4342  1.7333 -1.0395
14352TIP3   OH264546   3.477   3.470   1.379 -0.1414 -0.4372 -0.0885
14352TIP3    H164547   3.562   3.501   1.410 -0.4751  0.8583 -0.4263
14352TIP3    H264548   3.418   3.545   1.392 -0.9837 -0.9491 -0.8733
14353TIP3   OH264549   5.776   5.511  14.004  0.2954 -0.4033 -0.1912
14353TIP3    H164550   5.774   5.607  14.000 -0.8624 -0.3181  1.8113
14353TIP3    H264551   5.843   5.491  14.069  0.6595 -0.9615 -0.7342
14354TIP3   OH264552   4.632   6.450  14.842 -0.7269 -0.0478  0.0466
14354TIP3    H164553   4.585   6.367  14.839 -0.8339 -0.0146  0.7420
14354TIP3    H264554   4.599   6.499  14.766  0.5833 -1.2947 -1.3519
14355TIP3   OH264555   6.330   5.064   1.060  0.4262  0.2967  0.3095
14355TIP3    H164556   6.280   5.122   1.002  1.0544  0.5644  0.0288
14355TIP3    H264557   6.269   5.042   1.130 -0.0661  0.6719  0.0032
14356TIP3   OH264558   5.238   5.262  11.088  0.0321 -0.0337 -0.0011
14356TIP3    H164559   5.268   5.186  11.038  0.4981  0.0699  0.1152
14356TIP3    H264560   5.145   5.270  11.066  0.2222 -0.0193 -0.8086
14357TIP3   OH264561   1.823   6.510  11.859 -0.6247 -0.3169  0.2187
14357TIP3    H164562   1.732   6.536  11.847 -0.4094  1.7185  2.4732
14357TIP3    H264563   1.819   6.444  11.928 -0.1468  2.4469  3.0226
14358TIP3   OH264564   5.357   2.039  14.934 -0.3475  0.4826 -0.3257
14358TIP3    H164565   5.264   2.019  14.926 -0.2111 -0.1669 -0.3033
14358TIP3    H264566   5.374   2.035  15.028  0.0382 -0.9541 -0.4452
14359TIP3   OH264567   1.403   5.366  15.842  0.1580  0.0444  0.1838
14359TIP3    H164568   1.418   5.277  15.811 -0.1365 -1.1083  3.1905
14359TIP3    H264569   1.315   5.364  15.880 -0.9972  2.3767 -2.2407
14360TIP3   OH264570   4.752   1.607  15.537  0.3186 -0.0903 -0.1925
14360TIP3    H164571   4.713   1.576  15.455 -1.5596 -0.5977  0.8555
14360TIP3    H264572   4.678   1.642  15.586  1.5012  0.5716  1.1188
14361TIP3   OH264573   6.094   1.687   1.334 -0.1090 -0.4805  0.4220
14361TIP3    H164574   6.132   1.617   1.386 -0.0365 -1.3109 -0.7293
14361TIP3    H264575   5.999   1.678   1.348 -0.3594 -3.0515 -2.4594
14362TIP3   OH264576   4.933   5.928   4.414  0.1815 -0.4372  0.5994
14362TIP3    H164577   4.871   5.869   4.372 -0.9126  0.7187  0.5660
14362TIP3    H264578   4.878   5.996   4.455  1.3966  0.3844  0.9023
14363TIP3   OH264579   5.437   0.903  12.344  0.4837  0.0203 -0.6901
14363TIP3    H164580   5.512   0.880  12.399 -0.7337 -1.7308  0.2815
14363TIP3    H264581   5.469   0.893  12.254  1.1605 -1.6157 -0.2784
14364TIP3   OH264582   1.161   5.041   4.941  0.3393  0.2026  0.0558
14364TIP3    H164583   1.246   5.052   4.898  0.0915 -0.9941 -0.7647
14364TIP3    H264584   1.133   4.953   4.916 -3.0638  2.0084 -3.1434
14365TIP3   OH264585   3.669   5.662  16.641 -0.5577  0.3574 -0.1967
14365TIP3    H164586   3.595   5.609  16.611  1.0288 -0.5617 -2.6697
14365TIP3    H264587   3.717   5.682  16.561  3.1776 -1.0951  1.5644
14366TIP3   OH264588   0.326   6.236  12.126  0.3251 -1.1794 -0.5820
14366TIP3    H164589   0.398   6.296  12.143 -0.6443  0.1647 -1.1592
14366TIP3    H264590   0.287   6.221  12.212 -1.4097  1.5710 -0.8532
14367TIP3   OH264591   5.764   1.217   5.763 -0.2408  0.4834 -0.3232
14367TIP3    H164592   5.837   1.189   5.817  1.2920  0.5044 -2.3098
14367TIP3    H264593   5.758   1.151   5.693 -1.0697  1.3490 -1.0966
14368TIP3   OH264594   5.036   4.271   5.535  0.4662 -0.4926 -0.5885
14368TIP3    H164595   4.993   4.329   5.471  0.7486  1.3128  0.8300
14368TIP3    H264596   5.000   4.297   5.619  3.7128  0.5505  0.5633
14369TIP3   OH264597   0.772   2.432  13.343  0.2865 -0.0547  0.7060
14369TIP3    H164598   0.684   2.457  13.312  0.0282 -1.0884  0.5900
14369TIP3    H264599   0.763   2.340  13.367  1.3853 -0.1934  0.5746
14370TIP3   OH264600   1.799   6.294  12.016  0.5083 -0.2973 -0.0969
14370TIP3    H164601   1.839   6.260  12.096 -0.2156 -1.4596 -0.2143
14370TIP3    H264602   1.711   6.319  12.042  0.1826 -0.9259 -0.5811
14371TIP3   OH264603   1.958   4.769  11.951 -0.3510 -0.4333  0.0944
14371TIP3    H164604   1.970   4.686  11.997 -0.4955  0.1039  1.1340
14371TIP3    H264605   2.043   4.787  11.911 -0.2157 -0.9019  0.1710
14372TIP3   OH264606   5.938   1.245  16.761  0.1413  0.0935 -0.1563
14372TIP3    H164607   5.906   1.166  16.717 -1.2298  0.4279  0.2195
14372TIP3    H264608   6.012   1.214  16.814 -1.1677 -1.1992  0.9719
14373TIP3   OH264609   4.764   1.876   0.351 -1.0604 -0.2457 -0.1254
14373TIP3    H164610   4.743   1.794   0.394  1.0856 -0.0958  1.2769
14373TIP3    H264611   4.850   1.862   0.313 -1.2177  0.9502 -0.9551
14374TIP3   OH264612   1.839   6.315   5.830  0.0484 -0.4590  0.0192
14374TIP3    H164613   1.755   6.270   5.832  0.2066 -0.7727 -0.4402
14374TIP3    H264614   1.881   6.286   5.749  0.3783  0.1013 -0.0186
14375TIP3   OH264615   5.767   5.309   0.542 -0.0617  0.2650 -0.1284
14375TIP3    H164616   5.773   5.221   0.505  0.4625 -0.7456  2.2437
14375TIP3    H264617   5.856   5.329   0.569 -0.0814  1.7664 -1.1191
14376TIP3   OH264618   0.636   1.128  15.723 -0.3097 -0.0808  0.2967
14376TIP3    H164619   0.643   1.212  15.677  0.0852 -0.7131 -0.8413
14376TIP3    H264620   0.610   1.151  15.812  0.5068  1.2891  0.1910
14377TIP3   OH264621   3.929   5.626  14.158 -0.2085 -0.0901  0.4333
14377TIP3    H164622   3.928   5.720  14.145  0.9670 -0.3608 -1.9543
14377TIP3    H264623   4.007   5.596  14.110  0.0023 -2.1558  1.9726
14378TIP3   OH264624   3.957   0.227  12.818  0.1504 -0.3721 -0.4216
14378TIP3    H164625   4.037   0.177  12.830 -0.0573 -1.5489 -3.5132
14378TIP3    H264626   3.928   0.206  12.730 -1.0996  3.5935 -1.0941
14379TIP3   OH264627   6.239   4.610  13.183 -0.3044  0.5525  0.4802
14379TIP3    H164628   6.222   4.534  13.238 -0.6496  0.1124 -0.2152
14379TIP3    H264629   6.249   4.683  13.244  0.0998 -0.0666  1.1550
14380TIP3   OH264630   4.819   3.183   5.030  0.7920  0.2832 -0.5447
14380TIP3    H164631   4.789   3.192   5.120  1.1723 -1.2977 -0.2432
14380TIP3    H264632   4.897   3.239   5.025  2.0067 -1.2470  0.7269
14381TIP3   OH264633   1.271   5.651   1.741  0.1344 -0.1632  0.5555
14381TIP3    H164634   1.347   5.698   1.707 -0.0320  1.2240  2.0229
14381TIP3    H264635   1.309   5.582   1.796  0.3539  0.8934  1.7580
14382TIP3   OH264636   5.907   4.186  13.248  0.0233  0.2328 -0.1164
14382TIP3    H164637   5.827   4.159  13.291 -1.6133 -0.9513 -3.7279
14382TIP3    H264638   5.904   4.282  13.250 -0.6913  0.1922  1.1310
14383TIP3   OH264639   1.799   1.339  14.081 -0.2090  0.2268  0.2275
14383TIP3    H164640   1.718   1.296  14.106  1.1832 -2.2161  0.6510
14383TIP3    H264641   1.811   1.408  14.147 -1.7260  0.3694  0.3726
14384TIP3   OH264642   1.892   1.063  14.457  0.4714  0.4863  0.1278
14384TIP3    H164643   1.890   1.155  14.431  1.3427  1.1033  2.1235
14384TIP3    H264644   1.810   1.050  14.505  0.6740  0.4182  0.4568
14385TIP3   OH264645   3.309   6.124  15.835 -0.4031  0.2392  0.2639
14385TIP3    H164646   3.272   6.149  15.750 -0.9124  0.6932  0.6158
14385TIP3    H264647   3.306   6.205  15.887  0.3294  0.0771  0.5614
14386TIP3   OH264648   2.849   5.910   5.607 -0.0319 -0.5496  0.4477
14386TIP3    H164649   2.891   5.927   5.523 -0.0119 -3.4706 -0.1764
14386TIP3    H264650   2.809   5.993   5.631  1.7276  0.8881 -1.4281
14387TIP3   OH264651   5.506   1.994   4.287  0.4384  0.4651 -0.5350
14387TIP3    H164652   5.539   1.925   4.345 -0.7313  0.7267  0.4580
14387TIP3    H264653   5.585   2.033   4.250  1.1181 -1.6028 -1.3487
14388TIP3   OH264654   4.371   5.106  12.268  0.0912 -0.1543 -0.7791
14388TIP3    H164655   4.315   5.182  12.286  0.5368  0.1736 -0.7684
14388TIP3    H264656   4.426   5.098  12.345  0.8411  0.2187 -1.2758
14389TIP3   OH264657   6.186   4.314  13.880 -0.0425  0.1581 -0.0051
14389TIP3    H164658   6.130   4.392  13.878 -0.6513 -0.2936 -0.6138
14389TIP3    H264659   6.130   4.243  13.848  0.3168 -0.6575  1.1413
14390TIP3   OH264660   6.333   5.486   5.382  0.1592 -0.3516 -0.0852
14390TIP3    H164661   6.352   5.405   5.429 -1.7426 -1.2602 -0.8130
14390TIP3    H264662   6.418   5.521   5.357  1.0010 -2.0558  0.3763
14391TIP3   OH264663   6.098   6.034  12.285  0.3275 -0.6395  0.2441
14391TIP3    H164664   6.033   6.073  12.343  0.4102  0.7314 -0.5658
14391TIP3    H264665   6.177   6.086  12.299 -0.2237  1.0998 -2.6330
14392TIP3   OH264666   5.208   5.150   2.491 -0.2822 -0.1648 -0.7600
14392TIP3    H164667   5.184   5.155   2.399  0.5178  1.2488 -0.9010
14392TIP3    H264668   5.257   5.067   2.499 -0.1334 -0.1619 -1.6472
14393TIP3   OH264669   5.505   1.925   2.572  0.2095 -0.0056 -0.0364
14393TIP3    H164670   5.569   1.855   2.562  0.7451  0.2804  1.3023
14393TIP3    H264671   5.554   2.005   2.551  0.0523  0.1288  0.1153
14394TIP3   OH264672   4.233   3.969  11.793 -0.5978  0.0636  0.1998
14394TIP3    H164673   4.220   3.913  11.716 -2.3911  0.0057  0.5200
14394TIP3    H264674   4.146   3.974  11.833  0.1331  0.8560  1.7028
14395TIP3   OH264675   5.421   0.725   0.617 -0.2616 -1.0199  0.1427
14395TIP3    H164676   5.503   0.702   0.574  0.1791  1.0671 -0.1688
14395TIP3    H264677   5.433   0.695   0.707  0.5479 -1.4160 -0.0873
14396TIP3   OH264678   4.547   5.782   5.645  0.0885  0.3272  0.4321
14396TIP3    H164679   4.626   5.822   5.609  0.1943  1.3741  1.7691
14396TIP3    H264680   4.515   5.724   5.576  1.8232  0.1753 -0.2585
14397TIP3   OH264681   0.683   3.863   3.349 -0.2407 -0.8456  0.9474
14397TIP3    H164682   0.611   3.801   3.345 -0.2962 -0.8631  2.0723
14397TIP3    H264683   0.738   3.831   3.421  1.3195 -1.2926 -0.3967
14398TIP3   OH264684   0.127   3.673   1.355 -0.1996  0.0673  0.1368
14398TIP3    H164685   0.153   3.630   1.273 -1.4126 -0.3300 -0.0413
14398TIP3    H264686   0.147   3.766   1.340 -0.4137  0.0012 -0.6029
14399TIP3   OH264687   2.362   1.124  12.012  0.0188  0.5156  0.5448
14399TIP3    H164688   2.355   1.037  12.052  1.2044  0.0917 -0.1442
14399TIP3    H264689   2.456   1.142  12.010  0.0153  0.4504 -2.1904
14400TIP3   OH264690   5.602   1.041  12.725  0.0118  0.1305 -0.0593
14400TIP3    H164691   5.547   0.965  12.742  0.4217 -0.1383  0.0831
14400TIP3    H264692   5.646   1.021  12.643  0.6624 -0.1058  0.3459
14401TIP3   OH264693   0.744   5.306  14.486  0.7778 -0.5930 -0.5402
14401TIP3    H164694   0.670   5.351  14.527  1.0519 -0.2960 -0.3570
14401TIP3    H264695   0.800   5.281  14.560 -0.6785 -3.6468 -0.4257
14402TIP3   OH264696   0.684   2.462   3.293  0.3672  0.5770  0.0520
14402TIP3    H164697   0.653   2.545   3.255 -1.4440  0.7667  1.8713
14402TIP3    H264698   0.669   2.472   3.387  1.7291 -1.1747  0.4789
14403TIP3   OH264699   0.957   6.760  11.042 -0.5313 -0.3480 -0.8856
14403TIP3    H164700   0.929   6.814  11.116  1.8420  0.6117 -0.6478
14403TIP3    H264701   0.879   6.711  11.018 -1.2156 -1.1618  2.6608
14404TIP3   OH264702   0.765   2.501  12.447  0.7380  0.5354 -0.3724
14404TIP3    H164703   0.755   2.498  12.542 -0.9742  2.6028 -0.4353
14404TIP3    H264704   0.859   2.494  12.432  0.8320 -2.2738  1.3135
14405TIP3   OH264705   5.761   1.824   3.991  0.6391  0.2393  0.4227
14405TIP3    H164706   5.722   1.799   4.075  0.6202 -0.5880  0.1722
14405TIP3    H264707   5.687   1.834   3.932  0.7933 -1.2848 -0.0409
14406TIP3   OH264708   0.697   6.635   2.708 -0.0871  0.7015  0.3492
14406TIP3    H164709   0.757   6.674   2.644 -1.6509 -0.2847 -1.7620
14406TIP3    H264710   0.739   6.554   2.735 -0.3807  0.0882 -1.0098
14407TIP3   OH264711   4.510   6.510   5.468  0.0363  0.3584  0.1827
14407TIP3    H164712   4.513   6.549   5.556 -0.0062 -0.0025  0.3464
14407TIP3    H264713   4.600   6.484   5.450 -0.0966 -0.3043  0.4567
14408TIP3   OH264714   1.534   1.699   5.998  0.0500  0.5315  0.0931
14408TIP3    H164715   1.484   1.689   5.917  0.9554  0.2536 -0.4466
14408TIP3    H264716   1.592   1.773   5.981  0.0979  0.6025  0.5623
14409TIP3   OH264717   5.003   0.067   6.438  0.2958  0.0640 -0.2858
14409TIP3    H164718   4.958   0.034   6.515  0.1108 -1.6939 -1.1346
14409TIP3    H264719   4.953   0.034   6.364 -0.7497  3.4385 -1.1969
14410TIP3   OH264720   4.039   2.248  14.582 -0.1456 -0.0031 -0.1222
14410TIP3    H164721   4.088   2.302  14.644 -1.4346  1.4624 -0.3546
14410TIP3    H264722   4.005   2.176  14.635 -1.0182  1.0960  0.8458
14411TIP3   OH264723   4.032   5.929  16.579 -0.0759  0.3601  0.2310
14411TIP3    H164724   3.940   5.942  16.553 -0.1210 -0.2140  0.0963
14411TIP3    H264725   4.037   5.837  16.605  0.7679  0.0171 -1.0761
14412TIP3   OH264726   4.973   1.372   4.126 -0.6437  0.3710 -0.1125
14412TIP3    H164727   4.909   1.442   4.116 -1.6521 -0.5649 -0.3194
14412TIP3    H264728   4.936   1.298   4.077  2.1054  0.7815 -2.9562
14413TIP3   OH264729   1.169   0.352   5.630 -0.1012  0.0127 -0.4642
14413TIP3    H164730   1.159   0.436   5.675  0.7385 -0.5413  0.7724
14413TIP3    H264731   1.132   0.367   5.543 -1.1635  1.2811  0.1875
14414TIP3   OH264732   1.971   4.833  14.945 -0.0530  0.2342  0.3499
14414TIP3    H164733   2.065   4.822  14.957  0.0222 -0.0073 -0.4304
14414TIP3    H264734   1.945   4.896  15.012  0.4804 -0.5059  1.2552
14415TIP3   OH264735   3.498   3.694   0.882  0.2453 -0.0249 -0.0495
14415TIP3    H164736   3.566   3.681   0.948  0.4977  1.1632 -0.0539
14415TIP3    H264737   3.541   3.743   0.812 -0.7822  1.3710  0.2705
14416TIP3   OH264738   6.445   2.203  12.651 -0.7422 -0.2372 -0.5837
14416TIP3    H164739   6.539   2.190  12.651 -0.9118 -1.6077  0.2211
14416TIP3    H264740   6.409   2.114  12.649 -2.0122  0.2115  1.4733
14417TIP3   OH264741   6.311   1.461  16.150 -0.4656  0.3141  0.4358
14417TIP3    H164742   6.395   1.465  16.104 -0.6225  0.9563  0.2003
14417TIP3    H264743   6.332   1.482  16.240 -0.3087  0.0468  0.4623
14418TIP3   OH264744   6.670   0.773   2.278  0.1630  0.6078  0.8970
14418TIP3    H164745   6.723   0.694   2.270  0.9236  0.7719  3.6181
14418TIP3    H264746   6.728   0.844   2.247 -0.3848  0.1652 -1.1739
14419TIP3   OH264747   2.622   6.496  12.621 -0.8565 -0.1142 -0.1635
14419TIP3    H164748   2.568   6.575  12.631 -1.0615 -0.1917 -0.6403
14419TIP3    H264749   2.585   6.451  12.545  0.2333  0.1089 -0.8394
14420TIP3   OH264750   3.897   1.812  15.834  0.2360 -0.0224  0.1476
14420TIP3    H164751   3.891   1.877  15.764  3.3387 -1.2577 -1.3599
14420TIP3    H264752   3.814   1.765  15.829  0.1797  0.2537 -2.3860
14421TIP3   OH264753   3.629   5.817   5.895  0.3126 -0.2069  0.3819
14421TIP3    H164754   3.632   5.844   5.987 -0.3534  1.8245 -0.1562
14421TIP3    H264755   3.540   5.783   5.883 -0.1322  1.0327  0.1043
14422TIP3   OH264756   6.254   0.471  15.909  0.4682  0.3646  1.0646
14422TIP3    H164757   6.161   0.490  15.896  0.1471 -0.9869  1.2787
14422TIP3    H264758   6.298   0.511  15.834 -0.5179 -0.7802 -0.1427
14423TIP3   OH264759   2.028   3.377  12.144  0.0518 -0.0862 -0.1536
14423TIP3    H164760   2.042   3.456  12.091  0.4974 -0.8361 -1.1578
14423TIP3    H264761   2.055   3.403  12.232  0.5190  0.7859 -0.5473
14424TIP3   OH264762   0.672   2.300  14.784  0.4995 -0.1262  0.3588
14424TIP3    H164763   0.617   2.379  14.776  2.3348  0.9450 -2.4427
14424TIP3    H264764   0.613   2.228  14.763  0.0329  1.0089 -2.5500
14425TIP3   OH264765   0.845   6.030   0.811 -0.1996 -0.3517 -0.1139
14425TIP3    H164766   0.844   6.060   0.902  3.1173 -0.5759  0.0633
14425TIP3    H264767   0.836   6.110   0.759  0.6339  0.1083  0.4253
14426TIP3   OH264768   0.528   0.606   4.510  0.4598 -0.0671  0.1681
14426TIP3    H164769   0.452   0.647   4.550  0.4049 -0.7266  0.7516
14426TIP3    H264770   0.539   0.524   4.557 -0.6843 -1.7184 -2.3593
14427TIP3   OH264771   0.171   6.380   1.084  0.4531 -0.0306 -0.4492
14427TIP3    H164772   0.165   6.475   1.071 -0.5035  0.0653  0.6519
14427TIP3    H264773   0.232   6.350   1.015 -1.0383  1.0482 -2.2815
14428TIP3   OH264774   5.615   0.007  10.387 -0.0480 -0.1593 -0.1267
14428TIP3    H164775   5.559  -0.030  10.319  0.1995  0.5789 -0.7422
14428TIP3    H264776   5.653  -0.069  10.431 -0.8408 -0.6478 -0.2870
14429TIP3   OH264777   0.965   0.130   6.054 -0.0261 -0.5483  0.3858
14429TIP3    H164778   0.954   0.131   6.149 -0.2514 -1.9483  0.3824
14429TIP3    H264779   0.886   0.174   6.021 -0.3020 -0.7045  0.8228
14430TIP3   OH264780   6.394   2.474  13.761 -0.2391 -0.3204 -0.1549
14430TIP3    H164781   6.459   2.411  13.730 -0.7182 -1.4505  1.0958
14430TIP3    H264782   6.314   2.423  13.774 -1.4556  1.0926 -1.8609
14431TIP3   OH264783   1.185   0.271  12.204 -0.1609 -0.3419  0.1841
14431TIP3    H164784   1.117   0.281  12.138  0.1469  0.6079 -0.0094
14431TIP3    H264785   1.218   0.360  12.218  2.1890 -0.9707 -0.9711
14432TIP3   OH264786   0.179   0.168   5.742 -0.0274  0.3316 -0.2631
14432TIP3    H164787   0.247   0.235   5.743  0.5967 -0.2866 -0.5358
14432TIP3    H264788   0.224   0.087   5.765 -0.9449  0.1469  0.9696
14433TIP3   OH264789   3.309   6.286   0.658 -0.4622  0.0947 -0.0674
14433TIP3    H164790   3.308   6.213   0.595 -2.3118 -1.5445  1.7850
14433TIP3    H264791   3.242   6.346   0.626  0.0353  0.2723 -0.7901
14434TIP3   OH264792   6.673   0.924   2.791  1.0660 -0.1711 -0.2949
14434TIP3    H164793   6.585   0.905   2.824  0.9180 -1.4332 -1.3714
14434TIP3    H264794   6.662   0.931   2.696  1.7119  2.1191 -0.2280
14435TIP3   OH264795   3.279   5.921  15.476  0.1807  0.3491  0.4485
14435TIP3    H164796   3.291   5.888  15.565 -1.2473 -0.9917  0.1686
14435TIP3    H264797   3.311   5.850  15.420 -1.0929  0.2150 -0.1278
14436TIP3   OH264798   6.150   6.817  17.175  0.1323 -0.6585  0.0001
14436TIP3    H164799   6.082   6.861  17.227  0.6879  0.0689  0.1287
14436TIP3    H264800   6.121   6.828  17.084  1.4494  2.1388 -0.1620
14437TIP3   OH264801   1.030   5.715  17.118  0.0524 -0.2267 -0.0143
14437TIP3    H164802   0.964   5.779  17.144 -1.3912 -1.5112 -0.4525
14437TIP3    H264803   1.020   5.644  17.181  1.2507 -0.3012  0.1064
14438TIP3   OH264804   4.078   5.364  15.519  0.7663 -0.5447  0.2199
14438TIP3    H164805   3.991   5.339  15.549  0.6895  2.2040  2.5444
14438TIP3    H264806   4.062   5.425  15.447  0.8132 -0.9002 -0.0958
14439TIP3   OH264807   5.028   0.697   3.956 -0.0724  0.0311 -0.0168
14439TIP3    H164808   4.975   0.630   3.914 -2.6218  1.0232  1.4712
14439TIP3    H264809   5.054   0.756   3.885 -1.3500 -0.2325 -0.7124
14440TIP3   OH264810   2.687   6.739   4.442  0.0949 -0.1319 -0.4570
14440TIP3    H164811   2.610   6.774   4.397  0.5621  0.6856 -0.6226
14440TIP3    H264812   2.732   6.816   4.476  0.5982 -0.6412  0.0325
14441TIP3   OH264813   2.499   1.784  12.013 -0.3388  0.6728 -0.1330
14441TIP3    H164814   2.561   1.856  12.001  0.3246  0.2928  1.0091
14441TIP3    H264815   2.470   1.763  11.924  0.6664  1.2931 -0.6106
14442TIP3   OH264816   4.863   5.529  16.694  0.3860  0.4776 -0.1313
14442TIP3    H164817   4.910   5.493  16.619 -0.9535  0.4955 -0.9941
14442TIP3    H264818   4.792   5.466  16.711  2.2510 -0.9520  2.8298
14443TIP3   OH264819   2.434   5.677   4.647  0.3572  0.0135 -0.2130
14443TIP3    H164820   2.460   5.728   4.724  0.5945 -0.8852  0.3219
14443TIP3    H264821   2.514   5.633   4.619  0.3709  0.7371 -1.2812
14444TIP3   OH264822   5.426   4.199   0.195  0.1855  0.5437 -0.2256
14444TIP3    H164823   5.470   4.140   0.134  0.9013  0.9883 -0.1456
14444TIP3    H264824   5.378   4.141   0.254  0.6639  0.0491 -0.3152
14445TIP3   OH264825   3.871   6.109  15.463  0.0270 -0.3918 -0.2786
14445TIP3    H164826   3.834   6.133  15.548  1.1472  0.7605 -0.0995
14445TIP3    H264827   3.907   6.191  15.428  0.2930 -1.0089 -1.5037
14446TIP3   OH264828   3.545   5.283   5.593 -0.4811  0.0256  0.7079
14446TIP3    H164829   3.625   5.321   5.556 -0.1340 -1.7118 -0.3963
14446TIP3    H264830   3.477   5.348   5.576 -0.1914 -0.4415 -2.4208
14447TIP3   OH264831   5.493   0.495   4.293  0.2845  0.3488 -0.3407
14447TIP3    H164832   5.566   0.550   4.321 -0.4120  0.2984  1.6722
14447TIP3    H264833   5.459   0.457   4.374 -2.2860  0.7595 -1.1678
14448TIP3   OH264834   5.601   5.330  16.433  0.2728 -0.5731  0.0298
14448TIP3    H164835   5.534   5.387  16.394 -1.0785 -1.7132  0.6734
14448TIP3    H264836   5.684   5.364  16.397 -0.7853 -0.4655 -2.4438
14449TIP3   OH264837   5.138   5.805   6.246  0.7224  0.0909  0.2607
14449TIP3    H164838   5.053   5.849   6.242  1.3567  1.2474 -0.8395
14449TIP3    H264839   5.193   5.863   6.298  2.3250  2.0065 -3.3753
14450TIP3   OH264840   5.143   1.787  11.909 -0.2323 -0.8232 -0.5852
14450TIP3    H164841   5.199   1.729  11.961  1.6111 -0.0396 -1.6514
14450TIP3    H264842   5.184   1.873  11.917 -2.2510  0.1198 -0.0231
14451TIP3   OH264843   4.313   3.455   6.628  0.1731 -0.3434  0.0537
14451TIP3    H164844   4.248   3.396   6.666 -0.0913  0.7053  1.2903
14451TIP3    H264845   4.319   3.429   6.537 -1.7753 -0.6631 -0.0062
14452TIP3   OH264846   2.434   4.827  11.327 -0.3252 -0.0918  0.1696
14452TIP3    H164847   2.484   4.816  11.407 -1.3742 -0.4109  0.7902
14452TIP3    H264848   2.483   4.892  11.277  1.2545 -1.1723  0.3002
14453TIP3   OH264849   5.277   4.989   4.975 -0.6272 -0.7686  0.4511
14453TIP3    H164850   5.294   4.895   4.973 -1.3504 -0.9432  2.0788
14453TIP3    H264851   5.267   5.011   5.067  1.7856  1.3557  0.2757
14454TIP3   OH264852   5.315   4.429  13.907  0.4208 -0.2625  0.2494
14454TIP3    H164853   5.346   4.501  13.962 -0.9473  0.0352  0.6370
14454TIP3    H264854   5.253   4.470  13.846  1.2328 -0.7483 -0.9317
14455TIP3   OH264855   5.688   6.604   3.715 -0.1013  0.0671 -0.6496
14455TIP3    H164856   5.694   6.666   3.789  1.0282 -0.7925 -0.0031
14455TIP3    H264857   5.705   6.657   3.638  0.1249  0.7108 -0.1638
14456TIP3   OH264858   2.111   0.251   3.071  0.0748 -0.1600  0.3707
14456TIP3    H164859   2.033   0.242   3.017  0.4699 -2.0298  0.0592
14456TIP3    H264860   2.169   0.180   3.041  0.8859 -0.3288  2.2579
14457TIP3   OH264861   1.901   3.691   0.774  0.1753 -0.1163  0.2293
14457TIP3    H164862   1.948   3.761   0.729  0.7274  0.1128  1.1509
14457TIP3    H264863   1.967   3.623   0.786  0.4503  0.4487  2.0723
14458TIP3   OH264864   4.859   1.245  13.290  0.1145 -0.5485 -0.1371
14458TIP3    H164865   4.861   1.326  13.342 -0.0400 -0.5280 -0.1622
14458TIP3    H264866   4.778   1.202  13.317 -0.0803 -0.4298 -0.5260
14459TIP3   OH264867   0.510   3.049   5.090 -0.0419 -0.6832  0.5253
14459TIP3    H164868   0.498   2.954   5.079 -1.6876 -0.4823  0.4434
14459TIP3    H264869   0.596   3.058   5.130  1.2757 -2.0761 -1.8935
14460TIP3   OH264870   5.146   4.484   4.381 -0.2336  0.4619 -0.5133
14460TIP3    H164871   5.182   4.551   4.439  0.4807 -0.8492  0.6001
14460TIP3    H264872   5.214   4.469   4.316  0.0169  0.1191 -0.1754
14461TIP3   OH264873   2.113   2.202  16.715 -0.2971  0.2783 -0.0219
14461TIP3    H164874   2.151   2.260  16.649 -0.7188 -0.1682 -0.6628
14461TIP3    H264875   2.176   2.204  16.788  0.7962 -0.1859 -0.9276
14462TIP3   OH264876   5.488   3.622  13.438 -0.5300  0.5290  0.4209
14462TIP3    H164877   5.482   3.616  13.533 -2.3030 -0.0413  0.2780
14462TIP3    H264878   5.438   3.701  13.416  0.5497  1.1245  0.0042
14463TIP3   OH264879   0.297   0.793   1.739  0.4741  0.1778 -0.1238
14463TIP3    H164880   0.262   0.708   1.712  0.6543  0.3449 -0.8952
14463TIP3    H264881   0.225   0.855   1.724  0.6843  0.3243 -0.5491
14464TIP3   OH264882   2.414   4.328   2.699 -0.1059 -0.1850  0.3304
14464TIP3    H164883   2.376   4.412   2.673 -0.9125 -0.1946  1.4172
14464TIP3    H264884   2.351   4.292   2.762  0.8980 -0.9800  0.8982
14465TIP3   OH264885   5.845   0.689   3.522 -0.2894  0.1651 -0.1684
14465TIP3    H164886   5.887   0.682   3.436  0.4511  1.2517  0.0868
14465TIP3    H264887   5.796   0.608   3.532  1.0514 -0.7395 -0.8568
14466TIP3   OH264888   0.076   1.528   2.469 -0.0215  0.1354 -0.0620
14466TIP3    H164889   0.156   1.525   2.522 -0.3350 -1.5371  0.3294
14466TIP3    H264890   0.107   1.544   2.380  0.7829 -0.7919  0.0441
14467TIP3   OH264891   4.715   0.723  16.416  0.2044 -0.1681  0.6060
14467TIP3    H164892   4.789   0.779  16.438 -0.2990  0.2163  1.3515
14467TIP3    H264893   4.751   0.634  16.416  0.7812  0.0640  0.4225
14468TIP3   OH264894   3.296   4.642  11.637  0.5168 -0.2088 -0.0878
14468TIP3    H164895   3.331   4.691  11.562 -0.9073 -1.9247 -1.9503
14468TIP3    H264896   3.247   4.708  11.687  0.9761  0.8550 -1.0012
14469TIP3   OH264897   2.252   0.708   6.278  0.7456 -0.0608  0.2591
14469TIP3    H164898   2.161   0.697   6.305  0.6369  0.0640 -0.0507
14469TIP3    H264899   2.297   0.631   6.312  0.4090 -0.4177 -0.0927
14470TIP3   OH264900   0.993   4.249   5.924 -0.5609  0.0957  0.2185
14470TIP3    H164901   0.917   4.227   5.978 -0.9554 -1.2697 -0.8648
14470TIP3    H264902   0.959   4.252   5.835  0.9316 -2.1612 -0.4854
14471TIP3   OH264903   5.526   4.228   5.152 -0.4174 -0.0330 -0.7546
14471TIP3    H164904   5.485   4.178   5.081  0.0483  0.6127 -1.4980
14471TIP3    H264905   5.593   4.281   5.108  0.2580 -0.0388  0.2485
14472TIP3   OH264906   0.977   2.020   2.569  0.3609  0.0758  0.0529
14472TIP3    H164907   0.904   1.994   2.513  0.8255 -3.0289  0.8339
14472TIP3    H264908   0.947   2.004   2.658  1.3489  0.5266  0.4819
14473TIP3   OH264909   3.319   0.388   2.691  0.0397 -0.1700  0.2942
14473TIP3    H164910   3.289   0.310   2.737  2.2334 -0.0051  2.1093
14473TIP3    H264911   3.414   0.381   2.691  0.2504  2.1581 -0.1487
14474TIP3   OH264912   5.573   5.693   0.817  0.2863 -0.7337  0.1926
14474TIP3    H164913   5.569   5.626   0.750  0.9281 -2.1702  1.5630
14474TIP3    H264914   5.640   5.754   0.786 -0.7413 -0.3699 -1.3500
14475TIP3   OH264915   1.189   3.935   2.562  0.0066 -0.3000  0.5065
14475TIP3    H164916   1.199   3.852   2.517 -0.7373  0.2420 -0.6967
14475TIP3    H264917   1.273   3.979   2.552 -1.2255  1.3409 -3.5466
14476TIP3   OH264918   1.754   6.745  16.359 -0.7804  0.1396  0.2517
14476TIP3    H164919   1.762   6.654  16.331 -0.4873  0.3768 -0.4492
14476TIP3    H264920   1.794   6.747  16.446 -3.6892 -1.0589  1.6766
14477TIP3   OH264921   6.123   2.391  16.304 -0.1663  0.3358 -0.2427
14477TIP3    H164922   6.163   2.396  16.218  0.9090 -1.1046  0.1561
14477TIP3    H264923   6.196   2.396  16.366 -0.8122  0.1940  0.5476
14478TIP3   OH264924   1.661   5.137   0.862  0.4985 -0.3864 -0.2368
14478TIP3    H164925   1.685   5.211   0.917  0.2276 -1.6521  1.6029
14478TIP3    H264926   1.718   5.065   0.891 -1.5820 -1.8500  0.3107
14479TIP3   OH264927   2.301   6.686   5.718 -0.4870 -0.7482  0.1664
14479TIP3    H164928   2.340   6.748   5.780  0.2569  2.7115 -3.5882
14479TIP3    H264929   2.208   6.711   5.716 -0.0855  0.7145 -1.7598
14480TIP3   OH264930   6.255   6.243   3.358  0.2903  0.1798 -0.0419
14480TIP3    H164931   6.188   6.254   3.425 -1.5425  0.4357 -1.8580
14480TIP3    H264932   6.259   6.327   3.314  0.4115 -0.4176 -1.1932
14481TIP3   OH264933   5.408   1.497   5.303 -0.5956  0.8808 -0.3206
14481TIP3    H164934   5.360   1.572   5.336 -1.6903  0.4089 -0.8047
14481TIP3    H264935   5.457   1.463   5.378 -1.1987  1.2341  0.2261
14482TIP3   OH264936   4.786   0.277   2.428  0.0263 -0.2547 -0.1334
14482TIP3    H164937   4.745   0.205   2.380  1.9455 -0.3865 -1.6328
14482TIP3    H264938   4.718   0.344   2.435 -2.1498 -2.5752  2.2028
14483TIP3   OH264939   6.170   4.952   0.474 -0.3458 -0.2993  0.1844
14483TIP3    H164940   6.080   4.936   0.505 -0.4844 -0.1323 -0.1324
14483TIP3    H264941   6.160   4.967   0.380 -0.2875  2.3261  0.5794
14484TIP3   OH264942   2.104   0.469  10.506  0.7045  0.1680  0.0387
14484TIP3    H164943   2.134   0.560  10.503  1.0564  0.1103  1.3405
14484TIP3    H264944   2.014   0.475  10.536  0.2227  0.1790 -1.3957
14485TIP3   OH264945   5.855   0.657   4.417  0.4139 -0.1648 -0.0909
14485TIP3    H164946   5.762   0.650   4.398 -0.3348 -1.1927  3.4976
14485TIP3    H264947   5.892   0.572   4.392  0.0563 -0.3749  0.0981
14486TIP3   OH264948   6.100   6.102  15.424  0.2359 -0.1615 -0.3285
14486TIP3    H164949   6.192   6.115  15.402  0.5050 -1.9964 -0.3758
14486TIP3    H264950   6.095   6.012  15.456 -1.2379  0.4646  1.3263
14487TIP3   OH264951   2.395   1.548   6.736  0.0923  0.1313  0.2562
14487TIP3    H164952   2.331   1.521   6.671 -0.2230 -0.5935  0.8628
14487TIP3    H264953   2.358   1.520   6.820  1.6171 -1.1052  0.5260
14488TIP3   OH264954   0.115   3.984  12.839 -0.8687 -0.0862  0.1338
14488TIP3    H164955   0.138   4.060  12.893  1.0986  0.3034 -1.2430
14488TIP3    H264956   0.039   4.014  12.788  0.5312  1.3138 -1.1553
14489TIP3   OH264957   6.208   1.244   2.141 -0.9097 -0.2867 -0.5844
14489TIP3    H164958   6.254   1.304   2.082 -0.3868 -0.4309 -0.3228
14489TIP3    H264959   6.236   1.270   2.228 -2.1618  0.3290 -0.3518
14490TIP3   OH264960   2.847   2.329   2.909  0.1219 -0.1187  0.4222
14490TIP3    H164961   2.937   2.322   2.941  0.4175  0.5500 -0.2517
14490TIP3    H264962   2.804   2.250   2.941  1.5581 -1.5766 -1.1176
14491TIP3   OH264963   4.298   1.911  10.743  0.0400 -0.0345  0.3829
14491TIP3    H164964   4.353   1.986  10.766  0.8929 -0.3612 -0.5622
14491TIP3    H264965   4.270   1.929  10.653  0.8397 -1.1905 -0.1097
14492TIP3   OH264966   2.354   1.501   1.402 -0.0899  0.1799 -0.0045
14492TIP3    H164967   2.303   1.521   1.481 -0.4137  0.1249 -0.1992
14492TIP3    H264968   2.420   1.570   1.399 -0.3712  0.4575  0.0612
14493TIP3   OH264969   1.161   0.565  17.267  0.1197  0.2091 -0.3940
14493TIP3    H164970   1.139   0.554  17.360 -1.2617 -1.3784 -0.8785
14493TIP3    H264971   1.122   0.649  17.244  0.8598  0.8293  0.5771
14494TIP3   OH264972   1.108   4.576  12.140  0.2557 -0.1002  0.0323
14494TIP3    H164973   1.166   4.584  12.216 -0.1355 -1.1254  0.4368
14494TIP3    H264974   1.069   4.663  12.131  2.0203  0.6922 -0.3843
14495TIP3   OH264975   0.300   4.201  12.001 -0.0208  0.5340  0.3770
14495TIP3    H164976   0.335   4.213  12.089 -0.2841 -0.9877  0.7025
14495TIP3    H264977   0.255   4.116  12.004  1.8557 -0.6105 -1.8162
14496TIP3   OH264978   1.743   5.103   2.290  0.1050  0.5527 -0.0252
14496TIP3    H164979   1.829   5.089   2.330  0.1814 -0.6342 -0.5724
14496TIP3    H264980   1.746   5.051   2.210 -0.0893  2.8029 -1.5277
14497TIP3   OH264981   0.082   0.866  13.543  0.0697 -0.2703  0.2649
14497TIP3    H164982   0.084   0.940  13.603 -0.5028  0.1508 -0.2319
14497TIP3    H264983   0.147   0.805  13.578  0.7149  0.5669  0.5312
14498TIP3   OH264984   6.222   5.194  11.933  0.0068 -0.5076  0.6072
14498TIP3    H164985   6.196   5.245  11.856 -1.5028 -0.2092  1.2998
14498TIP3    H264986   6.210   5.103  11.906 -1.4426 -0.3831  0.7934
14499TIP3   OH264987   4.104   2.547   4.741  0.4051  0.2220  0.3085
14499TIP3    H164988   4.091   2.622   4.684 -2.5116  0.6261  1.4328
14499TIP3    H264989   4.080   2.471   4.688 -1.8275  0.5574  0.7979
14500TIP3   OH264990   6.239   3.080   1.556  0.5009  0.2632 -0.4270
14500TIP3    H164991   6.178   3.051   1.488 -0.8823 -0.3092  1.0307
14500TIP3    H264992   6.322   3.038   1.534  0.2941  0.7517 -2.2157
14501TIP3   OH264993   4.111   2.574  16.491 -0.7269 -0.4097  0.2699
14501TIP3    H164994   4.070   2.647  16.537  2.3778  0.9971  0.9950
14501TIP3    H264995   4.106   2.598  16.398 -2.3154 -0.6847  0.2867
14502TIP3   OH264996   2.742   4.304   0.072  0.3153  0.2362 -0.7123
14502TIP3    H164997   2.657   4.261   0.070  0.1818  0.4861 -0.3682
14502TIP3    H264998   2.745   4.350   0.156  0.3631  1.0814 -1.1653
14503TIP3   OH264999   5.061   6.533  13.794  0.2153 -0.2318  0.3290
14503TIP3    H165000   5.047   6.600  13.727 -0.3772 -0.7536 -0.0777
14503TIP3    H265001   4.995   6.467  13.776  0.2111 -0.4963  1.2895
14504TIP3   OH265002   2.006   2.081  14.932 -1.0829 -0.6551 -0.4258
14504TIP3    H165003   1.930   2.093  14.988  0.2122 -0.6815  1.3762
14504TIP3    H265004   2.006   1.988  14.911 -1.8647 -0.5495 -0.9367
14505TIP3   OH265005   4.477   0.813  16.950 -0.1355 -0.4770 -0.2075
14505TIP3    H165006   4.406   0.753  16.974  0.2750 -0.9932 -0.2725
14505TIP3    H265007   4.436   0.899  16.950 -0.1633 -0.4244  2.4601
14506TIP3   OH265008   6.782   2.852  13.977 -0.2422  0.5001  0.5095
14506TIP3    H165009   6.742   2.772  13.943  2.7863 -0.8276 -0.0617
14506TIP3    H265010   6.763   2.918  13.911  0.7135 -0.7294 -1.0460
14507TIP3   OH265011   5.946   0.198   0.497 -0.6987  0.0238  0.0200
14507TIP3    H165012   6.025   0.238   0.533 -0.8975 -0.7494  1.3667
14507TIP3    H265013   5.957   0.104   0.515 -1.3720 -0.2292 -0.8726
14508TIP3   OH265014   3.217   1.009   4.187 -0.3020 -0.4147 -0.3262
14508TIP3    H165015   3.275   0.995   4.112  0.0466  0.7710 -0.3015
14508TIP3    H265016   3.231   1.101   4.210 -0.7434 -0.6463  0.9063
14509TIP3   OH265017   1.901   2.977  13.943 -0.0021  0.0988 -0.2891
14509TIP3    H165018   1.959   2.902  13.930  0.8100  0.6743 -0.0383
14509TIP3    H265019   1.902   2.992  14.037 -0.4622  0.1877 -0.2979
14510TIP3   OH265020   4.210   6.205  14.842 -1.0376  0.8651 -1.0437
14510TIP3    H165021   4.123   6.189  14.877 -0.5922 -0.2291 -0.4051
14510TIP3    H265022   4.228   6.129  14.787  0.1783  0.2245  0.1826
14511TIP3   OH265023   1.921   2.640  12.487 -0.3702  0.3398  0.3658
14511TIP3    H165024   2.016   2.646  12.492 -0.2525  1.0214 -2.0270
14511TIP3    H265025   1.903   2.546  12.494  0.6164  0.0490 -0.8446
14512TIP3   OH265026   1.832   3.828  14.234 -0.1616 -0.6173 -0.1639
14512TIP3    H165027   1.905   3.866  14.185  0.7028 -0.8996  0.8630
14512TIP3    H265028   1.867   3.816  14.322 -1.1227 -1.7280  0.0800
14513TIP3   OH265029   6.656   0.342   4.734 -0.2730 -0.5558 -0.2809
14513TIP3    H165030   6.664   0.249   4.714 -0.1123 -0.4116 -0.8797
14513TIP3    H265031   6.581   0.348   4.793 -0.1314 -1.0925 -0.0422
14514TIP3   OH265032   6.759   6.003   0.534 -0.4071 -0.2886  0.3209
14514TIP3    H165033   6.736   6.054   0.612 -0.8140 -0.7114  0.4793
14514TIP3    H265034   6.681   5.951   0.516 -0.2393 -0.3402 -0.2542
14515TIP3   OH265035   6.714   4.503   2.759 -0.2275  0.1007  0.0788
14515TIP3    H165036   6.678   4.487   2.672 -1.7963  1.3442  0.4920
14515TIP3    H265037   6.646   4.473   2.820  1.2365 -1.6674  0.9301
14516TIP3   OH265038   0.348   2.464  12.266  0.3567 -0.3564  0.1133
14516TIP3    H165039   0.430   2.418  12.284  1.9684  2.3422 -0.0489
14516TIP3    H265040   0.300   2.405  12.208  2.3938 -1.7909 -0.1841
14517TIP3   OH265041   3.368   6.007   2.409 -0.2072  0.0761 -0.2605
14517TIP3    H165042   3.445   5.955   2.429  0.8321  1.1069 -1.4379
14517TIP3    H265043   3.400   6.098   2.407 -1.6386  0.6054  0.1752
14518TIP3   OH265044   5.876   6.155  13.225 -0.2216 -0.1132  0.1919
14518TIP3    H165045   5.960   6.109  13.216 -0.6737 -1.5144  2.6908
14518TIP3    H265046   5.899   6.248  13.222  1.1717 -0.4821 -1.1243
14519TIP3   OH265047   5.624   4.066  14.065  0.0484 -0.0639  0.1429
14519TIP3    H165048   5.616   4.125  14.139  0.5544 -0.1695  0.2904
14519TIP3    H265049   5.583   3.985  14.094  1.9389 -0.7483  1.0485
14520TIP3   OH265050   5.223   6.383   0.950 -0.0998  0.2263  0.2924
14520TIP3    H165051   5.223   6.416   0.860 -1.3932  1.0557  0.5790
14520TIP3    H265052   5.206   6.460   1.004  0.3197 -0.3234  1.2269
14521TIP3   OH265053   4.247   0.183  12.726 -0.3454 -0.2643  0.0918
14521TIP3    H165054   4.212   0.271  12.710  1.3529  0.3121 -0.6295
14521TIP3    H265055   4.293   0.191  12.810 -0.7203 -0.6210  0.3284
14522TIP3   OH265056   5.507   1.999  11.007 -0.2341  0.1668  0.6666
14522TIP3    H165057   5.412   2.012  11.008 -0.6972 -3.0131  1.5305
14522TIP3    H265058   5.536   2.026  11.094 -0.3715  0.8011  0.5203
14523TIP3   OH265059   5.917   5.368  10.902 -0.3656  0.0812  0.5532
14523TIP3    H165060   5.837   5.380  10.850  0.0275 -1.6739 -0.4910
14523TIP3    H265061   5.931   5.273  10.904  1.0805  0.2950  1.6631
14524TIP3   OH265062   4.239   4.539  10.310  0.3171 -0.3918 -0.0593
14524TIP3    H165063   4.329   4.513  10.288 -0.4279 -1.9621 -1.3659
14524TIP3    H265064   4.216   4.603  10.243  0.9681  1.1477  1.1649
14525TIP3   OH265065   4.491   4.701   3.673  0.2444  1.3494 -0.8976
14525TIP3    H165066   4.575   4.731   3.638  0.3426  0.7267 -1.2018
14525TIP3    H265067   4.499   4.606   3.676 -0.0686  1.3441  0.0590
14526TIP3   OH265068   6.144   2.212   0.020 -0.4084  0.5868  0.1127
14526TIP3    H165069   6.192   2.276  -0.033  0.0034  0.6543  0.5691
14526TIP3    H265070   6.061   2.200  -0.027  0.2882  0.0169 -0.9897
14527TIP3   OH265071   3.265   5.456   5.867 -0.2962 -1.6951 -0.2661
14527TIP3    H165072   3.239   5.455   5.959 -1.3955  0.5088 -0.5037
14527TIP3    H265073   3.360   5.463   5.869 -0.4638  0.7827  0.7619
14528TIP3   OH265074   1.779   2.568   5.312  0.4372  0.6086  0.2723
14528TIP3    H165075   1.820   2.491   5.271 -1.5134 -0.3296  0.0341
14528TIP3    H265076   1.732   2.532   5.388  0.1646  1.6821  0.6122
14529TIP3   OH265077   1.813   0.001   1.154 -0.2386 -0.0616  0.3236
14529TIP3    H165078   1.847  -0.073   1.204  1.0309 -0.0154 -0.4528
14529TIP3    H265079   1.792   0.068   1.220  1.7652  0.1411  0.7807
14530TIP3   OH265080   3.399   2.464  12.523  0.4801 -0.0920  1.0364
14530TIP3    H165081   3.363   2.448  12.436 -0.8036  0.3394  1.4736
14530TIP3    H265082   3.430   2.555  12.520  2.5330 -0.7850  0.3343
14531TIP3   OH265083   4.822   4.458   6.321  0.1053  0.3689  0.1952
14531TIP3    H165084   4.871   4.385   6.280  1.6033  0.5238  1.6566
14531TIP3    H265085   4.773   4.417   6.392 -1.2377  0.3628 -0.7159
14532TIP3   OH265086   5.718   0.496   3.081  0.4428 -0.1986  0.2851
14532TIP3    H165087   5.628   0.504   3.113 -0.3192  1.8036 -2.1579
14532TIP3    H265088   5.727   0.404   3.057 -1.3034 -0.2461 -0.2972
14533TIP3   OH265089   4.795   2.408   5.241  0.6596 -0.1778 -0.0508
14533TIP3    H165090   4.798   2.350   5.317  0.4709  1.0828  0.9334
14533TIP3    H265091   4.767   2.351   5.169  3.1682 -1.9057  0.3000
14534TIP3   OH265092   0.976   5.067  16.225 -0.3110  0.2956  0.4837
14534TIP3    H165093   1.046   5.079  16.289 -0.3356  0.5708  0.4589
14534TIP3    H265094   0.973   4.972  16.210  1.5703  0.4807 -1.2247
14535TIP3   OH265095   4.246   3.204   5.505  0.7799 -0.2345 -0.0046
14535TIP3    H165096   4.166   3.223   5.554  0.7453 -0.3260 -0.0268
14535TIP3    H265097   4.315   3.245   5.557  0.5459  1.2235 -0.8136
14536TIP3   OH265098   3.103   0.124  11.250 -0.2845 -0.0905 -0.3488
14536TIP3    H165099   3.134   0.036  11.228  1.3337  0.3764 -0.0662
14536TIP3    H265100   3.106   0.127  11.346 -0.3832  0.2483 -0.3574
14537TIP3   OH265101   6.674   0.103  16.183  0.2159 -1.0990 -0.1060
14537TIP3    H165102   6.588   0.080  16.218  0.1508  0.2823  0.6429
14537TIP3    H265103   6.736   0.079  16.252  0.3139 -0.7608 -0.0784
14538TIP3   OH265104   0.161   1.264  11.479  0.1657 -0.0685  0.3718
14538TIP3    H165105   0.098   1.331  11.506  0.0996 -0.2319  0.6280
14538TIP3    H265106   0.233   1.313  11.440 -0.7100  0.0483 -1.1429
14539TIP3   OH265107   2.058   5.591   6.879 -0.2321  0.4757 -0.0318
14539TIP3    H165108   2.021   5.664   6.830 -0.2529  1.8772  1.9901
14539TIP3    H265109   2.150   5.615   6.892  0.0567 -0.4254 -0.3733
14540TIP3   OH265110   0.376   0.131   2.341  0.4187  0.1087 -0.3161
14540TIP3    H165111   0.418   0.069   2.401 -0.0159 -0.4441 -0.5850
14540TIP3    H265112   0.424   0.120   2.259 -0.1085 -0.3739 -0.5635
14541TIP3   OH265113   3.318   0.131   2.822 -0.2616 -0.0356 -0.0058
14541TIP3    H165114   3.330   0.037   2.834  1.7032 -0.0189 -1.5684
14541TIP3    H265115   3.333   0.168   2.909  0.6631 -1.0345  0.2754
14542TIP3   OH265116   4.275   4.855   5.320  0.0897 -0.1336  0.2469
14542TIP3    H165117   4.324   4.933   5.292 -0.8861 -0.0207 -1.1914
14542TIP3    H265118   4.286   4.793   5.248 -3.3475  0.5464 -0.9154
14543TIP3   OH265119   2.793   1.213   4.424  0.2639 -0.1103  0.4878
14543TIP3    H165120   2.776   1.302   4.453 -1.3174 -0.0515 -0.5430
14543TIP3    H265121   2.756   1.158   4.493  0.1651  0.0251  0.5428
14544TIP3   OH265122   2.863   2.436   0.812  0.5286 -0.3647  0.1040
14544TIP3    H165123   2.891   2.439   0.720  1.7009  2.1391  0.4951
14544TIP3    H265124   2.808   2.513   0.823  1.8532  0.3459  1.9442
14545TIP3   OH265125   4.350   2.565  11.567 -0.2753 -0.0167  0.4765
14545TIP3    H165126   4.353   2.472  11.587 -0.1889 -0.1132  0.0074
14545TIP3    H265127   4.414   2.604  11.627  0.8150 -0.4491 -0.3818
14546TIP3   OH265128   1.110   3.055   3.058 -0.3311 -0.0762 -0.7420
14546TIP3    H165129   1.054   2.977   3.049  1.9180 -1.6745 -1.2073
14546TIP3    H265130   1.055   3.127   3.026 -1.8678 -1.7162 -1.9197
14547TIP3   OH265131   4.793   0.829  13.804  0.6480 -0.6545 -0.2057
14547TIP3    H165132   4.831   0.867  13.883 -1.2027  1.9621 -0.5194
14547TIP3    H265133   4.737   0.758  13.836  2.2827 -1.6342  0.5613
14548TIP3   OH265134   3.784   1.897  16.559 -0.0190  0.1908  0.1477
14548TIP3    H165135   3.855   1.917  16.620 -0.1650  1.5001 -0.1111
14548TIP3    H265136   3.827   1.891  16.474 -0.2112  0.9344 -0.0025
14549TIP3   OH265137   4.242   0.091  15.536 -0.1186 -0.1909 -0.0932
14549TIP3    H165138   4.191   0.124  15.610  0.0431  0.2783 -0.1908
14549TIP3    H265139   4.325   0.062  15.575 -0.4764 -1.0073  0.0734
14550TIP3   OH265140   2.590   5.188   3.766  0.3799  0.5529  0.7219
14550TIP3    H165141   2.685   5.196   3.754  0.6881 -0.4375  2.3210
14550TIP3    H265142   2.579   5.182   3.861 -1.2315  0.0255  0.5048
14551TIP3   OH265143   3.049   5.829  14.866 -0.1294  0.4941 -0.1574
14551TIP3    H165144   3.020   5.837  14.775  2.0876  0.8222 -0.8640
14551TIP3    H265145   3.032   5.737  14.888 -2.5688  0.8958 -0.1977
14552TIP3   OH265146   1.180   5.055  13.458 -0.4716  0.1035 -0.3538
14552TIP3    H165147   1.224   5.063  13.543 -1.8183  1.6102  0.2287
14552TIP3    H265148   1.224   5.119  13.402 -1.2887  0.9646 -0.0302
14553TIP3   OH265149   0.772   5.184  16.712 -0.2364 -0.1195  0.4099
14553TIP3    H165150   0.752   5.172  16.619 -0.0029  0.2218  0.3137
14553TIP3    H265151   0.863   5.159  16.721 -0.6147 -1.3920  0.7883
14554TIP3   OH265152   4.143   2.100  16.036 -0.0371 -0.0682  0.1415
14554TIP3    H165153   4.237   2.087  16.027 -0.0464  0.3203 -0.5004
14554TIP3    H265154   4.118   2.043  16.109  0.9730  1.0828  1.4128
14555TIP3   OH265155   4.070   6.044   3.616 -0.1351  0.3205  0.1828
14555TIP3    H165156   4.115   6.032   3.532  0.5930  1.9128  0.3190
14555TIP3    H265157   3.997   5.982   3.613  0.7375 -0.6940 -1.0040
14556TIP3   OH265158   0.735   5.550  14.280 -0.3615  0.4581  0.1662
14556TIP3    H165159   0.823   5.528  14.250  0.6435  2.8248  1.2643
14556TIP3    H265160   0.701   5.469  14.317  1.4602 -0.4182 -0.0369
14557TIP3   OH265161   4.841   1.596  11.353 -0.3166  0.1983  0.0687
14557TIP3    H165162   4.913   1.654  11.329  0.9646 -1.0673  0.8089
14557TIP3    H265163   4.808   1.562  11.270 -2.0098  3.0306 -0.4998
14558TIP3   OH265164   3.205   4.964  12.318  0.0768 -0.1059 -0.2412
14558TIP3    H165165   3.163   4.971  12.403  0.2950 -1.0733 -0.0538
14558TIP3    H265166   3.188   5.048  12.275  1.4675  1.0646  1.4408
14559TIP3   OH265167   3.276   5.080   5.275  0.1487  0.1332  0.4254
14559TIP3    H165168   3.183   5.058   5.271  0.6782 -2.3393  0.6227
14559TIP3    H265169   3.300   5.100   5.185 -0.8205  1.9487  0.5530
14560TIP3   OH265170   6.682   1.110  14.942 -0.1205 -0.1615  0.4543
14560TIP3    H165171   6.649   1.200  14.941  0.8993  0.2215 -0.6288
14560TIP3    H265172   6.711   1.095  15.032 -1.9450 -0.0344  1.0756
14561TIP3   OH265173   1.691   1.728  14.643  0.0600 -0.4089  0.1327
14561TIP3    H165174   1.719   1.636  14.635  0.1523 -0.4303  0.6560
14561TIP3    H265175   1.769   1.778  14.618 -0.3873 -0.4702 -1.4212
14562TIP3   OH265176   4.249   6.489  16.104 -0.0620 -0.5560  0.0372
14562TIP3    H165177   4.222   6.431  16.033 -0.4755 -0.0450 -0.2296
14562TIP3    H265178   4.317   6.544  16.067  0.9438 -1.4453  0.5414
14563TIP3   OH265179   3.718   2.758   3.279  0.1798  0.0647  0.3571
14563TIP3    H165180   3.633   2.716   3.289  0.4560 -0.5208  0.2611
14563TIP3    H265181   3.778   2.687   3.259  0.2873  0.7703 -1.9329
14564TIP3   OH265182   2.983   3.621   3.048 -0.6762 -0.2208  0.3270
14564TIP3    H165183   2.986   3.546   3.108 -1.0764 -0.3818  0.1515
14564TIP3    H265184   2.938   3.587   2.971  1.7837 -0.6266 -0.9466
14565TIP3   OH265185   5.926   1.808  16.181  0.1649  0.2677 -0.2549
14565TIP3    H165186   5.856   1.783  16.241  0.4960  0.0054  0.0219
14565TIP3    H265187   5.997   1.746  16.199  0.7522  1.0044  0.0062
14566TIP3   OH265188   2.572   1.267  14.587 -0.1056 -0.1980 -0.6035
14566TIP3    H165189   2.583   1.234  14.676  0.4393 -0.2421 -0.6828
14566TIP3    H265190   2.502   1.214  14.550 -1.2460  0.7108  0.2371
14567TIP3   OH265191   2.458   3.086   2.321 -0.2743  0.3896  0.2898
14567TIP3    H165192   2.421   3.165   2.359 -0.5099  1.0026 -1.1659
14567TIP3    H265193   2.542   3.075   2.364 -0.0716  1.6530  0.2375
14568TIP3   OH265194   1.622   5.799   2.443 -0.0903 -0.3509 -0.1279
14568TIP3    H165195   1.668   5.774   2.524 -0.8853  1.3305  0.8612
14568TIP3    H265196   1.539   5.837   2.473  0.2633  1.7130 -1.6538
14569TIP3   OH265197   1.571   1.056   4.051 -0.0889 -0.2167  0.6897
14569TIP3    H165198   1.583   0.970   4.092 -0.4641 -0.2002  0.8346
14569TIP3    H265199   1.651   1.069   3.999  0.2998 -0.3239  1.2551
14570TIP3   OH265200   0.057   1.981   2.984  0.3003 -0.1759 -0.6217
14570TIP3    H165201   0.107   1.992   3.065 -0.5238  1.9647 -0.3825
14570TIP3    H265202   0.003   1.903   3.000  1.1560 -0.5800  0.3512
14571TIP3   OH265203   5.584   0.714   4.471 -0.0253 -0.2728 -0.0139
14571TIP3    H165204   5.535   0.763   4.404 -0.5901  1.2963  1.5107
14571TIP3    H265205   5.603   0.779   4.539  3.4740 -1.0547 -0.1755
14572TIP3   OH265206   5.651   0.705  15.800  0.1303  0.0143 -0.5641
14572TIP3    H165207   5.587   0.771  15.777  0.3522  0.5959  0.4612
14572TIP3    H265208   5.732   0.734  15.759  0.0474 -0.0215 -0.7510
14573TIP3   OH265209   2.156   6.735  13.515  0.2435 -0.2497  0.6261
14573TIP3    H165210   2.142   6.669  13.448  1.7001 -1.0887  1.1225
14573TIP3    H265211   2.083   6.797  13.504 -1.7178 -2.4732  0.8372
14574TIP3   OH265212   2.822   0.086  10.382  0.2630  0.3396 -0.2553
14574TIP3    H165213   2.781   0.170  10.403 -0.9070 -0.9549  2.9360
14574TIP3    H265214   2.915   0.099  10.402  0.1517  0.9696 -0.1142
14575TIP3   OH265215   0.254   0.129  11.934  0.7787 -0.4360 -0.7283
14575TIP3    H165216   0.181   0.174  11.892  0.2767  2.1265  2.6702
14575TIP3    H265217   0.332   0.165  11.891  0.1737 -1.5373 -2.8207
14576TIP3   OH265218   3.318   4.869   5.036 -0.3899 -0.3438 -0.5865
14576TIP3    H165219   3.370   4.949   5.041 -0.7257 -0.1840  0.4442
14576TIP3    H265220   3.227   4.899   5.049 -0.5840 -0.7988 -0.8899
14577TIP3   OH265221   5.952   3.692  13.429  0.1705  0.0978 -0.1614
14577TIP3    H165222   5.873   3.731  13.392  1.0089  0.4291 -1.6625
14577TIP3    H265223   5.921   3.615  13.476 -0.9102 -0.7283 -2.1306
14578TIP3   OH265224   4.736   5.911  16.002  0.1507 -0.1340  0.1606
14578TIP3    H165225   4.736   5.887  15.910 -2.2663 -0.8586  0.3116
14578TIP3    H265226   4.820   5.880  16.035  0.1622 -1.7389 -1.3143
14579TIP3   OH265227   4.543   2.047  13.993 -0.5286  0.1623 -0.1200
14579TIP3    H165228   4.549   2.143  13.995  1.2334  0.0837 -0.9790
14579TIP3    H265229   4.530   2.026  13.900 -1.1672 -0.4370  0.0954
14580TIP3   OH265230   6.047   6.338   3.501 -0.1033 -0.0650  0.0545
14580TIP3    H165231   6.085   6.415   3.544 -0.1957  0.3121 -0.5303
14580TIP3    H265232   6.026   6.278   3.573 -0.0511  0.4664  0.5161
14581TIP3   OH265233   5.987   1.088  12.787 -0.3362  0.3227  0.0760
14581TIP3    H165234   6.059   1.061  12.731 -0.4049 -0.6905  0.4615
14581TIP3    H265235   5.968   1.178  12.761  2.7562  1.5207  1.6848
14582TIP3   OH265236   3.324   2.382   5.746  0.4464  0.3940 -0.5351
14582TIP3    H165237   3.354   2.301   5.787  0.0487  0.2909 -0.4460
14582TIP3    H265238   3.369   2.451   5.795  0.4219  0.2482 -0.3064
14583TIP3   OH265239   5.387   5.034  16.006 -0.2415 -0.3369 -0.2963
14583TIP3    H165240   5.392   4.960  15.946 -0.0850  0.3018 -1.0683
14583TIP3    H265241   5.324   5.006  16.073 -1.8330 -0.3360 -1.7552
14584TIP3   OH265242   1.397   2.936   4.123  0.0613  1.0356 -0.0122
14584TIP3    H165243   1.465   2.870   4.107 -0.1995  0.7955 -0.1426
14584TIP3    H265244   1.432   3.017   4.086  1.6928  1.6962  2.7922
14585TIP3   OH265245   3.821   5.339   5.085 -1.0044  0.8523  0.0048
14585TIP3    H165246   3.889   5.405   5.074  0.4771 -0.6534 -0.1366
14585TIP3    H265247   3.824   5.317   5.178  0.8645 -1.4021 -0.5220
14586TIP3   OH265248   0.119   0.619  11.133 -0.0835 -0.0594  0.1320
14586TIP3    H165249   0.029   0.619  11.100 -0.1981  4.2753  0.1826
14586TIP3    H265250   0.173   0.619  11.054 -0.2385  1.0810  0.0078
14587TIP3   OH265251   3.684   3.492  16.228  0.3680 -0.7651 -0.1047
14587TIP3    H165252   3.743   3.504  16.303 -0.7425 -1.9842  0.9865
14587TIP3    H265253   3.617   3.559  16.239  0.7684 -0.2761 -0.5896
14588TIP3   OH265254   1.785   3.110  12.993  0.2774  0.2329  0.1428
14588TIP3    H165255   1.720   3.180  12.985 -0.0095  0.0549  0.8344
14588TIP3    H265256   1.751   3.039  12.939  0.2409  0.3956 -0.0454
14589TIP3   OH265257   3.499   3.248  16.259 -0.6518 -0.4293  0.7072
14589TIP3    H165258   3.507   3.297  16.341 -0.2231  0.4501  0.1546
14589TIP3    H265259   3.486   3.316  16.192 -2.6633 -1.2358  0.2524
14590TIP3   OH265260   5.521   2.118  17.090  0.3310 -0.4877  0.4742
14590TIP3    H165261   5.614   2.104  17.108  0.2962  0.2809  1.2774
14590TIP3    H265262   5.514   2.210  17.067  0.1494 -1.1346 -2.1979
14591TIP3   OH265263   0.444   5.848   1.269  0.0019  0.2140  0.3331
14591TIP3    H165264   0.404   5.908   1.206 -0.3667 -0.2206  0.1499
14591TIP3    H265265   0.522   5.815   1.224  0.0486  0.3337  0.3243
14592TIP3   OH265266   5.112   3.430  10.935 -0.1290 -1.0393  0.3794
14592TIP3    H165267   5.101   3.335  10.930 -0.4054 -0.8961 -2.3670
14592TIP3    H265268   5.042   3.466  10.879  0.4379  0.7603  0.7773
14593TIP3   OH265269   3.848   1.323  16.675 -0.2404  0.3250 -0.3485
14593TIP3    H165270   3.814   1.260  16.612 -2.2658  0.8357  0.1920
14593TIP3    H265271   3.865   1.271  16.754 -2.0025  0.4368  0.1283
14594TIP3   OH265272   6.508   3.906  16.457  0.3737  0.1052  0.2429
14594TIP3    H165273   6.541   3.858  16.533 -2.0686  1.7617  2.4395
14594TIP3    H265274   6.442   3.847  16.418 -1.8837  1.1609  2.3336
14595TIP3   OH265275   4.064   2.189   3.208 -0.0935  0.0304 -0.0888
14595TIP3    H165276   4.071   2.220   3.118  0.3532 -0.4698 -0.2268
14595TIP3    H265277   4.030   2.264   3.257 -0.9320  0.1120 -0.7890
14596TIP3   OH265278   4.709   6.374   1.596 -0.0776  0.6281 -0.8263
14596TIP3    H165279   4.637   6.409   1.647 -0.8340 -0.2214 -1.2970
14596TIP3    H265280   4.669   6.344   1.514  1.1290  2.0177 -1.9464
14597TIP3   OH265281   5.454   2.643  16.409  0.2345  0.8081 -0.2631
14597TIP3    H165282   5.525   2.695  16.449  1.3022 -0.9615  0.1972
14597TIP3    H265283   5.384   2.707  16.394  0.8239  2.0583  1.9754
14598TIP3   OH265284   4.733   2.778   5.384  0.4092 -0.5197 -0.5530
14598TIP3    H165285   4.678   2.735   5.319 -0.5641  0.9343 -0.7076
14598TIP3    H265286   4.676   2.844   5.424  1.6449  0.0884  0.2333
14599TIP3   OH265287   0.315   6.049  17.287 -0.2993 -0.4063 -0.1061
14599TIP3    H165288   0.232   6.006  17.306 -0.6456  0.2007 -0.2280
14599TIP3    H265289   0.374   6.018  17.356 -1.4456  1.4991  1.7775
14600TIP3   OH265290   1.616   5.333  16.818 -0.1275 -0.3051 -0.6406
14600TIP3    H165291   1.540   5.372  16.776 -0.8306 -0.4255  0.4988
14600TIP3    H265292   1.616   5.370  16.906  0.1137 -1.6373 -0.0672
14601TIP3   OH265293   1.837   0.384  14.240 -0.2240  0.5566  0.3528
14601TIP3    H165294   1.767   0.415  14.183 -0.9614 -1.5764  0.0410
14601TIP3    H265295   1.909   0.363  14.180  0.2641  1.6241  0.5586
14602TIP3   OH265296   6.317   4.503  12.329  0.0424  0.5625 -0.4383
14602TIP3    H165297   6.328   4.584  12.378  1.0966 -0.9929  1.9852
14602TIP3    H265298   6.228   4.474  12.349 -0.1405  0.8364 -0.8561
14603TIP3   OH265299   3.655   2.218  12.354 -0.0440 -0.5082 -0.0802
14603TIP3    H165300   3.566   2.238  12.382 -0.6760 -0.5105 -2.0096
14603TIP3    H265301   3.683   2.146  12.411 -2.0191 -1.8535 -0.7530
14604TIP3   OH265302   4.636   4.769  12.380  0.5057  0.5383  0.3682
14604TIP3    H165303   4.657   4.857  12.350  0.7699 -0.0704 -1.2636
14604TIP3    H265304   4.715   4.718  12.363 -0.6684 -0.6994 -1.5234
14605TIP3   OH265305   1.150   1.685  11.595 -0.0585 -0.2455  0.2765
14605TIP3    H165306   1.208   1.612  11.616  1.4689  1.5279  2.4898
14605TIP3    H265307   1.205   1.763  11.603 -1.7419  1.2034 -1.6862
14606TIP3   OH265308   1.059   3.276  13.562 -0.1150  0.3337  0.1873
14606TIP3    H165309   0.995   3.345  13.553  0.5913  1.0481  0.5620
14606TIP3    H265310   1.047   3.243  13.651  0.2735  0.7158  0.3851
14607TIP3   OH265311   4.545   4.730   4.133 -0.0745 -0.1512  1.0206
14607TIP3    H165312   4.494   4.777   4.200 -0.6073  0.5535  0.1244
14607TIP3    H265313   4.520   4.771   4.051 -2.3280 -3.5435 -0.0918
14608TIP3   OH265314   1.615   4.638  15.732 -0.1498  0.1965 -0.2197
14608TIP3    H165315   1.617   4.722  15.776  2.6206  1.9802 -3.4882
14608TIP3    H265316   1.530   4.635  15.688 -0.4084  1.1161  0.2216
14609TIP3   OH265317   4.254   6.120  12.156  0.4376  0.4825 -0.5466
14609TIP3    H165318   4.178   6.068  12.184  0.2537  0.9905 -0.0897
14609TIP3    H265319   4.301   6.063  12.096 -0.7224  0.4297 -1.4295
14610TIP3   OH265320   1.569   5.497   4.913 -0.4143 -0.3559 -0.0761
14610TIP3    H165321   1.522   5.464   4.989  2.3788 -0.4362  1.6845
14610TIP3    H265322   1.585   5.419   4.859  0.9803 -0.9714  1.1801
14611TIP3   OH265323   0.527   5.856   4.489  0.3486  0.0107  0.0862
14611TIP3    H165324   0.579   5.799   4.546  2.3229  1.4727 -0.1779
14611TIP3    H265325   0.542   5.944   4.523 -1.8444  0.4889 -0.1247
14612TIP3   OH265326   3.999   2.766  10.637 -0.4424  0.3792 -0.3726
14612TIP3    H165327   3.938   2.764  10.563 -0.5799 -0.3585 -0.2502
14612TIP3    H265328   4.083   2.741  10.600 -0.5852 -0.3448 -0.2210
14613TIP3   OH265329   0.645   5.590   6.530 -1.1681  1.0671  0.4312
14613TIP3    H165330   0.665   5.497   6.539  0.7354  1.3782 -0.3358
14613TIP3    H265331   0.694   5.632   6.601 -0.6582  1.6374 -0.2451
14614TIP3   OH265332   4.444   2.876   5.646  0.1567 -0.4787 -0.4688
14614TIP3    H165333   4.447   2.781   5.637 -0.0303 -0.6453  1.2407
14614TIP3    H265334   4.418   2.891   5.736  0.3122  1.2038 -0.6978
14615TIP3   OH265335   5.681   4.233  10.754 -0.4851 -0.2196  0.5217
14615TIP3    H165336   5.589   4.212  10.772 -0.6621 -0.3040 -0.4332
14615TIP3    H265337   5.728   4.153  10.776 -0.9033 -0.9170 -0.9997
14616TIP3   OH265338   2.405   6.115   0.196 -0.0067  0.2631  0.2138
14616TIP3    H165339   2.477   6.150   0.143 -0.8045  0.9800 -0.4162
14616TIP3    H265340   2.333   6.177   0.182 -1.6915 -2.0237 -1.5259
14617TIP3   OH265341   3.202   5.307  17.036 -0.2371 -0.1359 -0.1396
14617TIP3    H165342   3.128   5.351  17.079 -1.1583  0.4966 -2.2907
14617TIP3    H265343   3.268   5.375  17.026 -0.4066 -0.0312 -0.5754
14618TIP3   OH265344   3.227   6.068   4.965  0.0158  0.3692  0.6162
14618TIP3    H165345   3.300   6.045   4.909 -0.0596 -0.5667  0.8913
14618TIP3    H265346   3.267   6.100   5.046  0.1199 -0.0248  0.7200
14619TIP3   OH265347   4.973   0.022  14.492 -0.1940 -0.1291  0.0278
14619TIP3    H165348   4.921   0.096  14.461 -2.0501 -1.3823  0.0624
14619TIP3    H265349   4.996  -0.027  14.413 -1.5136 -1.1232  0.2340
14620TIP3   OH265350   3.044   6.577  12.811  0.2009  0.6327 -0.1993
14620TIP3    H165351   3.123   6.539  12.773 -1.4447 -0.9328 -2.1919
14620TIP3    H265352   3.068   6.598  12.901  2.1398 -2.1227 -0.0082
14621TIP3   OH265353   6.710   4.991   4.014 -0.2536 -0.0905  0.3913
14621TIP3    H165354   6.701   4.910   4.064  0.7187 -0.6383 -0.3226
14621TIP3    H265355   6.702   5.061   4.080  3.3104 -0.8126  1.7119
14622TIP3   OH265356   3.951   5.428  13.036 -0.4005 -0.2250 -0.5269
14622TIP3    H165357   3.956   5.341  13.075 -2.6514 -0.4206 -0.6234
14622TIP3    H265358   3.922   5.412  12.946  1.3880  0.4892 -1.2690
14623TIP3   OH265359   4.200   0.487   3.807  0.2454  0.5893  0.1518
14623TIP3    H165360   4.245   0.478   3.723 -0.0264 -0.0797  0.0708
14623TIP3    H265361   4.201   0.398   3.844 -0.5781  0.6666  0.3699
14624TIP3   OH265362   0.335   1.707  12.431 -0.2902  0.2712  0.3975
14624TIP3    H165363   0.288   1.671  12.356 -1.3199  1.3351  0.5247
14624TIP3    H265364   0.285   1.784  12.457  1.7387  1.6593  0.3074
14625TIP3   OH265365   5.905   6.432  16.579  0.1591  0.2119  0.1042
14625TIP3    H165366   5.895   6.445  16.485 -0.2750  1.4270  0.2944
14625TIP3    H265367   5.942   6.515  16.610  0.2135 -0.1471  1.0024
14626TIP3   OH265368   1.063   1.323   4.492  0.0961 -0.2942 -0.5908
14626TIP3    H165369   0.995   1.376   4.534  0.3549 -0.7468  0.4048
14626TIP3    H265370   1.039   1.233   4.513  1.4608 -0.4168  0.4645
14627TIP3   OH265371   2.477   5.268   2.630  0.6449  0.3659  0.3083
14627TIP3    H165372   2.452   5.272   2.538  0.0120 -0.3844  0.4438
14627TIP3    H265373   2.557   5.215   2.631  1.2798  1.3138  0.0683
14628TIP3   OH265374   2.242   6.360  10.270 -0.0916 -0.2417  0.1461
14628TIP3    H165375   2.306   6.330  10.205  0.2566 -0.9261  0.8023
14628TIP3    H265376   2.286   6.431  10.316  0.0492 -0.4553  0.3397
14629TIP3   OH265377   4.802   6.807   5.589 -0.1449  0.2878  0.1475
14629TIP3    H165378   4.806   6.900   5.569  0.1174  0.1848 -0.3038
14629TIP3    H265379   4.709   6.784   5.579  0.0792  0.0923 -1.7102
14630TIP3   OH265380   5.074   0.024   6.127  0.1406 -0.2531  0.0615
14630TIP3    H165381   5.135   0.097   6.115  2.0739 -1.8568 -0.2086
14630TIP3    H265382   5.112  -0.047   6.075 -1.7833 -1.4020  0.2037
14631TIP3   OH265383   5.054   2.120  15.223  0.0207  0.1431 -0.2261
14631TIP3    H165384   4.988   2.111  15.154 -0.2530  0.3152  0.0158
14631TIP3    H265385   5.044   2.210  15.255  1.1122  0.5380 -0.9485
14632TIP3   OH265386   4.134   5.502   5.055  0.4429  0.0767  0.0222
14632TIP3    H165387   4.227   5.497   5.031  0.3005  0.4757 -0.6249
14632TIP3    H265388   4.120   5.595   5.075  0.1230  0.0572 -0.1161
14633TIP3   OH265389   4.394   2.477   5.197 -0.2954  0.0842 -0.3812
14633TIP3    H165390   4.386   2.504   5.106  0.5129  0.2007 -0.4234
14633TIP3    H265391   4.330   2.407   5.207 -1.0249  0.6853 -0.7937
14634TIP3   OH265392   4.835   6.680  11.212  0.0638  0.8165  0.2447
14634TIP3    H165393   4.760   6.734  11.189 -0.1047  0.5494  0.1683
14634TIP3    H265394   4.839   6.683  11.308 -0.2948  0.4923  0.2700
14635TIP3   OH265395   6.740   0.171  16.527 -0.2739  0.2927  0.3100
14635TIP3    H165396   6.777   0.118  16.597  0.5530 -0.8647 -0.9829
14635TIP3    H265397   6.661   0.123  16.499  0.3444 -0.1700 -0.6982
14636TIP3   OH265398   5.361   0.761   4.735 -0.2472 -0.0471  0.6809
14636TIP3    H165399   5.333   0.679   4.775 -0.3324  0.5888  1.9485
14636TIP3    H265400   5.457   0.758   4.739 -0.1798 -0.9461 -1.0628
14637TIP3   OH265401   4.745   5.751  13.282  0.1723 -0.0897 -0.2994
14637TIP3    H165402   4.814   5.685  13.283 -0.0142 -0.2875  2.1640
14637TIP3    H265403   4.674   5.711  13.232  0.6652 -1.1018 -0.1885
14638TIP3   OH265404   0.963   5.194  13.821  0.0732  0.1864  0.3500
14638TIP3    H165405   1.021   5.215  13.894  0.6703  1.0670 -0.3730
14638TIP3    H265406   0.940   5.102  13.835 -0.2240  0.4716  1.9160
14639TIP3   OH265407   0.518   2.920  11.137 -0.6576 -0.8197  0.4193
14639TIP3    H165408   0.524   3.015  11.134 -0.2363 -0.8315  0.7842
14639TIP3    H265409   0.590   2.893  11.194 -0.3115 -1.4047 -0.2882
14640TIP3   OH265410   3.126   2.303  13.087 -0.5630  0.0706  0.4443
14640TIP3    H165411   3.107   2.220  13.044  0.9357  0.7450 -1.5742
14640TIP3    H265412   3.178   2.352  13.024  0.2049  1.7925  2.3439
14641TIP3   OH265413   1.431   2.742  16.385 -0.1485  0.3135 -0.0566
14641TIP3    H165414   1.449   2.670  16.325  0.1049  0.7514 -0.5147
14641TIP3    H265415   1.343   2.773  16.360  0.0835  0.6939 -0.4075
14642TIP3   OH265416   3.724   5.665  12.836 -0.1224  0.3077 -0.2096
14642TIP3    H165417   3.679   5.607  12.898  1.1440 -0.2736  0.1869
14642TIP3    H265418   3.734   5.747  12.883 -0.8625  0.4801 -0.3429
14643TIP3   OH265419   5.791   3.045  14.851  0.0144 -0.4976  0.1629
14643TIP3    H165420   5.766   2.957  14.879 -2.5208 -0.2271 -1.0275
14643TIP3    H265421   5.723   3.070  14.788  0.3605  2.5344  0.8907
14644TIP3   OH265422   4.400   4.682  13.268 -0.0826 -0.0414 -0.3747
14644TIP3    H165423   4.415   4.677  13.363  0.1349  2.1940 -0.2632
14644TIP3    H265424   4.324   4.739  13.260 -0.5594 -0.8363 -1.5283
14645TIP3   OH265425   6.512   3.712  11.849  0.0167  0.2312  0.3287
14645TIP3    H165426   6.588   3.654  11.851  1.4970  2.1277  0.8160
14645TIP3    H265427   6.513   3.757  11.934 -2.3364 -0.5328  0.8151
14646TIP3   OH265428   5.069   2.043  13.299  0.3564 -0.2700  0.8434
14646TIP3    H165429   5.085   2.133  13.268  0.4587 -0.4919  0.2383
14646TIP3    H265430   5.137   1.991  13.255  0.1379 -0.6822  0.9978
14647TIP3   OH265431   5.165   3.395  11.952 -0.9726  0.7919 -0.0305
14647TIP3    H165432   5.180   3.365  11.862  1.0706  0.1933  0.4990
14647TIP3    H265433   5.095   3.460  11.943 -0.6166  0.9470 -2.0846
14648TIP3   OH265434   4.968   6.248   5.389 -0.4265 -0.0670 -0.1424
14648TIP3    H165435   5.002   6.296   5.314 -1.4934  2.2757  0.8413
14648TIP3    H265436   5.037   6.254   5.455 -0.1582 -0.7481 -0.3536
14649TIP3   OH265437   3.539   3.633   2.649 -0.3653  0.5350 -0.3662
14649TIP3    H165438   3.606   3.581   2.693  0.3045  0.0417 -1.9661
14649TIP3    H265439   3.473   3.648   2.717  0.3057 -0.8304  0.6101
14650TIP3   OH265440   0.666   0.572  17.260  0.2341 -0.1220 -0.1740
14650TIP3    H165441   0.602   0.643  17.261  1.4057  0.9526 -0.6884
14650TIP3    H265442   0.618   0.496  17.292 -0.5753  1.2848  2.0591
14651TIP3   OH265443   4.706   1.175  15.279  0.2381 -0.3536  0.3783
14651TIP3    H165444   4.744   1.107  15.335 -1.6851  0.1129  2.3050
14651TIP3    H265445   4.709   1.254  15.333 -1.4215  0.1587 -0.2539
14652TIP3   OH265446   1.213   0.739  12.099 -0.2229  0.2429 -0.4009
14652TIP3    H165447   1.283   0.757  12.035  0.3668 -2.4323 -0.5959
14652TIP3    H265448   1.248   0.770  12.182 -0.1292  1.8356 -1.0159
14653TIP3   OH265449   2.372   3.071  11.606 -0.1663 -0.6348  0.2405
14653TIP3    H165450   2.324   3.046  11.685 -1.2966  0.5587 -0.0309
14653TIP3    H265451   2.451   3.115  11.638 -0.6641 -0.0749  0.7212
14654TIP3   OH265452   2.465   2.506  14.506 -0.1152  0.4516  0.2215
14654TIP3    H165453   2.380   2.547  14.490  0.3896  1.2885 -0.3777
14654TIP3    H265454   2.524   2.580  14.523  1.0099  0.0316 -1.7480
14655TIP3   OH265455   5.087   1.788   1.866 -0.0262  0.1732  0.0149
14655TIP3    H165456   5.119   1.697   1.867 -1.5042 -0.3520  0.1635
14655TIP3    H265457   5.151   1.835   1.812  1.1151 -0.8180  0.4839
14656TIP3   OH265458   5.542   1.466   0.593 -0.0533 -0.4205  0.1407
14656TIP3    H165459   5.592   1.458   0.511  0.0969  0.7568  0.1018
14656TIP3    H265460   5.461   1.509   0.567  0.4038  0.8307  0.7517
14657TIP3   OH265461   0.669   3.720   4.771 -0.0360  0.0847  0.1238
14657TIP3    H165462   0.655   3.638   4.818  0.6109  0.0305  0.2272
14657TIP3    H265463   0.581   3.755   4.757 -0.2332  0.5140  2.1344
14658TIP3   OH265464   3.063   1.847  15.343 -0.0049  0.3231  0.0719
14658TIP3    H165465   3.059   1.843  15.439 -0.7615  1.0181  0.0683
14658TIP3    H265466   2.996   1.786  15.314 -1.0083  1.4451 -0.0056
14659TIP3   OH265467   2.065   3.984   6.112 -0.5595  0.3289  0.4498
14659TIP3    H165468   2.112   4.014   6.190  1.6073  1.4491 -1.2345
14659TIP3    H265469   2.091   3.892   6.103  0.4340  0.6242  0.1864
14660TIP3   OH265470   5.822   3.999   5.052  0.2409 -0.4783 -0.1783
14660TIP3    H165471   5.751   4.036   5.104  1.1234  2.0581 -0.7329
14660TIP3    H265472   5.882   3.961   5.116  0.8639  1.8298  0.6527
14661TIP3   OH265473   0.385   3.846   2.575  0.0829  0.1827  0.0485
14661TIP3    H165474   0.343   3.919   2.530  0.4885 -0.6048 -1.6442
14661TIP3    H265475   0.372   3.771   2.517  1.6039 -0.6230  0.7159
14662TIP3   OH265476   0.677   2.369  14.441  0.4328  0.1497  0.0344
14662TIP3    H165477   0.664   2.458  14.473  1.7515 -0.8125  3.5256
14662TIP3    H265478   0.599   2.321  14.469  0.2299 -0.0453 -0.8534
14663TIP3   OH265479   0.563   2.023  11.215 -0.1563 -0.2827 -0.2154
14663TIP3    H165480   0.621   2.082  11.263  0.2570  0.9791 -2.1880
14663TIP3    H265481   0.502   2.081  11.169 -0.6116 -1.4331 -1.1087
14664TIP3   OH265482   5.781   6.097   2.024  0.1007 -0.1480 -0.1013
14664TIP3    H165483   5.690   6.080   2.001 -0.4475  1.1664  1.0043
14664TIP3    H265484   5.797   6.187   1.993  0.9268 -0.2700 -0.0389
14665TIP3   OH265485   1.203   4.621   0.865  0.2969  0.6293  0.2774
14665TIP3    H165486   1.242   4.684   0.926 -0.7732  0.7292  0.8731
14665TIP3    H265487   1.246   4.538   0.885  1.1663  1.0130  0.0077
14666TIP3   OH265488   5.927   3.322  11.423  0.6769  0.3003 -0.2512
14666TIP3    H165489   5.878   3.304  11.503 -0.0189 -0.2866 -0.7908
14666TIP3    H265490   5.903   3.411  11.399 -0.1716 -0.0019 -0.5381
14667TIP3   OH265491   5.737   3.410   2.178 -0.2076 -0.0483 -0.3726
14667TIP3    H165492   5.771   3.378   2.095  1.1926  0.2040  0.0915
14667TIP3    H265493   5.814   3.443   2.224 -1.4398  3.1457 -0.4699
14668TIP3   OH265494   1.349   6.642  14.717 -0.3414 -0.0776  0.6247
14668TIP3    H165495   1.280   6.685  14.766 -0.3834 -0.2312  0.7004
14668TIP3    H265496   1.322   6.649  14.625 -0.6932 -0.5508  0.6899
14669TIP3   OH265497   4.375   2.923   5.905 -1.3194 -0.1898  0.0619
14669TIP3    H165498   4.436   2.895   5.974 -0.7255  0.2027 -0.3018
14669TIP3    H265499   4.289   2.919   5.947 -0.9361  0.3442  0.9303
14670TIP3   OH265500   6.443   5.865  15.353 -0.2932 -0.1180  0.4222
14670TIP3    H165501   6.510   5.798  15.347  0.0016  0.0329  1.9595
14670TIP3    H265502   6.412   5.862  15.444 -1.2479  0.8821  0.1539
14671TIP3   OH265503   1.628   2.478  13.502 -0.0496  0.4529  0.3300
14671TIP3    H165504   1.614   2.516  13.589 -1.6245  2.7898 -0.8720
14671TIP3    H265505   1.544   2.491  13.457 -0.0897 -3.0438 -0.7261
14672TIP3   OH265506   4.042   4.550  16.226  0.5987  0.0682 -0.3811
14672TIP3    H165507   4.086   4.601  16.293 -0.2129 -0.3709  0.5029
14672TIP3    H265508   4.094   4.470  16.218 -0.6678 -0.9850  1.5165
14673TIP3   OH265509   2.701   1.258  15.643  0.1730 -0.0432  0.1541
14673TIP3    H165510   2.692   1.216  15.557 -0.8292 -1.5920  0.9980
14673TIP3    H265511   2.787   1.229  15.674 -0.8897 -2.2506  1.1220
14674TIP3   OH265512   6.403   1.771   4.759 -0.5285  0.2628  0.2208
14674TIP3    H165513   6.349   1.846   4.735 -1.6334 -0.6848 -0.3199
14674TIP3    H265514   6.378   1.752   4.850 -2.1652 -1.0326 -0.4684
14675TIP3   OH265515   6.417   4.324   5.238  0.0209 -0.1677 -0.7412
14675TIP3    H165516   6.326   4.331   5.269 -0.2945 -1.7816 -1.2358
14675TIP3    H265517   6.465   4.292   5.314 -0.2539 -1.4920 -1.1086
14676TIP3   OH265518   2.628   5.424  15.750  0.2323  0.3303  0.1692
14676TIP3    H165519   2.659   5.435  15.840 -1.5134  0.9828  0.6943
14676TIP3    H265520   2.547   5.374  15.758  0.9563 -1.1266 -1.1833
14677TIP3   OH265521   0.145   0.795   0.888 -0.2806  0.2014  0.5447
14677TIP3    H165522   0.239   0.785   0.895  0.0108  2.1451 -0.1429
14677TIP3    H265523   0.109   0.708   0.906  1.6391 -0.5748  0.6670
14678TIP3   OH265524   3.285   1.422  12.923 -0.3402 -0.5748  0.3121
14678TIP3    H165525   3.306   1.394  12.834 -0.9195  3.6346 -1.2612
14678TIP3    H265526   3.197   1.389  12.939 -1.7936  1.9009 -2.2496
14679TIP3   OH265527   4.367   3.400  15.876 -0.5600 -0.4520  0.5578
14679TIP3    H165528   4.389   3.487  15.843 -1.0001 -0.7371 -0.4854
14679TIP3    H265529   4.337   3.351  15.799  2.1013 -2.3193  0.6484
14680TIP3   OH265530   6.572   1.446  15.324  0.0148  0.4982 -0.6424
14680TIP3    H165531   6.513   1.482  15.258 -1.8973  1.0956  1.3330
14680TIP3    H265532   6.654   1.493  15.311  0.0599 -0.2213 -3.3251
14681TIP3   OH265533   2.887   4.406  16.271 -0.1144 -0.2819 -0.0082
14681TIP3    H165534   2.830   4.390  16.346  1.2321 -0.9950  0.8866
14681TIP3    H265535   2.847   4.357  16.199 -0.1436 -1.5506  0.8487
14682TIP3   OH265536   0.092   4.682  12.466  0.4634 -0.2429  0.3072
14682TIP3    H165537   0.095   4.619  12.537 -1.1045 -0.9306 -0.2202
14682TIP3    H265538   0.049   4.635  12.394  0.1033  1.1310 -0.3890
14683TIP3   OH265539   6.248   2.966   2.917 -0.4623  0.1731 -0.1542
14683TIP3    H165540   6.293   3.031   2.972  0.3839 -0.2024 -0.3912
14683TIP3    H265541   6.192   3.018   2.859 -1.6246  0.5572  1.2839
14684TIP3   OH265542   0.767   0.650  11.295  0.8301 -0.1587 -0.3478
14684TIP3    H165543   0.801   0.634  11.207 -1.1253  0.4014 -1.2468
14684TIP3    H265544   0.788   0.742  11.312 -0.2008  0.1966 -0.9161
14685TIP3   OH265545   5.947   1.938   1.625 -0.0483  0.4128  0.8640
14685TIP3    H165546   5.852   1.954   1.627 -0.5098 -1.8108 -1.0867
14685TIP3    H265547   5.958   1.854   1.670  0.4939 -1.2781 -2.2676
14686TIP3   OH265548   4.675   5.024  15.901 -0.3207  0.0410 -0.5811
14686TIP3    H165549   4.591   4.985  15.875 -1.3556  2.2030 -0.6003
14686TIP3    H265550   4.734   5.005  15.828 -0.6128 -2.0114 -0.3132
14687TIP3   OH265551   1.456   5.449  15.444  0.6935 -0.4606 -0.2600
14687TIP3    H165552   1.387   5.468  15.507  0.6088  0.4739 -0.6342
14687TIP3    H265553   1.409   5.431  15.362  0.8368 -0.9464 -0.2352
14688TIP3   OH265554   0.194   5.597   1.500 -0.1560 -0.0356  0.4213
14688TIP3    H165555   0.232   5.685   1.497  0.2161 -0.1558  1.5058
14688TIP3    H265556   0.217   5.558   1.416  1.3412  0.2151  0.7105
14689TIP3   OH265557   5.521   2.233  11.343 -0.4751  0.5341  0.6888
14689TIP3    H165558   5.444   2.284  11.314 -0.2893  0.1008 -0.5919
14689TIP3    H265559   5.493   2.142  11.337  0.8520  0.2576 -1.9719
14690TIP3   OH265560   2.064   0.879   5.026  0.1374  0.0439  0.0937
14690TIP3    H165561   2.009   0.855   5.101  1.4873 -0.5796  0.8926
14690TIP3    H265562   2.138   0.926   5.064 -0.4403  1.9646 -1.0918
14691TIP3   OH265563   2.644   2.282   5.481 -0.4860  0.1375  0.2709
14691TIP3    H165564   2.673   2.190   5.481 -0.9874 -0.0268 -1.4234
14691TIP3    H265565   2.681   2.318   5.562  2.6965 -0.6343 -0.7404
14692TIP3   OH265566   0.631   4.296  12.664  0.1126  0.6784 -0.1478
14692TIP3    H165567   0.722   4.323  12.673  0.0413  1.8971 -2.6578
14692TIP3    H265568   0.633   4.222  12.604 -0.5007  0.4267  0.1369
14693TIP3   OH265569   1.071   5.326  11.928  0.4673 -0.0348 -0.6543
14693TIP3    H165570   1.025   5.403  11.962 -0.1769 -0.3030 -0.9201
14693TIP3    H265571   1.089   5.348  11.837  0.6845 -0.0128 -0.6066
14694TIP3   OH265572   2.776   6.141  15.887 -0.1146 -0.4094  0.6031
14694TIP3    H165573   2.796   6.076  15.954  0.9847 -1.1727 -0.4460
14694TIP3    H265574   2.839   6.124  15.817  0.7120  2.3017  0.6313
14695TIP3   OH265575   2.736   5.687   5.382 -0.3307  0.0828 -0.1112
14695TIP3    H165576   2.779   5.634   5.314 -0.4837  0.0729 -0.2009
14695TIP3    H265577   2.802   5.749   5.409  0.2511 -0.9442  0.8617
14696TIP3   OH265578   5.642   4.158   4.178  0.1159  0.5071 -0.0731
14696TIP3    H165579   5.718   4.152   4.121 -0.3131 -1.7634 -0.4425
14696TIP3    H265580   5.567   4.155   4.119 -0.2967  0.6794  0.4330
14697TIP3   OH265581   0.125   4.539   1.161  0.0738  0.0503 -0.0592
14697TIP3    H165582   0.084   4.615   1.202  0.0905 -0.4759  0.9482
14697TIP3    H265583   0.108   4.550   1.067 -2.4695 -0.2265  0.3513
14698TIP3   OH265584   1.333   6.124   6.298 -0.2476 -0.5718 -0.1320
14698TIP3    H165585   1.301   6.034   6.303  0.9547 -1.0523 -0.7706
14698TIP3    H265586   1.254   6.178   6.291 -0.9835 -1.5559  0.5036
14699TIP3   OH265587   1.885   0.812   4.208  0.7777  0.1096  0.6007
14699TIP3    H165588   1.957   0.756   4.178 -0.9045 -1.7617 -0.0096
14699TIP3    H265589   1.886   0.803   4.304  0.2382 -1.3149  0.4741
14700TIP3   OH265590   5.342   1.515   4.685  0.7073  0.0438  0.6083
14700TIP3    H165591   5.357   1.608   4.667 -1.3135  0.1149 -0.8002
14700TIP3    H265592   5.321   1.477   4.600 -1.8537 -1.0207  1.6683
14701TIP3   OH265593   4.538   5.614  11.376 -0.6842 -0.3675  0.5627
14701TIP3    H165594   4.556   5.701  11.340 -1.1020 -0.6029 -0.2231
14701TIP3    H265595   4.533   5.628  11.471 -1.3450  0.5692  0.3996
14702TIP3   OH265596   6.640   5.941  13.190 -0.3239  0.1974  0.4836
14702TIP3    H165597   6.652   6.036  13.194 -1.3951  0.3403  0.3370
14702TIP3    H265598   6.726   5.906  13.213  0.2283  1.2024  0.0023
14703TIP3   OH265599   1.410   0.587   2.119 -0.3198  0.2122  0.2915
14703TIP3    H165600   1.468   0.514   2.099 -0.6690  0.6221 -2.4829
14703TIP3    H265601   1.447   0.627   2.197  0.8188 -1.9132  0.8777
14704TIP3   OH265602   6.330   4.839  13.930  0.6552 -0.1903  0.1458
14704TIP3    H165603   6.324   4.891  14.011 -0.0270 -0.0257 -0.0071
14704TIP3    H265604   6.355   4.751  13.961 -1.7242 -0.6856  0.7622
14705TIP3   OH265605   1.963   4.378   1.834 -0.5152  0.0338  0.3971
14705TIP3    H165606   1.985   4.404   1.923 -0.7339 -0.2261  0.5279
14705TIP3    H265607   1.907   4.301   1.844 -0.3875 -0.1101  0.0315
14706TIP3   OH265608   4.083   1.539   2.415  0.4175 -0.5022 -0.1399
14706TIP3    H165609   4.002   1.502   2.450  1.0360 -1.1036  0.6767
14706TIP3    H265610   4.152   1.480   2.446  1.3076  0.7499  0.2895
14707TIP3   OH265611   6.433   5.906  14.548  0.3593 -0.1133 -0.1686
14707TIP3    H165612   6.364   5.946  14.494  0.0130  1.1783  1.1834
14707TIP3    H265613   6.451   5.822  14.506 -0.5809  0.4455 -1.7292
14708TIP3   OH265614   4.951   3.659  12.730  0.1504  0.0056  0.1294
14708TIP3    H165615   4.977   3.638  12.820  0.2467 -0.1861  0.0583
14708TIP3    H265616   4.856   3.654  12.731  0.0361  1.9024  0.6857
14709TIP3   OH265617   3.476   1.837  16.141  0.1984 -0.1880  0.1775
14709TIP3    H165618   3.523   1.775  16.197  2.4656 -0.6733 -2.1699
14709TIP3    H265619   3.432   1.781  16.076  0.4061  0.5324 -0.5863
14710TIP3   OH265620   5.182   4.883   4.720 -0.4412  0.2264 -0.0662
14710TIP3    H165621   5.090   4.880   4.746 -0.9381  0.9623 -1.7055
14710TIP3    H265622   5.230   4.869   4.802 -2.0026 -3.1244  0.3554
14711TIP3   OH265623   3.482   1.246  15.874 -0.0388 -0.1904 -0.1660
14711TIP3    H165624   3.577   1.250  15.887  0.5365 -3.0695 -2.7479
14711TIP3    H265625   3.447   1.209  15.955  1.1547 -0.0368  0.4224
14712TIP3   OH265626   3.783   5.002  11.378 -0.1646  0.0036 -0.5291
14712TIP3    H165627   3.829   5.078  11.415  2.2084 -1.8058  0.3212
14712TIP3    H265628   3.692   5.013  11.406 -0.5743  4.0870 -2.9006
14713TIP3   OH265629   3.511   6.053  17.055  0.1003  0.7057 -0.3233
14713TIP3    H165630   3.506   6.106  16.975 -1.4958 -0.7743 -1.2475
14713TIP3    H265631   3.435   6.080  17.106  0.2497  0.5643 -0.0280
14714TIP3   OH265632   1.429   6.703   2.735 -0.0332  0.5733 -0.2631
14714TIP3    H165633   1.492   6.645   2.779 -0.3325  0.4969  0.0607
14714TIP3    H265634   1.344   6.661   2.749 -0.3114  1.3624  0.4128
14715TIP3   OH265635   2.853   3.249   5.200 -0.1229  0.2383  0.1259
14715TIP3    H165636   2.911   3.321   5.175  0.2765 -0.1940 -0.2136
14715TIP3    H265637   2.790   3.243   5.127  0.0456  0.0328 -0.0041
14716TIP3   OH265638   2.724   6.379   5.302 -0.2455 -0.0988  0.6788
14716TIP3    H165639   2.662   6.451   5.308  0.0278  0.3530 -1.3607
14716TIP3    H265640   2.673   6.306   5.268 -0.2693 -0.5201  1.6302
14717TIP3   OH265641   2.000   3.492  12.410 -0.1152 -0.2845 -0.5516
14717TIP3    H165642   2.001   3.400  12.434  0.5256 -0.4249 -1.1034
14717TIP3    H265643   1.911   3.509  12.381 -0.2802 -0.6838 -0.2813
14718TIP3   OH265644   2.061   5.912   0.448 -0.2905  0.5045  0.5679
14718TIP3    H165645   1.993   5.845   0.436  0.6821 -0.4475  0.3405
14718TIP3    H265646   2.013   5.995   0.447 -1.3714 -0.1188 -0.3231
14719TIP3   OH265647   0.496   4.777   2.397 -0.4763 -0.3429  0.5569
14719TIP3    H165648   0.491   4.738   2.310  0.4056  1.8184 -0.4958
14719TIP3    H265649   0.509   4.870   2.381  2.1229 -0.2225  2.9894
14720TIP3   OH265650   0.552   1.408  11.905 -0.6262  0.6452  0.6241
14720TIP3    H165651   0.605   1.329  11.912 -0.3715  0.8265  0.7462
14720TIP3    H265652   0.615   1.477  11.883 -0.7804  0.8999  0.9787
14721TIP3   OH265653   4.371   2.369  13.013  0.1058  0.4746 -0.1250
14721TIP3    H165654   4.378   2.347  13.106  2.5204  1.0586 -0.1423
14721TIP3    H265655   4.351   2.285  12.971 -0.4787  0.1105  0.8524
14722TIP3   OH265656   6.550   4.279  16.866 -0.1583  0.1140 -0.0600
14722TIP3    H165657   6.505   4.247  16.945 -0.5209 -0.8245 -0.6306
14722TIP3    H265658   6.480   4.316  16.812 -0.2758 -1.2985 -0.9288
14723TIP3   OH265659   4.581   1.424  13.996 -0.1777  0.0687 -0.2760
14723TIP3    H165660   4.646   1.424  14.066  0.2880  1.3599 -0.6922
14723TIP3    H265661   4.512   1.365  14.027  0.3095  0.1564  0.9923
14724TIP3   OH265662   5.403   4.368   2.159  0.0989  0.7403  0.1928
14724TIP3    H165663   5.338   4.300   2.174  0.7623 -0.3751 -1.8630
14724TIP3    H265664   5.353   4.450   2.163 -1.3286 -0.0627 -0.7627
14725TIP3   OH265665   0.511   0.105  11.391 -0.2323 -0.1077 -0.1295
14725TIP3    H165666   0.480   0.020  11.421  3.2852 -1.1236  0.8408
14725TIP3    H265667   0.491   0.106  11.297  1.8687 -3.0528 -0.6628
14726TIP3   OH265668   5.256   2.689   2.482  0.1853 -0.6736  0.0004
14726TIP3    H165669   5.229   2.606   2.442  0.0004 -0.6715  0.1202
14726TIP3    H265670   5.287   2.664   2.569 -1.6881 -0.3880  0.7812
14727TIP3   OH265671   2.964   3.882  16.456 -0.0802  0.2231 -0.0374
14727TIP3    H165672   2.871   3.867  16.439  0.5009 -2.1799 -1.3219
14727TIP3    H265673   2.971   3.879  16.552 -1.1536 -0.8814  0.0284
14728TIP3   OH265674   2.644   6.085  16.801 -0.1145  0.0333  0.3246
14728TIP3    H165675   2.642   6.095  16.897  0.5963 -1.5470  0.5120
14728TIP3    H265676   2.559   6.046  16.779 -0.3292  0.5131  0.2779
14729TIP3   OH265677   2.825   4.470  16.940 -0.5313 -0.3358 -0.2313
14729TIP3    H165678   2.877   4.525  16.882 -1.0390 -2.2341 -2.5603
14729TIP3    H265679   2.889   4.424  16.994  0.0258  0.0782 -0.5429
14730TIP3   OH265680   3.260   5.496  12.344  0.4898  0.7026  0.0775
14730TIP3    H165681   3.240   5.413  12.387  1.0463  0.6728  0.2778
14730TIP3    H265682   3.338   5.478  12.292 -0.5583  0.5596 -1.4695
14731TIP3   OH265683   4.141   1.876   3.401 -0.1811 -0.2402 -0.0245
14731TIP3    H165684   4.137   1.804   3.339  0.9794 -0.6069  0.3130
14731TIP3    H265685   4.050   1.891   3.427 -0.4932 -1.1665 -0.5708
14732TIP3   OH265686   2.099   5.227   1.616 -0.4106  0.0097  0.2874
14732TIP3    H165687   2.114   5.322   1.619 -2.0587  0.4519 -3.1392
14732TIP3    H265688   2.039   5.210   1.688  2.6159  0.9337  3.1861
14733TIP3   OH265689   4.298   0.079   5.050  0.7926 -0.3523 -0.3806
14733TIP3    H165690   4.224   0.020   5.034 -1.1232  1.4786  1.3100
14733TIP3    H265691   4.310   0.125   4.967  0.7217 -1.3934 -0.9775
14734TIP3   OH265692   1.269   4.567   4.431  0.5242 -0.0052 -0.0014
14734TIP3    H165693   1.340   4.538   4.488  0.5424  0.3395  0.1556
14734TIP3    H265694   1.314   4.604   4.355  0.5116 -0.0205 -0.0159
14735TIP3   OH265695   3.482   5.209  15.934  0.1289  0.1758  0.2980
14735TIP3    H165696   3.576   5.191  15.930  0.0228 -0.3228  0.0111
14735TIP3    H265697   3.472   5.269  16.008  0.8010  1.0716 -0.3341
14736TIP3   OH265698   6.418   1.328   2.795  0.1078  0.6641  0.3957
14736TIP3    H165699   6.383   1.246   2.758 -0.1232  0.1671  1.6981
14736TIP3    H265700   6.463   1.369   2.722 -1.1301  0.1347 -0.7010
14737TIP3   OH265701   6.777   6.767   3.551  0.0266 -0.5584  0.0212
14737TIP3    H165702   6.829   6.836   3.593 -1.0886 -0.4350  1.2317
14737TIP3    H265703   6.699   6.812   3.519 -1.5611 -1.5284  2.4018
14738TIP3   OH265704   5.333   4.895   2.496 -0.0877 -0.0531 -0.1568
14738TIP3    H165705   5.386   4.913   2.418  0.4112 -0.6911  0.0403
14738TIP3    H265706   5.367   4.813   2.531 -0.3253  0.2148  0.7268
14739TIP3   OH265707   6.098   5.599   0.833 -0.7350  0.0484 -0.3699
14739TIP3    H165708   6.035   5.667   0.857 -0.1473  0.1161  1.0347
14739TIP3    H265709   6.134   5.629   0.749 -2.0713  0.3423 -0.8494
14740TIP3   OH265710   5.530   1.184  13.487  0.2886  0.1387 -0.2445
14740TIP3    H165711   5.579   1.170  13.568  2.3344  0.6228 -1.3648
14740TIP3    H265712   5.515   1.095  13.453  1.8717  0.0540 -0.7441
14741TIP3   OH265713   6.622   6.560  16.235  0.0827 -0.4715  0.2969
14741TIP3    H165714   6.556   6.593  16.175  0.9232 -2.1579 -1.6003
14741TIP3    H265715   6.697   6.618  16.222 -0.6582  0.8409  1.7439
14742TIP3   OH265716   4.059   4.871   2.414 -0.2672  0.0849 -0.1117
14742TIP3    H165717   3.972   4.845   2.382 -0.9969 -0.3759  2.1725
14742TIP3    H265718   4.101   4.910   2.338 -2.0666 -0.6873 -1.5579
14743TIP3   OH265719   4.679   1.350  14.750  0.5259 -0.0416  0.3595
14743TIP3    H165720   4.769   1.381  14.743  0.3807  0.6297  1.4343
14743TIP3    H265721   4.678   1.297  14.830 -0.0647  0.0685  0.4261
14744TIP3   OH265722   4.555   6.635  14.353  0.4750 -0.0386 -0.5246
14744TIP3    H165723   4.572   6.672  14.266 -1.3583 -0.7905 -1.2284
14744TIP3    H265724   4.518   6.708  14.403 -0.1722 -0.0678 -0.9465
14745TIP3   OH265725   3.759   3.285  11.723 -0.0151 -0.1756  0.4553
14745TIP3    H165726   3.767   3.275  11.818 -0.0919  1.9195  0.7197
14745TIP3    H265727   3.841   3.250  11.689  0.6137  0.3077  1.4243
14746TIP3   OH265728   4.458   6.064  17.138  0.0494 -0.2562 -0.1300
14746TIP3    H165729   4.405   6.106  17.071  1.3744  1.5153 -0.1017
14746TIP3    H265730   4.410   6.078  17.220 -0.4782 -0.5104 -0.3985
14747TIP3   OH265731   1.992   6.702  12.771  0.2036  0.5677  0.1858
14747TIP3    H165732   1.958   6.691  12.682 -0.6986  1.3610  0.4153
14747TIP3    H265733   1.914   6.700  12.827  0.7720 -0.0241  0.9679
14748TIP3   OH265734   6.330   5.293  14.212 -0.0245 -0.3735  0.1728
14748TIP3    H165735   6.339   5.211  14.164  2.5724  0.2379 -0.4536
14748TIP3    H265736   6.403   5.347  14.182 -0.6471  1.5117  1.8946
14749TIP3   OH265737   6.193   5.414  13.310 -0.1614 -0.0890  0.0323
14749TIP3    H165738   6.284   5.444  13.312  0.5037 -2.0729  0.4536
14749TIP3    H265739   6.191   5.347  13.241 -1.5680  0.7147 -0.7374
14750TIP3   OH265740   5.269   2.280   1.455 -0.7540 -0.5793  0.1379
14750TIP3    H165741   5.240   2.371   1.449 -3.6271 -1.3512  1.1967
14750TIP3    H265742   5.271   2.262   1.548  0.9942 -1.2764 -0.0227
14751TIP3   OH265743   4.294   4.259   0.536 -0.2775 -0.3527  0.2347
14751TIP3    H165744   4.286   4.180   0.483 -0.7400 -0.1738  0.0414
14751TIP3    H265745   4.366   4.239   0.597 -0.6750 -1.0882  0.4740
14752TIP3   OH265746   1.476   1.633   1.061 -0.3203 -0.2269 -0.1399
14752TIP3    H165747   1.388   1.657   1.090 -0.3323  0.5568 -0.8048
14752TIP3    H265748   1.462   1.555   1.007 -0.6587  0.1184 -0.5588
14753TIP3   OH265749   1.095   5.278   4.646 -0.4258 -0.5940  0.1835
14753TIP3    H165750   1.126   5.208   4.587  1.0324 -0.7514  1.1246
14753TIP3    H265751   1.079   5.352   4.588  0.8524 -0.7989 -0.4483
14754TIP3   OH265752   3.795   2.631   0.851  0.2055  0.2858  0.5751
14754TIP3    H165753   3.844   2.711   0.832 -1.9549  1.4560 -0.2526
14754TIP3    H265754   3.798   2.623   0.946 -0.3158  1.8443  0.7296
14755TIP3   OH265755   6.206   6.584  16.886 -0.6856  0.1951 -0.2112
14755TIP3    H165756   6.182   6.586  16.794 -1.4255  1.3619 -0.0053
14755TIP3    H265757   6.147   6.519  16.925 -0.2276 -0.4516 -0.5952
14756TIP3   OH265758   4.733   2.680  12.153  0.2430  0.0332 -0.6271
14756TIP3    H165759   4.742   2.725  12.237  0.4532 -0.2103 -0.5180
14756TIP3    H265760   4.665   2.615  12.167  0.5505 -0.2722 -0.5290
14757TIP3   OH265761   3.562   6.003  15.465 -0.9053  0.4898 -0.4779
14757TIP3    H165762   3.579   6.039  15.378 -2.8439  1.1140 -0.6278
14757TIP3    H265763   3.476   5.961  15.457  0.3248 -2.2277  0.2991
14758TIP3   OH265764   5.401   3.056   5.818 -0.2159 -0.5601  0.6063
14758TIP3    H165765   5.464   3.048   5.889  1.3056 -3.0197 -0.9654
14758TIP3    H265766   5.373   3.148   5.821  2.2296  0.1657  2.3299
14759TIP3   OH265767   0.922   2.827  16.226  0.0713  0.2056  0.3977
14759TIP3    H165768   0.873   2.833  16.144  0.2486 -0.2186  0.2635
14759TIP3    H265769   0.919   2.916  16.262  2.1429  0.9994 -1.2739
14760TIP3   OH265770   3.089   6.789  13.678  0.0290  0.3836  0.7668
14760TIP3    H165771   3.085   6.823  13.767  0.3216  1.6960  0.2859
14760TIP3    H265772   3.035   6.710  13.680  1.0908 -0.3240  2.4255
14761TIP3   OH265773   0.458   3.797  12.054 -0.1434 -0.2751 -0.0913
14761TIP3    H165774   0.445   3.839  11.968 -3.1083 -0.5311  0.1885
14761TIP3    H265775   0.426   3.708  12.042 -0.1396 -0.4523  1.1656
14762TIP3   OH265776   4.634   1.133  10.952 -0.2832 -0.4116  0.2494
14762TIP3    H165777   4.672   1.076  11.018 -0.2101 -0.7224 -0.0622
14762TIP3    H265778   4.557   1.171  10.995 -0.7799 -1.3502  0.1848
14763TIP3   OH265779   6.075   1.527   2.724 -0.1180 -0.1333  0.0706
14763TIP3    H165780   6.088   1.535   2.630  0.2985 -0.2477  0.1160
14763TIP3    H265781   6.162   1.545   2.762 -0.4018  0.4324  0.4566
14764TIP3   OH265782   2.772   4.324   2.943  0.5142  0.4946 -0.8652
14764TIP3    H165783   2.800   4.283   2.861  3.0355 -0.6068  0.5034
14764TIP3    H265784   2.818   4.275   3.011 -0.7584  2.0444  1.1598
14765TIP3   OH265785   1.403   0.338   5.455  0.2548  0.1542 -0.3166
14765TIP3    H165786   1.344   0.359   5.527 -0.5731 -1.0650 -0.6190
14765TIP3    H265787   1.456   0.264   5.488  2.0991  1.6553  0.2012
14766TIP3   OH265788   2.666   2.980   4.991  0.1622  0.5796 -0.0453
14766TIP3    H165789   2.693   3.071   4.991  0.2999  0.6057 -3.3973
14766TIP3    H265790   2.712   2.941   4.917 -2.2024 -1.4636 -0.5222
14767TIP3   OH265791   5.954   3.859  17.135 -0.4630  0.3052  0.2214
14767TIP3    H165792   5.960   3.872  17.230  0.9063  2.4622 -0.1224
14767TIP3    H265793   6.045   3.852  17.106 -0.8759 -0.2854 -0.9454
14768TIP3   OH265794   1.566   3.854  11.149 -0.4594 -0.5527  0.1933
14768TIP3    H165795   1.561   3.768  11.108 -0.4367 -0.7049  0.5145
14768TIP3    H265796   1.619   3.906  11.088 -1.4689 -0.4176 -0.6020
14769TIP3   OH265797   5.957   1.781  12.763 -0.6340 -0.2988 -0.2543
14769TIP3    H165798   6.035   1.795  12.709  0.6298 -0.6968  1.4229
14769TIP3    H265799   5.927   1.694  12.740 -1.6364  0.5188 -2.1740
14770TIP3   OH265800   0.599   3.142   2.505 -0.7640 -0.0450  0.1658
14770TIP3    H165801   0.552   3.156   2.423 -2.0522 -2.5411  0.4316
14770TIP3    H265802   0.531   3.144   2.572  0.1182  0.7494  1.0376
14771TIP3   OH265803   4.816   1.007   2.243 -0.1490  0.1498  0.4470
14771TIP3    H165804   4.798   0.917   2.270 -0.1563 -0.2031 -0.7426
14771TIP3    H265805   4.782   1.061   2.315 -1.7472 -0.7129  0.3501
14772TIP3   OH265806   1.097   3.487  16.523  0.2596 -0.4352 -0.6532
14772TIP3    H165807   1.127   3.578  16.514 -0.1470 -0.2657 -0.3042
14772TIP3    H265808   1.158   3.448  16.585 -0.4675  0.0206  0.3679
14773TIP3   OH265809   4.970   3.348   1.846 -0.4640 -0.0100 -0.4342
14773TIP3    H165810   5.058   3.335   1.812 -0.2821 -0.2164  0.1198
14773TIP3    H265811   4.971   3.435   1.884 -0.1638 -0.4546  0.6016
14774TIP3   OH265812   3.922   0.078  12.605  0.2872  0.3095  0.5862
14774TIP3    H165813   3.981   0.047  12.537  1.2431 -0.0180  1.5557
14774TIP3    H265814   3.834   0.068  12.568  0.6483 -2.4261  0.4195
14775TIP3   OH265815   2.596   2.624   3.337  0.1027  0.4323 -0.1538
14775TIP3    H165816   2.595   2.666   3.251  0.2895  0.6240 -0.0648
14775TIP3    H265817   2.675   2.570   3.335  0.3721  0.8121  0.0715
14776TIP3   OH265818   3.709   3.240   0.785  0.8084 -0.3522  0.0356
14776TIP3    H165819   3.784   3.292   0.815  1.2030 -1.2016  0.5494
14776TIP3    H265820   3.718   3.239   0.690  0.6887  0.6769  0.0093
14777TIP3   OH265821   4.326   4.151  11.047 -0.6214 -0.5999 -0.3121
14777TIP3    H165822   4.344   4.208  10.973 -2.7583  1.9248  1.0263
14777TIP3    H265823   4.246   4.186  11.086 -0.7087 -3.1128  1.9627
14778TIP3   OH265824   0.695   6.219  13.035 -0.1918 -0.4824 -0.3324
14778TIP3    H165825   0.755   6.232  12.961 -0.2069  0.3391 -0.2052
14778TIP3    H265826   0.706   6.298  13.088 -1.1462 -0.4865 -0.1339
14779TIP3   OH265827   6.678   5.522   2.710  0.4368 -0.0538  0.5571
14779TIP3    H165828   6.644   5.510   2.798 -0.2699  1.6015  0.5312
14779TIP3    H265829   6.732   5.601   2.715  0.2329  0.1691 -0.5290
14780TIP3   OH265830   5.689   2.988  15.239 -0.6829 -0.4399 -0.4560
14780TIP3    H165831   5.658   3.024  15.322  0.0299  2.1893 -1.2645
14780TIP3    H265832   5.773   2.946  15.261 -0.6310 -0.0007  0.2140
14781TIP3   OH265833   6.142   2.597   3.724 -0.0142  0.0606  0.3073
14781TIP3    H165834   6.068   2.595   3.663  1.9956  0.0942 -2.2722
14781TIP3    H265835   6.218   2.579   3.668  1.6977 -2.1092  3.2355
14782TIP3   OH265836   1.662   5.227   4.390  0.3695 -0.2345 -0.3207
14782TIP3    H165837   1.709   5.252   4.470  0.1993 -1.1756  0.0860
14782TIP3    H265838   1.572   5.212   4.419  0.5438 -1.6578 -0.4645
14783TIP3   OH265839   5.261   0.637  16.947  0.1520 -0.1334  0.3844
14783TIP3    H165840   5.329   0.670  16.889  0.3618  2.0130  1.7830
14783TIP3    H265841   5.223   0.563  16.900  0.1272  1.7092 -2.6039
14784TIP3   OH265842   1.472   2.617   2.485  0.9268 -0.4627  0.1333
14784TIP3    H165843   1.442   2.592   2.397 -0.5600  2.0443 -0.1165
14784TIP3    H265844   1.545   2.676   2.468  1.1355 -0.5853  0.6163
14785TIP3   OH265845   0.197   3.993   3.245 -0.2586 -0.6661 -0.1000
14785TIP3    H165846   0.236   4.067   3.291 -1.2840 -0.2545  0.1107
14785TIP3    H265847   0.272   3.937   3.222  0.6763  1.0531 -1.4048
14786TIP3   OH265848   3.945   1.829   2.905  0.2589  0.0602 -0.0420
14786TIP3    H165849   4.031   1.789   2.895  0.1643 -0.0683 -0.3573
14786TIP3    H265850   3.905   1.783   2.979  0.3817 -0.0139 -0.0220
14787TIP3   OH265851   1.979   3.085   0.688  0.3735  0.0956 -0.4446
14787TIP3    H165852   1.908   3.091   0.624  0.7423  0.3239 -0.8418
14787TIP3    H265853   1.936   3.085   0.773 -0.1525 -0.6732 -0.7079
14788TIP3   OH265854   1.342   1.637   1.697 -0.4595 -0.1483 -0.3343
14788TIP3    H165855   1.389   1.556   1.720  0.1401  0.3795  0.3136
14788TIP3    H265856   1.401   1.707   1.724 -1.4991  0.5278  0.2018
14789TIP3   OH265857   2.251   2.813  16.632  0.7025 -0.0384  0.2248
14789TIP3    H165858   2.324   2.754  16.614 -0.5496 -1.5555  0.0619
14789TIP3    H265859   2.243   2.866  16.552 -0.3030 -1.9365 -0.9623
14790TIP3   OH265860   2.069   3.071   0.118 -0.5565  0.3033 -0.0387
14790TIP3    H165861   2.108   2.988   0.092 -1.5407 -0.5572  1.1690
14790TIP3    H265862   2.015   3.049   0.194 -2.2880  1.6987 -0.8282
14791TIP3   OH265863   6.319   1.528   0.210 -0.1718  0.2380  0.2335
14791TIP3    H165864   6.354   1.456   0.158  0.3727  0.1226  0.7580
14791TIP3    H265865   6.389   1.551   0.271 -0.7443  0.4806  0.8145
14792TIP3   OH265866   4.519   0.083  17.246 -0.0748 -0.2923  0.4762
14792TIP3    H165867   4.544   0.156  17.190 -0.3213 -0.1345  0.5722
14792TIP3    H265868   4.522   0.006  17.188  1.4611 -0.4097  0.6940
14793TIP3   OH265869   2.213   5.174   5.298 -0.2698 -0.2115 -0.6517
14793TIP3    H165870   2.286   5.145   5.352 -0.6481  0.5319  0.2662
14793TIP3    H265871   2.164   5.093   5.279  1.6917 -0.9623 -2.6720
14794TIP3   OH265872   0.850   4.004  11.632 -0.1487  0.3673 -0.2207
14794TIP3    H165873   0.902   3.930  11.665 -3.1899 -1.3781  0.8222
14794TIP3    H265874   0.905   4.043  11.564  1.5678 -2.7926 -0.7498
14795TIP3   OH265875   4.835   0.803   5.743 -0.0949 -0.1505  0.0208
14795TIP3    H165876   4.807   0.825   5.655  1.3388  1.8533  0.0316
14795TIP3    H265877   4.781   0.858   5.800 -0.4180 -0.8133  0.3668
14796TIP3   OH265878   1.989   6.296  15.457  0.4427 -0.9352 -0.1238
14796TIP3    H165879   2.021   6.329  15.541  0.1298 -0.6099 -0.1309
14796TIP3    H265880   1.896   6.318  15.456  0.6901  0.1211 -1.0518
14797TIP3   OH265881   1.953   0.069  11.217  0.6812 -0.4767  0.3309
14797TIP3    H165882   2.010   0.139  11.184 -1.1520  0.5016 -0.9075
14797TIP3    H265883   1.908   0.108  11.292  1.5790 -1.2146  1.2568
14798TIP3   OH265884   2.268   1.464   4.039  0.0696 -0.3112  0.4611
14798TIP3    H165885   2.229   1.480   3.953  1.1975 -2.2092 -0.4268
14798TIP3    H265886   2.289   1.371   4.039 -0.3016 -0.4151  2.9707
14799TIP3   OH265887   2.655   3.970  15.683 -0.5520 -0.0550 -0.4975
14799TIP3    H165888   2.746   3.949  15.663  0.4518  0.6217  2.9546
14799TIP3    H265889   2.618   3.887  15.713  0.4087  0.6488  2.8780
14800TIP3   OH265890   0.512   6.699   1.800  0.6839 -0.2218 -0.2494
14800TIP3    H165891   0.548   6.788   1.796 -0.9108  0.3703 -2.1448
14800TIP3    H265892   0.469   6.687   1.715 -0.2829 -2.3049  0.5103
14801TIP3   OH265893   1.714   2.929  13.511 -0.0756  0.1838  0.2159
14801TIP3    H165894   1.802   2.893  13.520 -0.3004 -0.8411 -1.6114
14801TIP3    H265895   1.687   2.948  13.601  1.6853 -0.2578  0.8512
14802TIP3   OH265896   1.145   3.157  16.003 -0.5510  0.1212 -0.1541
14802TIP3    H165897   1.075   3.198  16.053 -0.3408 -0.6595  0.7937
14802TIP3    H265898   1.114   3.067  15.989  1.7059 -1.2300  3.1616
14803TIP3   OH265899   6.004   5.394  16.622 -0.4639  0.1404 -0.1286
14803TIP3    H165900   5.974   5.372  16.710 -1.1047  0.1398 -0.3387
14803TIP3    H265901   6.083   5.342  16.609 -0.9319 -0.6219  0.0662
14804TIP3   OH265902   3.677   3.174  15.133 -0.1205 -0.0972  0.0732
14804TIP3    H165903   3.682   3.106  15.200 -1.4968  0.1054  0.3947
14804TIP3    H265904   3.646   3.129  15.055 -2.0409  0.3260  0.5628
14805TIP3   OH265905   6.795   4.627  10.985  0.1920 -0.3687 -0.4394
14805TIP3    H165906   6.817   4.587  10.901  1.1790  1.1464 -0.9074
14805TIP3    H265907   6.700   4.617  10.992  0.0221  0.0694 -2.0371
14806TIP3   OH265908   1.427   3.059  15.477  0.0511  0.1461  0.5204
14806TIP3    H165909   1.389   3.147  15.472 -1.2621 -0.4415  0.0499
14806TIP3    H265910   1.433   3.031  15.386 -0.7741 -0.7658  0.7391
14807TIP3   OH265911   2.223   3.828  14.076 -0.6302 -0.1397 -0.0455
14807TIP3    H165912   2.263   3.865  13.998  1.1324 -1.3332  0.2501
14807TIP3    H265913   2.183   3.746  14.047 -1.2262  0.1299  0.0169
14808TIP3   OH265914   0.366   3.480  14.878  0.0192 -0.1054 -0.0854
14808TIP3    H165915   0.423   3.534  14.823  0.4434 -0.1400  0.3231
14808TIP3    H265916   0.316   3.428  14.815 -0.2174  0.5806 -0.4772
14809TIP3   OH265917   1.295   2.785   1.250 -0.2175  0.1425  0.4737
14809TIP3    H165918   1.254   2.824   1.173  0.9254 -0.9152 -0.6873
14809TIP3    H265919   1.226   2.786   1.317 -1.5266  0.1604 -0.8594
14810TIP3   OH265920   5.235   4.767   3.617 -0.1373  0.0025 -0.6286
14810TIP3    H165921   5.167   4.807   3.562 -0.2803  0.7399  0.0708
14810TIP3    H265922   5.191   4.694   3.660  0.0409 -0.7413 -1.6712
14811TIP3   OH265923   3.629   3.119  13.603  0.2384 -0.0767 -0.2763
14811TIP3    H165924   3.562   3.051  13.601 -0.2675  0.4397 -1.9564
14811TIP3    H265925   3.610   3.173  13.526  0.3656  2.2207  1.2473
14812TIP3   OH265926   5.641   5.180   2.653  0.4570 -1.0612 -0.1438
14812TIP3    H165927   5.562   5.224   2.621  0.8516 -0.7877 -0.7491
14812TIP3    H265928   5.667   5.122   2.581  0.7494 -1.2314  0.0985
14813TIP3   OH265929   4.404   0.372  15.717 -0.3974  0.1826 -0.6880
14813TIP3    H165930   4.312   0.350  15.730 -0.1097 -1.9897 -1.9524
14813TIP3    H265931   4.409   0.402  15.626  0.0887  0.5688 -0.5353
14814TIP3   OH265932   5.532   0.866  13.492 -0.7273 -0.0697 -0.3387
14814TIP3    H165933   5.557   0.860  13.584 -0.2020  2.1360 -0.3138
14814TIP3    H265934   5.590   0.804  13.447  1.0068  0.9517  0.4503
14815TIP3   OH265935   1.873   1.973   4.040 -0.2192 -0.1033  0.2882
14815TIP3    H165936   1.952   1.927   4.012  0.2800  1.0097 -0.1621
14815TIP3    H265937   1.893   2.006   4.127  0.3576  1.4281 -0.4099
14816TIP3   OH265938   0.315   1.592  16.549  0.3665 -0.9496  0.5055
14816TIP3    H165939   0.247   1.572  16.613 -0.6463 -0.1373 -0.2919
14816TIP3    H265940   0.301   1.529  16.478 -0.7275  0.3860 -0.4920
14817TIP3   OH265941   1.380   5.908   3.686  0.0258 -0.3441  0.0730
14817TIP3    H165942   1.395   5.880   3.596 -0.9777 -1.5583  0.2582
14817TIP3    H265943   1.368   5.826   3.734  0.6944  0.2903  1.3281
14818TIP3   OH265944   4.513   3.554  14.135  0.0570  0.3550  0.4455
14818TIP3    H165945   4.519   3.642  14.171  0.0134  0.0369  1.2340
14818TIP3    H265946   4.435   3.516  14.174 -2.5209  1.4874 -3.3039
14819TIP3   OH265947   3.005   1.190  14.372 -0.3282  0.1135 -0.6092
14819TIP3    H165948   3.060   1.181  14.294 -0.8635  0.3083 -1.0117
14819TIP3    H265949   3.060   1.159  14.444 -0.1713 -1.0184 -1.1957
14820TIP3   OH265950   5.978   5.639   3.047  0.3808  0.4239  0.2342
14820TIP3    H165951   6.069   5.649   3.021  0.5860  1.5126  1.3080
14820TIP3    H265952   5.931   5.622   2.965  1.2587  1.9749 -0.6167
14821TIP3   OH265953   2.010   5.704  15.067  0.1267 -0.0279  0.3401
14821TIP3    H165954   2.086   5.760  15.084 -1.9317  2.6390  1.1164
14821TIP3    H265955   1.946   5.731  15.132 -2.7906  0.2779 -2.5563
14822TIP3   OH265956   0.402   3.657  11.487 -0.3481  0.0726  0.0897
14822TIP3    H165957   0.330   3.719  11.480  0.1483  0.6685  0.1636
14822TIP3    H265958   0.360   3.572  11.500 -1.0639  0.2422 -1.0556
14823TIP3   OH265959   1.411   0.993   1.764 -0.3592 -0.1236  0.6580
14823TIP3    H165960   1.373   0.930   1.825 -0.1395  0.5062  1.4470
14823TIP3    H265961   1.338   1.051   1.742  0.0137  0.7929  1.7976
14824TIP3   OH265962   2.881   6.744  15.380  1.0666  0.3305 -0.2856
14824TIP3    H165963   2.872   6.726  15.473 -1.1877 -1.2406 -0.7697
14824TIP3    H265964   2.956   6.691  15.352  2.4627  1.6766  0.8118
14825TIP3   OH265965   5.151   2.442   4.363  0.3892  0.6046  0.1014
14825TIP3    H165966   5.175   2.501   4.291  1.3486  1.3095  0.9800
14825TIP3    H265967   5.141   2.357   4.322  1.0267  0.9800 -0.8596
14826TIP3   OH265968   5.155   0.582   5.361 -0.3207 -0.4474 -0.0951
14826TIP3    H165969   5.188   0.562   5.274  1.0437 -1.4515  0.6221
14826TIP3    H265970   5.208   0.656   5.391 -1.3603  0.4453 -0.4368
14827TIP3   OH265971   5.876   1.512  16.340 -0.0312  0.0878  0.0444
14827TIP3    H165972   5.828   1.461  16.274 -1.2482 -0.3622  1.2413
14827TIP3    H265973   5.952   1.458  16.361 -0.1506 -0.2163 -0.2961
14828TIP3   OH265974   3.088   0.375   3.918 -0.1883  0.1380  0.1819
14828TIP3    H165975   3.058   0.463   3.943  0.0570  0.6542 -1.2870
14828TIP3    H265976   3.107   0.332   4.001 -2.6617  0.6251  1.0299
14829TIP3   OH265977   1.209   0.524   2.379  0.2124  0.6344  0.3097
14829TIP3    H165978   1.265   0.526   2.301  0.0242  2.0909  0.1942
14829TIP3    H265979   1.196   0.616   2.401 -2.5039  0.3328  0.0773
14830TIP3   OH265980   1.756   4.715  12.673 -0.2439 -1.0621  0.0652
14830TIP3    H165981   1.754   4.684  12.763 -2.9783 -1.7011 -0.1878
14830TIP3    H265982   1.772   4.636  12.621 -0.5366 -0.9961 -0.1251
14831TIP3   OH265983   2.231   2.346  14.833 -0.0153 -0.1826 -0.3571
14831TIP3    H165984   2.283   2.372  14.910 -1.3489  0.3210  0.3958
14831TIP3    H265985   2.192   2.263  14.859 -0.6366  0.0938 -0.4085
14832TIP3   OH265986   2.453   4.705  14.787  0.4431 -0.2311  0.0623
14832TIP3    H165987   2.483   4.620  14.754  1.4879 -0.8116  2.4425
14832TIP3    H265988   2.503   4.719  14.867 -0.9109  1.8772  0.5790
14833TIP3   OH265989   5.976   5.247   2.135  0.1213  0.8086  0.3215
14833TIP3    H165990   5.975   5.162   2.180  1.7290  0.8791  0.5397
14833TIP3    H265991   5.936   5.231   2.050  1.5851 -0.4699 -0.1349
14834TIP3   OH265992   6.528   5.420  15.329 -0.5967  0.5559  0.0981
14834TIP3    H165993   6.618   5.442  15.351 -0.8289 -0.2626  1.9989
14834TIP3    H265994   6.535   5.346  15.270 -0.0481 -0.9609  2.0171
14835TIP3   OH265995   6.193   3.931   2.991 -0.1048  0.3589 -0.2245
14835TIP3    H165996   6.220   4.015   2.954 -0.6666  0.7711  0.2880
14835TIP3    H265997   6.220   3.935   3.083 -1.7120  0.7003  0.2472
14836TIP3   OH265998   4.617   1.926  11.009  0.0900  0.0406 -0.1021
14836TIP3    H165999   4.596   1.843  10.967 -1.6296  0.5623 -0.2996
14836TIP3    H266000   4.584   1.992  10.950  0.3449  0.8527  0.6530
14837TIP3   OH266001   5.823   3.780   2.054  0.3643 -0.1252 -0.1559
14837TIP3    H166002   5.787   3.786   1.966 -0.1616  1.3309  0.1392
14837TIP3    H266003   5.756   3.820   2.110  0.6866 -1.0394  0.9092
14838TIP3   OH266004   5.922   4.142   3.710  0.5179 -0.4295  0.1267
14838TIP3    H166005   5.962   4.186   3.636  0.5942 -1.8647 -0.7059
14838TIP3    H266006   5.995   4.112   3.764  0.5075 -0.7814 -0.0518
14839TIP3   OH266007   6.290   1.591  14.622  0.2458 -0.2452 -0.5141
14839TIP3    H166008   6.233   1.667  14.608 -0.3576 -0.5365  0.3072
14839TIP3    H266009   6.371   1.613  14.578 -0.9363 -0.3326 -2.8107
14840TIP3   OH266010   2.509   2.551   0.135 -1.0283  0.0522  0.2322
14840TIP3    H166011   2.533   2.627   0.081 -0.5778 -0.5322 -0.4000
14840TIP3    H266012   2.439   2.584   0.192  0.2473  1.3784  1.0804
14841TIP3   OH266013   0.655   4.754   3.760 -0.2363  0.2772 -0.2039
14841TIP3    H166014   0.688   4.781   3.846  1.6028 -0.9840 -0.4909
14841TIP3    H266015   0.576   4.703   3.780 -1.4311  2.3832  0.5515
14842TIP3   OH266016   4.764   3.708  13.776  0.1738  0.2415 -0.4575
14842TIP3    H166017   4.701   3.778  13.758  0.1875  0.7929  1.5671
14842TIP3    H266018   4.713   3.637  13.814  0.4119 -0.2266 -1.0038
14843TIP3   OH266019   1.691   6.804  11.097 -0.3952 -1.0331  0.0964
14843TIP3    H166020   1.644   6.846  11.025 -0.0718 -1.8676 -0.6130
14843TIP3    H266021   1.765   6.862  11.114 -0.3142 -0.9786 -0.4345
14844TIP3   OH266022   2.854   5.159  11.587 -0.2243 -0.1817  0.8833
14844TIP3    H166023   2.770   5.153  11.633 -0.0849  0.9867  1.3191
14844TIP3    H266024   2.919   5.128  11.650 -0.2799 -0.6578  0.7060
14845TIP3   OH266025   6.454   5.948   2.635 -0.2193 -0.1680 -0.3600
14845TIP3    H166026   6.477   5.860   2.665 -1.1554 -0.4258 -0.3890
14845TIP3    H266027   6.369   5.938   2.594 -0.9688  1.0151  0.8562
14846TIP3   OH266028   4.248   0.848  14.491  0.1168  0.2211  0.5147
14846TIP3    H166029   4.321   0.890  14.537  1.0134  0.3686 -1.0022
14846TIP3    H266030   4.289   0.780  14.438 -0.7829  0.6853 -0.7874
14847TIP3   OH266031   2.109   5.585  13.792  1.0043  0.1057 -0.3583
14847TIP3    H166032   2.139   5.601  13.703  1.2529  1.3134 -0.0746
14847TIP3    H266033   2.014   5.596  13.788  1.1622  1.6689 -0.1890
14848TIP3   OH266034   5.221   6.180  15.087 -0.0567 -0.1513  0.2322
14848TIP3    H166035   5.179   6.264  15.108 -0.8276 -0.5730  0.3904
14848TIP3    H266036   5.249   6.189  14.996  0.4640  0.5200  0.4461
14849TIP3   OH266037   1.999   5.640   3.000  0.2871 -0.1236  0.1201
14849TIP3    H166038   2.004   5.592   2.918 -0.6804 -1.4815  0.8389
14849TIP3    H266039   2.075   5.610   3.051  1.7389  1.8246 -0.8334
14850TIP3   OH266040   5.986   5.569  14.219 -0.6311  0.0378 -0.2408
14850TIP3    H166041   5.988   5.631  14.292 -4.6187 -1.2973  1.1892
14850TIP3    H266042   6.073   5.573  14.180  0.9888  2.2423  3.3863
14851TIP3   OH266043   1.126   2.492  15.112  0.6990  0.3308 -0.3394
14851TIP3    H166044   1.052   2.534  15.068  0.3487  0.2114  0.1299
14851TIP3    H266045   1.200   2.551  15.097 -0.3839  2.6429  2.7406
14852TIP3   OH266046   1.158   5.456  12.218  0.2753  0.1182 -0.1386
14852TIP3    H166047   1.094   5.437  12.286  0.4399  3.5008  1.1070
14852TIP3    H266048   1.109   5.504  12.152  0.7006 -0.7508 -1.0931
14853TIP3   OH266049   3.960   2.037  15.111  0.3460 -0.1043  0.2397
14853TIP3    H166050   3.910   2.093  15.051  1.5061  0.4989 -0.1728
14853TIP3    H266051   3.913   1.954  15.110 -1.3449  0.8187  0.7732
14854TIP3   OH266052   0.853   3.304   6.631  0.0702  0.1499 -0.0453
14854TIP3    H166053   0.836   3.379   6.688  0.7303  1.1477 -1.1577
14854TIP3    H266054   0.832   3.335   6.543  2.0636 -0.4057 -0.7351
14855TIP3   OH266055   6.280   1.108  14.938 -0.0939  0.2195  0.2842
14855TIP3    H166056   6.266   1.101  14.844 -0.7171  0.0274  0.3851
14855TIP3    H266057   6.356   1.053  14.956  0.0909  0.3413 -0.1190
14856TIP3   OH266058   2.863   6.095  15.168 -0.4797  0.0262  0.0608
14856TIP3    H166059   2.897   6.015  15.208  0.1962  0.5914  0.6205
14856TIP3    H266060   2.842   6.152  15.242 -0.5751  0.5246 -0.3487
14857TIP3   OH266061   3.316   5.666   0.515 -0.0407 -0.0617  0.6092
14857TIP3    H166062   3.256   5.600   0.481  0.5369 -0.6223  0.6630
14857TIP3    H266063   3.378   5.681   0.443 -1.4047  1.9792 -0.1865
14858TIP3   OH266064   2.116   2.063  13.593 -0.0516  0.0435 -0.1916
14858TIP3    H166065   2.185   2.091  13.533  0.7763  1.6162  1.4289
14858TIP3    H266066   2.139   2.104  13.677 -0.6140 -2.9097  1.4831
14859TIP3   OH266067   0.661   6.715   0.559 -0.1403  0.3686 -0.5054
14859TIP3    H166068   0.710   6.794   0.580  1.6442 -0.0270 -3.0435
14859TIP3    H266069   0.726   6.645   0.563 -1.5932 -0.9265  1.1778
14860TIP3   OH266070   0.899   1.564  10.810  0.2008 -0.3129 -0.7444
14860TIP3    H166071   0.959   1.554  10.885 -0.5948 -0.7343 -0.1655
14860TIP3    H266072   0.943   1.628  10.754  0.3470  0.7458  0.5525
14861TIP3   OH266073   2.223   5.432  11.174 -0.0184  0.1927  0.5008
14861TIP3    H166074   2.272   5.465  11.099 -0.7833 -1.5188 -0.7797
14861TIP3    H266075   2.215   5.338  11.158  1.2767 -0.4899  3.5714
14862TIP3   OH266076   2.864   4.203   2.177  0.3499  0.6268 -0.5229
14862TIP3    H166077   2.832   4.113   2.180  0.7183  0.5393  1.7218
14862TIP3    H266078   2.791   4.253   2.142 -0.6339 -0.2159  0.3059
14863TIP3   OH266079   3.138   3.595  14.617  0.2421  0.0711  0.0211
14863TIP3    H166080   3.101   3.658  14.679 -0.1931  0.0524 -0.2223
14863TIP3    H266081   3.227   3.578  14.650  1.0294  2.1748 -0.8930
14864TIP3   OH266082   4.000   1.245   2.870 -0.1017  0.2171  0.0500
14864TIP3    H166083   4.059   1.170   2.870  0.0124  0.3037 -1.1812
14864TIP3    H266084   4.057   1.320   2.882  0.2197  0.4227 -2.5479
14865TIP3   OH266085   2.127   5.079   5.780 -0.0079  0.1962 -0.2530
14865TIP3    H166086   2.188   5.113   5.845 -1.3478  0.1664  1.0312
14865TIP3    H266087   2.180   5.020   5.726  1.3704  1.1037  0.0774
14866TIP3   OH266088   1.507   0.089   6.136  0.7831  0.2043 -0.0956
14866TIP3    H166089   1.448   0.108   6.063  1.2602  1.4745 -0.1716
14866TIP3    H266090   1.505   0.169   6.190 -0.0668 -0.9587  1.6261
14867TIP3   OH266091   1.815   0.464   4.858  0.1170  0.1574  0.0251
14867TIP3    H166092   1.733   0.506   4.883  0.2279  0.0632  0.5548
14867TIP3    H266093   1.789   0.379   4.822 -0.0178  0.1125  0.2266
14868TIP3   OH266094   4.061   2.957  13.408  0.0320 -0.1164  0.0465
14868TIP3    H166095   4.126   3.010  13.454 -1.0317 -0.2864  1.7811
14868TIP3    H266096   4.090   2.867  13.420 -1.0608 -0.2607  1.7025
14869TIP3   OH266097   2.706   4.515  12.368  0.4709 -0.6274  0.2360
14869TIP3    H166098   2.707   4.427  12.331  1.1321 -0.2780 -0.6007
14869TIP3    H266099   2.620   4.550  12.345 -0.4025 -1.6052  1.9180
14870TIP3   OH266100   0.721   1.238   2.175 -0.5555  0.1547  0.0879
14870TIP3    H166101   0.657   1.250   2.246 -1.6948  0.6013 -1.0015
14870TIP3    H266102   0.775   1.316   2.178 -1.2515  0.6512 -0.1775
14871TIP3   OH266103   5.115   3.008   1.751 -0.4197 -0.0932 -0.6772
14871TIP3    H166104   5.139   3.016   1.659 -2.4564  3.0170 -1.0064
14871TIP3    H266105   5.020   2.998   1.750 -0.3097 -1.6463  1.0503
14872TIP3   OH266106   0.576   5.658  16.263  0.4461  0.9397 -0.0182
14872TIP3    H166107   0.488   5.689  16.240 -1.0552 -2.8301  0.3312
14872TIP3    H266108   0.605   5.610  16.185  0.8556 -0.5632  1.0510
14873TIP3   OH266109   5.518   0.132  15.593 -0.5633 -0.2954 -0.0195
14873TIP3    H166110   5.450   0.196  15.612 -0.1067  0.1486  0.1353
14873TIP3    H266111   5.518   0.124  15.498 -0.3066  0.2827 -0.0715
14874TIP3   OH266112   3.294   2.161   4.059 -0.1794  0.2956 -0.5114
14874TIP3    H166113   3.207   2.144   4.096  0.3748  0.3482  0.8412
14874TIP3    H266114   3.302   2.256   4.060  0.3278  0.2523  0.4187
14875TIP3   OH266115   3.508   1.341  13.522  1.1353 -0.0176 -0.9308
14875TIP3    H166116   3.576   1.297  13.573 -0.9572 -0.9103  1.1903
14875TIP3    H266117   3.464   1.270  13.475  0.1572  0.2755 -0.4523
14876TIP3   OH266118   2.246   1.626   1.150  0.0180 -0.7230  0.0885
14876TIP3    H166119   2.236   1.566   1.076  0.0556 -0.4758 -0.1151
14876TIP3    H266120   2.304   1.580   1.210 -0.5740 -1.2319  0.2878
14877TIP3   OH266121   6.255   0.282   3.261 -0.0660  0.8829  0.2651
14877TIP3    H166122   6.257   0.275   3.357  1.1452  2.7124  0.4019
14877TIP3    H266123   6.166   0.313   3.242 -0.3992  0.2521  0.7749
14878TIP3   OH266124   6.068   1.438   0.183  0.0980  0.1940 -0.4163
14878TIP3    H166125   6.080   1.345   0.197  0.2735  0.2052 -0.4832
14878TIP3    H266126   6.146   1.479   0.221 -0.3775  0.3806  0.3575
14879TIP3   OH266127   0.393   3.753   0.728 -0.1500  0.1544 -0.1710
14879TIP3    H166128   0.444   3.687   0.775 -0.1860  0.2700  0.0278
14879TIP3    H266129   0.302   3.726   0.740 -0.1813  0.4204  0.1748
14880TIP3   OH266130   6.449   0.963  13.128  0.0708  0.8250 -0.3134
14880TIP3    H166131   6.497   0.932  13.051 -0.6409  1.1510 -0.8954
14880TIP3    H266132   6.358   0.969  13.099 -0.7782 -2.1412  1.4252
14881TIP3   OH266133   2.836   5.916  17.188 -0.0588  0.6277  0.3117
14881TIP3    H166134   2.828   5.924  17.093 -1.7855 -1.1842  0.2694
14881TIP3    H266135   2.927   5.938  17.207  0.7939 -0.7526 -1.9703
14882TIP3   OH266136   2.279   0.962   4.428  0.0369  0.0522  0.1168
14882TIP3    H166137   2.206   1.003   4.475 -1.0068 -1.7743  0.1558
14882TIP3    H266138   2.242   0.938   4.343  0.7896 -0.2199 -0.1367
14883TIP3   OH266139   1.618   1.147   2.710  0.3000 -0.6243  0.6757
14883TIP3    H166140   1.661   1.095   2.642  1.3592  1.2100 -0.0847
14883TIP3    H266141   1.577   1.082   2.767 -0.4404 -2.2359 -1.5860
14884TIP3   OH266142   1.420   2.121  14.690  0.1279 -0.4784  0.1921
14884TIP3    H166143   1.442   2.056  14.756  3.0159 -1.3336 -1.5202
14884TIP3    H266144   1.401   2.069  14.611 -0.1457  0.6384 -0.4894
14885TIP3   OH266145   3.561   6.313   4.697 -0.1352 -0.6026  0.1639
14885TIP3    H166146   3.508   6.348   4.625  1.9882 -0.1189 -1.2182
14885TIP3    H266147   3.650   6.310   4.662  0.7881 -1.3007  2.4589
14886TIP3   OH266148   6.797   0.568  11.704  0.0049 -0.1633  0.2407
14886TIP3    H166149   6.735   0.503  11.736 -1.1271  0.3908 -0.8084
14886TIP3    H266150   6.765   0.651  11.738  0.8727 -0.0095  0.7113
14887TIP3   OH266151   3.615   3.270  12.915 -0.0092 -0.1397 -0.5223
14887TIP3    H166152   3.611   3.180  12.883 -0.7002 -0.1522 -0.4068
14887TIP3    H266153   3.670   3.315  12.851  0.5393 -0.6906 -0.4560
14888TIP3   OH266154   6.229   1.604   5.606  0.1156  0.1689 -0.6646
14888TIP3    H166155   6.259   1.629   5.518  0.8535  2.0404  0.0997
14888TIP3    H266156   6.298   1.634   5.665  0.3183 -2.3822  0.4637
14889TIP3   OH266157   2.090   4.748   4.389 -0.1520  0.7018  0.0331
14889TIP3    H166158   2.121   4.703   4.467 -1.4054  0.4958  0.4313
14889TIP3    H266159   2.089   4.680   4.321  0.8680  0.8644 -0.1434
14890TIP3   OH266160   0.025   0.609  14.539  0.2870 -0.4329 -0.1970
14890TIP3    H166161   0.006   0.600  14.632  2.8393  2.3351  0.6721
14890TIP3    H266162   0.121   0.602  14.533  0.2243  0.0547 -2.5390
14891TIP3   OH266163   5.843   4.701   4.807  0.3974 -0.0427 -0.3853
14891TIP3    H166164   5.854   4.788   4.846 -0.4695  0.7496 -1.8670
14891TIP3    H266165   5.917   4.650   4.841 -0.8281  0.3160  3.0520
14892TIP3   OH266166   3.657   3.662  11.413  1.2710 -0.3304 -0.0526
14892TIP3    H166167   3.600   3.623  11.479 -0.4043  1.1054 -0.6463
14892TIP3    H266168   3.603   3.727  11.368  3.5490  1.5488 -0.1675
14893TIP3   OH266169   0.629   1.258  14.975  0.1733 -0.3152  0.4984
14893TIP3    H166170   0.664   1.226  14.892  1.4310  1.0023  0.4969
14893TIP3    H266171   0.556   1.314  14.950  0.4408 -0.0562  0.3018
14894TIP3   OH266172   5.313   2.175   3.449 -0.4749 -0.6405  1.0686
14894TIP3    H166173   5.335   2.266   3.435 -0.3481 -0.9848 -1.0407
14894TIP3    H266174   5.217   2.173   3.449 -0.5144 -0.2864  2.8179
14895TIP3   OH266175   0.112   4.620   0.653 -0.2182  0.2633  0.0778
14895TIP3    H166176   0.204   4.595   0.662  0.0282  1.6880  1.7411
14895TIP3    H266177   0.091   4.602   0.561  1.2981 -1.4412  0.0407
14896TIP3   OH266178   1.679   1.700   0.607 -0.1824 -0.1696 -0.4797
14896TIP3    H166179   1.611   1.633   0.599 -0.0239 -0.4174  0.3066
14896TIP3    H266180   1.630   1.781   0.625 -0.4479  0.1261 -2.3903
14897TIP3   OH266181   5.240   4.586   2.225 -0.3298  0.2061  0.1038
14897TIP3    H166182   5.233   4.679   2.208  1.2242  0.6453  1.7772
14897TIP3    H266183   5.252   4.579   2.320 -4.1856 -1.9136  0.5623
14898TIP3   OH266184   1.163   4.217  10.476  0.0486  0.2565  0.0487
14898TIP3    H166185   1.213   4.156  10.422  0.9880 -0.1357  1.3179
14898TIP3    H266186   1.143   4.168  10.556  0.2795  1.3941  0.8285
14899TIP3   OH266187   5.882   5.413  11.708 -0.2391  0.0385 -0.0847
14899TIP3    H166188   5.973   5.418  11.681 -0.2258  0.3844  0.0158
14899TIP3    H266189   5.864   5.499  11.747 -0.7489  0.1444 -0.5525
14900TIP3   OH266190   3.042   4.910  11.096 -0.1321 -0.4130  0.0937
14900TIP3    H166191   3.075   4.999  11.086  0.0833 -0.4483  0.4934
14900TIP3    H266192   3.001   4.909  11.183 -1.9210 -0.1274 -0.7081
14901TIP3   OH266193   1.588   5.205   5.772  0.2853 -0.3897  0.2427
14901TIP3    H166194   1.679   5.233   5.764  0.2779  0.0572  1.4981
14901TIP3    H266195   1.556   5.251   5.850 -0.9958 -0.5973 -0.1471
14902TIP3   OH266196   6.633   4.740  17.128  0.0946  0.5055 -0.3271
14902TIP3    H166197   6.691   4.692  17.069 -1.2519 -0.4094 -0.9439
14902TIP3    H266198   6.635   4.689  17.210  0.5354  0.7538 -0.1813
14903TIP3   OH266199   2.906   1.987  16.731  0.0462 -0.7074  0.4477
14903TIP3    H166200   2.990   1.991  16.775  0.6616  0.0693 -0.7601
14903TIP3    H266201   2.842   2.005  16.800  0.8982 -0.8189  1.2783
14904TIP3   OH266202   2.285   2.979   0.511  0.1613 -0.0244  0.4139
14904TIP3    H166203   2.247   3.054   0.464 -0.1088 -0.5364 -0.1927
14904TIP3    H266204   2.210   2.925   0.534  0.2601  0.4144  1.7855
14905TIP3   OH266205   0.260   3.450   0.558 -0.0111  0.0573  0.0424
14905TIP3    H166206   0.258   3.361   0.522 -1.8814 -0.0148  0.2762
14905TIP3    H266207   0.314   3.442   0.638  0.1856 -0.7650 -0.1643
14906TIP3   OH266208   4.290   5.640  13.505  0.2728 -0.5471 -0.1607
14906TIP3    H166209   4.227   5.702  13.468 -0.9949 -2.2870 -1.0194
14906TIP3    H266210   4.375   5.672  13.476 -0.5748 -0.9040 -3.2481
14907TIP3   OH266211   1.802   2.671   0.952  0.0826  0.3549  0.0147
14907TIP3    H166212   1.746   2.598   0.926  1.1222  0.2752 -2.0788
14907TIP3    H266213   1.834   2.647   1.039  1.1801 -2.1643 -1.0324
14908TIP3   OH266214   2.996   2.639  11.451 -0.8824 -0.2368 -0.4855
14908TIP3    H166215   3.002   2.546  11.473  0.9610  0.1903  0.9817
14908TIP3    H266216   2.989   2.640  11.355 -0.0835 -1.8726 -0.5865
14909TIP3   OH266217   0.946   4.812  12.842  0.0210  0.0891  0.0260
14909TIP3    H166218   1.014   4.745  12.840 -0.3648 -0.3125  0.2869
14909TIP3    H266219   0.933   4.836  12.750  1.3134  0.9870  0.0700
14910TIP3   OH266220   4.433   0.222  16.743 -0.2792 -0.5257 -0.2388
14910TIP3    H166221   4.487   0.246  16.668  0.6623 -1.3376  0.1540
14910TIP3    H266222   4.494   0.178  16.802 -0.9145  0.4617  1.1802
14911TIP3   OH266223   2.514   5.701   0.088 -0.2324 -0.8974  1.0076
14911TIP3    H166224   2.420   5.688   0.102 -1.2061  2.0722 -2.0510
14911TIP3    H266225   2.544   5.620   0.047 -2.2441 -0.5460 -1.2160
14912TIP3   OH266226   2.399   3.610   2.461  0.2748 -0.4134  0.1230
14912TIP3    H166227   2.309   3.578   2.473  0.1018  0.1589  0.3745
14912TIP3    H266228   2.388   3.698   2.425  0.7371 -0.3920  0.0383
14913TIP3   OH266229   5.325   2.389  16.498 -0.1200  0.1982 -0.1829
14913TIP3    H166230   5.356   2.477  16.474  1.0454  0.3374  1.7371
14913TIP3    H266231   5.367   2.331  16.435  0.5271  0.8280 -0.3413
14914TIP3   OH266232   2.956   3.704  15.264  0.0492 -0.7337  0.5035
14914TIP3    H166233   2.903   3.648  15.320  0.4134  0.0122  1.6253
14914TIP3    H266234   2.957   3.661  15.179 -0.9954 -1.5865  0.9252
14915TIP3   OH266235   3.525   0.788   1.893 -0.3061 -0.3488  0.0915
14915TIP3    H166236   3.491   0.700   1.911 -0.2842 -0.4149 -0.1822
14915TIP3    H266237   3.459   0.847   1.929  0.1236 -0.4766  1.0903
14916TIP3   OH266238   5.054   4.122   1.874  0.1427 -0.0628  0.0518
14916TIP3    H166239   5.038   4.116   1.780 -2.5880  1.3067  0.3830
14916TIP3    H266240   5.068   4.216   1.890  1.5535 -0.3961  0.8855
14917TIP3   OH266241   6.000   4.251  15.466 -0.4940 -0.1652 -0.7759
14917TIP3    H166242   5.989   4.161  15.433  1.6326 -0.3569 -1.0692
14917TIP3    H266243   6.062   4.242  15.538  0.6192  1.2030 -1.5506
14918TIP3   OH266244   0.975   1.200   0.516  0.5576  0.2235  0.0167
14918TIP3    H166245   0.994   1.115   0.557 -2.0629 -0.4023  0.0150
14918TIP3    H266246   0.882   1.195   0.494  0.4621  2.9892 -0.2830
14919TIP3   OH266247   2.934   3.798  11.520  1.0576  0.3496  0.0799
14919TIP3    H166248   2.845   3.827  11.500  0.3396 -2.8812 -1.6531
14919TIP3    H266249   2.988   3.842  11.455  0.4702  0.7302 -0.1562
14920TIP3   OH266250   3.272   3.357   5.389 -0.1165  0.1304  0.0701
14920TIP3    H166251   3.206   3.347   5.457 -1.1534  2.6266 -0.5227
14920TIP3    H266252   3.241   3.302   5.317  1.0953 -2.6808  1.6453
14921TIP3   OH266253   3.913   6.434  13.858  0.2815  0.3856 -0.3251
14921TIP3    H166254   3.994   6.483  13.870 -0.4000  1.7763 -1.1532
14921TIP3    H266255   3.938   6.359  13.804  0.9135  1.1759 -1.1638
14922TIP3   OH266256   3.448   1.599  12.711 -0.0193 -0.0664  0.1381
14922TIP3    H166257   3.536   1.621  12.742  0.0676  0.0341 -0.1772
14922TIP3    H266258   3.389   1.646  12.771  0.1867  2.6891 -1.7210
14923TIP3   OH266259   0.339   6.043   4.649 -0.1372  0.0972 -0.4925
14923TIP3    H166260   0.406   6.103   4.614  1.2454 -0.6008  0.8845
14923TIP3    H266261   0.367   6.027   4.740 -0.5438 -2.5169 -0.7866
14924TIP3   OH266262   2.304   0.602   3.524 -0.4020 -0.3025 -0.5150
14924TIP3    H166263   2.388   0.585   3.568 -0.5332  0.9727  0.2664
14924TIP3    H266264   2.280   0.518   3.485  1.4409 -0.5850 -1.1086
14925TIP3   OH266265   1.988   1.947   5.576 -0.0199 -0.0262 -0.4420
14925TIP3    H166266   1.993   1.885   5.503 -2.2949 -0.7493 -0.0281
14925TIP3    H266267   2.028   1.901   5.649 -2.0756 -1.2125 -0.0311
14926TIP3   OH266268   2.189   3.406   4.229 -0.1429  0.2463  0.1069
14926TIP3    H166269   2.140   3.406   4.312 -0.4933 -0.0381 -0.0973
14926TIP3    H266270   2.123   3.383   4.163  0.9839 -3.6423  0.2326
14927TIP3   OH266271   6.415   2.649  13.554  0.4074 -0.1347  0.0400
14927TIP3    H166272   6.388   2.734  13.589 -0.9394 -0.4389 -0.2320
14927TIP3    H266273   6.409   2.589  13.629  3.9948  0.5049  0.9350
14928TIP3   OH266274   6.555   3.220   4.958 -0.5577 -0.0631 -0.0801
14928TIP3    H166275   6.488   3.168   5.002 -2.4588  2.3464  0.0009
14928TIP3    H266276   6.624   3.232   5.024  0.9671 -4.1681 -0.7609
14929TIP3   OH266277   5.593   6.375   3.033 -0.2862  0.2644 -0.0607
14929TIP3    H166278   5.558   6.449   2.983  0.8546  1.6108  1.0759
14929TIP3    H266279   5.536   6.302   3.011 -1.2849  1.4232 -1.4145
14930TIP3   OH266280   4.276   2.764  14.244  0.0354 -0.2413 -0.1540
14930TIP3    H166281   4.196   2.740  14.291  0.4688  1.2871  1.4229
14930TIP3    H266282   4.337   2.792  14.312  0.6706  2.0435 -1.5945
14931TIP3   OH266283   1.880   5.579  14.700  0.0640  0.3239  0.1698
14931TIP3    H166284   1.923   5.494  14.695  1.0562  0.8754 -0.8686
14931TIP3    H266285   1.952   5.641  14.713 -0.3639  1.3210 -2.1132
14932TIP3   OH266286   6.698   5.946   3.456 -0.4821 -0.2008 -0.0256
14932TIP3    H166287   6.771   5.918   3.401 -0.6511  1.0807 -0.8936
14932TIP3    H266288   6.740   5.975   3.537 -0.0092  0.8209 -0.6386
14933TIP3   OH266289   0.432   2.723  11.362 -0.0588 -0.1472  0.6311
14933TIP3    H166290   0.411   2.659  11.294 -0.8827  0.8550 -0.0898
14933TIP3    H266291   0.375   2.700  11.435 -1.6562  0.8270 -0.2775
14934TIP3   OH266292   5.582   1.470  14.851 -0.3194 -0.2422 -0.3248
14934TIP3    H166293   5.580   1.376  14.871  2.0072  0.0319  1.4568
14934TIP3    H266294   5.647   1.478  14.781  2.8689  0.4448  2.5520
14935TIP3   OH266295   2.606   5.183  11.718 -0.1475  0.2318  0.1512
14935TIP3    H166296   2.542   5.159  11.652 -0.9235  2.5727  0.0144
14935TIP3    H266297   2.580   5.134  11.796 -0.4639 -0.9429 -0.6893
14936TIP3   OH266298   3.915   6.479   0.561 -0.7092  0.2907  0.7625
14936TIP3    H166299   3.869   6.502   0.642 -0.4121  1.9382  0.4844
14936TIP3    H266300   3.849   6.436   0.507 -2.0123  2.7422  0.3206
14937TIP3   OH266301   0.143   5.660  10.942 -0.1813 -0.0192  0.0920
14937TIP3    H166302   0.168   5.599  10.873  1.4550 -0.0800  0.6982
14937TIP3    H266303   0.047   5.660  10.942 -0.2069 -2.2806 -0.1878
14938TIP3   OH266304   5.213   2.242  12.402  0.1501  0.1984 -0.0023
14938TIP3    H166305   5.231   2.218  12.311 -1.1704 -0.9219  0.0128
14938TIP3    H266306   5.127   2.204  12.421 -0.1790  1.5263  1.3142
14939TIP3   OH266307   6.211   6.568   4.163  0.0220 -0.3436 -0.0308
14939TIP3    H166308   6.167   6.509   4.224 -0.7029 -1.2134 -1.3584
14939TIP3    H266309   6.302   6.537   4.162 -0.2621 -1.1665 -0.3964
14940TIP3   OH266310   2.112   5.704  14.588  0.0916 -0.2742  0.1489
14940TIP3    H166311   2.187   5.751  14.553 -1.0393 -0.0266 -1.9836
14940TIP3    H266312   2.036   5.750  14.554 -1.0428 -0.7684  1.9570
14941TIP3   OH266313   4.827   1.682   2.959  0.8274  0.2070  0.0943
14941TIP3    H166314   4.775   1.602   2.972  1.2369 -0.2000 -0.7875
14941TIP3    H266315   4.887   1.662   2.887 -0.5719  2.0415 -1.6527
14942TIP3   OH266316   2.686   3.468  16.567 -0.3292 -0.2666  0.1188
14942TIP3    H166317   2.594   3.445  16.553  0.2936 -3.2256  0.5495
14942TIP3    H266318   2.735   3.398  16.524  1.8162  2.7264 -2.5190
14943TIP3   OH266319   4.978   6.811   3.195 -0.5614 -0.1556 -0.2732
14943TIP3    H166320   4.914   6.827   3.264  0.6503  0.6817  0.6721
14943TIP3    H266321   5.046   6.759   3.237 -0.7574 -1.2955 -1.3481
14944TIP3   OH266322   2.707   2.975   3.676 -0.2203  0.1125 -0.7586
14944TIP3    H166323   2.656   2.903   3.712 -1.4291  1.0147 -0.6490
14944TIP3    H266324   2.700   2.964   3.581 -1.4675  0.8039 -0.7601
14945TIP3   OH266325   4.940   4.149   5.061 -1.0393  0.2365  0.3604
14945TIP3    H166326   4.876   4.136   4.991 -0.8315 -0.6783  0.3420
14945TIP3    H266327   5.009   4.201   5.020 -0.9249 -0.2837 -0.1118
14946TIP3   OH266328   2.829   2.903   4.787  0.1176  0.1137  0.0667
14946TIP3    H166329   2.745   2.900   4.741 -0.5292 -0.7936  1.2972
14946TIP3    H266330   2.854   2.811   4.797  0.1080  0.2786  1.7696
14947TIP3   OH266331   3.131   3.296  14.665  0.1922 -0.3371 -0.6395
14947TIP3    H166332   3.090   3.232  14.723 -0.9662  0.7435 -0.2193
14947TIP3    H266333   3.164   3.364  14.724 -2.4775  1.6069 -1.2944
14948TIP3   OH266334   0.164   5.700  14.331  0.0579 -0.4188  0.3816
14948TIP3    H166335   0.161   5.718  14.425 -0.3909  2.2915 -0.1089
14948TIP3    H266336   0.257   5.685  14.313  0.6015  2.3577  0.7139
14949TIP3   OH266337   0.109   6.246  17.250 -0.6233 -0.3986  0.1213
14949TIP3    H166338   0.120   6.155  17.222 -0.3120 -0.3287  0.0138
14949TIP3    H266339   0.149   6.250  17.337 -1.7086 -0.6469  0.6390
14950TIP3   OH266340   0.196   2.172  14.903 -0.2485 -0.3628  0.3506
14950TIP3    H166341   0.112   2.188  14.948 -0.9372 -1.3455 -0.5633
14950TIP3    H266342   0.262   2.181  14.971 -0.9138  2.4961  0.6775
14951TIP3   OH266343   5.655   2.996  13.865  0.0355  0.6196 -0.1137
14951TIP3    H166344   5.750   3.011  13.871  0.3760 -0.7343 -1.9088
14951TIP3    H266345   5.638   2.925  13.926  0.6097 -0.9158 -1.7222
14952TIP3   OH266346   0.481   3.136  11.733 -0.3651 -0.0488  0.0693
14952TIP3    H166347   0.546   3.205  11.723 -1.0207  0.8833  1.9635
14952TIP3    H266348   0.522   3.072  11.792 -1.1592  0.5838  1.3367
14953TIP3   OH266349   1.624   1.421  16.405  0.6533 -0.0698 -0.1460
14953TIP3    H166350   1.543   1.469  16.392 -0.7088 -1.5511  2.3193
14953TIP3    H266351   1.656   1.402  16.317 -0.5585  2.3398 -1.1325
14954TIP3   OH266352   2.399   1.685  12.807 -0.7880 -0.3413  0.3121
14954TIP3    H166353   2.303   1.688  12.805 -0.7803  0.2819  0.5469
14954TIP3    H266354   2.425   1.695  12.715 -0.9216  1.2681  0.4304
14955TIP3   OH266355   6.088   1.364   5.055 -0.2175 -0.1908  0.5570
14955TIP3    H166356   6.115   1.435   5.114  0.3275  0.7219 -0.7429
14955TIP3    H266357   6.156   1.363   4.987 -1.0896 -0.8749 -0.3230
14956TIP3   OH266358   2.999   0.580   3.167  0.3005 -0.0980  0.3891
14956TIP3    H166359   3.026   0.522   3.096  1.9864  1.4813 -0.3075
14956TIP3    H266360   3.053   0.554   3.242 -0.9849 -1.3037  0.9162
14957TIP3   OH266361   3.068   1.915  14.006  0.0963 -0.2190 -0.1538
14957TIP3    H166362   3.066   1.837  13.951 -1.2927 -0.5252  0.3193
14957TIP3    H266363   3.157   1.918  14.040  1.2916  0.5016 -3.1431
14958TIP3   OH266364   3.867   2.168  15.943 -0.0732 -0.0967 -0.5510
14958TIP3    H166365   3.942   2.109  15.954  0.3729  0.6162  0.2718
14958TIP3    H266366   3.835   2.148  15.855  1.3790 -0.0780 -1.1044
14959TIP3   OH266367   5.635   0.049  13.198  0.1508  0.3657 -0.1096
14959TIP3    H166368   5.651   0.136  13.161  1.3460  0.6082  0.9391
14959TIP3    H266369   5.542   0.032  13.181  0.5599  0.6096 -2.8790
14960TIP3   OH266370   6.462   2.835  14.194 -0.3832  0.0927 -0.0151
14960TIP3    H166371   6.451   2.757  14.139 -2.9580  0.0365  0.5045
14960TIP3    H266372   6.414   2.814  14.274  2.2006  0.7047  1.7574
14961TIP3   OH266373   4.967   2.358  15.573  0.0184  0.1433  0.2359
14961TIP3    H166374   4.882   2.345  15.530  0.3586  0.8579 -0.6657
14961TIP3    H266375   4.982   2.276  15.620 -1.3928  0.1893  0.8012
14962TIP3   OH266376   1.112   6.244   2.650 -0.3344 -0.9098  0.7662
14962TIP3    H166377   1.148   6.191   2.721 -0.5592 -0.2688  1.3635
14962TIP3    H266378   1.082   6.180   2.585 -1.3991 -1.5467  1.8618
14963TIP3   OH266379   4.646   3.740   3.754 -0.6218 -0.0279  0.9714
14963TIP3    H166380   4.557   3.723   3.785 -1.1291 -0.8321 -0.8176
14963TIP3    H266381   4.639   3.820   3.702 -0.4973 -0.6033  0.0573
14964TIP3   OH266382   5.242   5.912  14.053  0.3710 -0.1742 -0.0683
14964TIP3    H166383   5.289   5.995  14.053  0.9018 -0.4264  1.9886
14964TIP3    H266384   5.308   5.848  14.081 -0.4980 -0.9890  0.1449
14965TIP3   OH266385   3.595   3.863   2.854  0.2826 -0.4388 -0.5332
14965TIP3    H166386   3.543   3.800   2.805 -0.1458 -0.0122 -0.6284
14965TIP3    H266387   3.532   3.925   2.889  0.8228  0.8100 -1.7069
14966TIP3   OH266388   1.769   2.916  10.871  0.5738 -0.6048  0.1368
14966TIP3    H166389   1.678   2.906  10.841  1.2913 -1.2114 -1.9240
14966TIP3    H266390   1.790   3.008  10.853  1.2899 -1.1802 -2.1724
14967TIP3   OH266391   0.350   0.844   5.711 -0.3162  0.2195 -0.3452
14967TIP3    H166392   0.282   0.825   5.646 -1.4770  0.7100  0.7074
14967TIP3    H266393   0.338   0.777   5.778  2.2047 -1.5618 -1.5867
14968TIP3   OH266394   1.364   5.483   5.176  0.1683 -0.2526  0.5670
14968TIP3    H166395   1.313   5.479   5.257  0.5112 -0.1867  0.7854
14968TIP3    H266396   1.444   5.433   5.195  1.2647  1.6295  0.9972
14969TIP3   OH266397   1.896   4.090   3.642 -0.2025 -0.0015  0.1128
14969TIP3    H166398   1.823   4.073   3.583  0.6077 -0.7141 -0.6853
14969TIP3    H266399   1.862   4.156   3.703 -0.9922  0.8573 -1.2278
14970TIP3   OH266400   2.560   1.246   3.905 -0.1121 -0.3461  0.0569
14970TIP3    H166401   2.607   1.177   3.951 -0.5899 -0.2278  0.7330
14970TIP3    H266402   2.628   1.311   3.884  0.3948 -1.1848 -0.8960
14971TIP3   OH266403   2.656   6.234   0.490  0.4546 -0.0350  0.1042
14971TIP3    H166404   2.626   6.143   0.488  2.5037 -0.7228 -0.1979
14971TIP3    H266405   2.672   6.256   0.399 -0.8599  0.9338  0.0934
14972TIP3   OH266406   3.939   5.041   3.577  1.1120 -0.0007 -0.2943
14972TIP3    H166407   3.965   4.956   3.612 -0.0477  0.8968  2.9101
14972TIP3    H266408   4.008   5.101   3.607 -0.1815  0.8803  0.9525
14973TIP3   OH266409   5.651   5.169   4.749 -0.2995  0.4899  0.5041
14973TIP3    H166410   5.729   5.209   4.712 -0.3032 -0.0325 -0.0808
14973TIP3    H266411   5.655   5.078   4.720 -1.5148  0.6374 -0.1800
14974TIP3   OH266412   6.704   5.741  16.967  0.6859  0.1311  0.1047
14974TIP3    H166413   6.644   5.807  17.003  1.0430  0.8915 -0.6796
14974TIP3    H266414   6.744   5.784  16.892 -0.3722 -1.5969 -1.4601
14975TIP3   OH266415   0.332   4.708   1.380 -0.2661  0.2733  0.3222
14975TIP3    H166416   0.325   4.772   1.451 -0.8672  0.1919  0.3369
14975TIP3    H266417   0.266   4.735   1.316  1.5860  1.4836 -1.1119
14976TIP3   OH266418   3.037   0.593   0.114 -0.0048 -0.2096  0.0582
14976TIP3    H166419   2.991   0.611   0.031 -1.3461 -2.4596  0.2571
14976TIP3    H266420   3.090   0.671   0.130 -1.9927  1.4975 -1.4099
14977TIP3   OH266421   2.702   1.007   0.521  0.2850  0.4315 -0.4331
14977TIP3    H166422   2.625   1.053   0.555 -1.4626 -3.4592  1.1464
14977TIP3    H266423   2.688   1.004   0.427 -0.9954  0.6856 -0.2632
14978TIP3   OH266424   0.402   0.652   3.790 -0.0092 -0.2980 -0.4338
14978TIP3    H166425   0.392   0.568   3.834  0.2621 -0.6335 -1.0031
14978TIP3    H266426   0.455   0.704   3.851 -1.1613 -0.1241  0.4466
14979TIP3   OH266427   1.591   3.937  16.426 -0.0342  0.2852  0.0257
14979TIP3    H166428   1.686   3.950  16.420  0.1154 -0.4616  0.7899
14979TIP3    H266429   1.569   3.891  16.345  0.4472 -0.6124  0.3932
14980TIP3   OH266430   1.726   0.855   3.606 -0.2796 -0.4447 -0.6451
14980TIP3    H166431   1.780   0.776   3.594 -1.8078 -1.5834 -0.2154
14980TIP3    H266432   1.768   0.902   3.677 -0.0493 -1.5076 -0.0586
14981TIP3   OH266433   5.335   6.350  10.729  0.3414  0.2484  0.0700
14981TIP3    H166434   5.273   6.322  10.796 -0.3675  0.7916 -0.3533
14981TIP3    H266435   5.419   6.314  10.757  0.1556  0.9266  1.5426
14982TIP3   OH266436   4.335   1.785   1.828 -0.1551  0.1481 -0.0321
14982TIP3    H166437   4.320   1.879   1.828  0.7615  0.3044 -0.2168
14982TIP3    H266438   4.265   1.749   1.882 -0.6381  0.9124 -0.1427
14983TIP3   OH266439   0.533   0.395   1.620 -0.2057 -0.0257 -0.6759
14983TIP3    H166440   0.496   0.440   1.696 -2.1367 -0.6905 -1.2011
14983TIP3    H266441   0.567   0.465   1.564 -0.6196  0.5938 -0.1532
14984TIP3   OH266442   0.242   3.570  16.454 -0.3148  0.4793  0.3030
14984TIP3    H166443   0.231   3.603  16.364 -1.4626 -0.8458 -0.0568
14984TIP3    H266444   0.330   3.533  16.455 -0.2096  0.7081 -0.2144
14985TIP3   OH266445   6.315   1.754   0.454 -0.1959  0.2750 -0.0137
14985TIP3    H166446   6.323   1.678   0.512 -0.6087  0.5471  0.4016
14985TIP3    H266447   6.226   1.787   0.469 -0.4849  0.0437 -1.1843
14986TIP3   OH266448   4.697   4.453   4.893  0.5881 -0.1792  0.0870
14986TIP3    H166449   4.749   4.476   4.816  1.3119 -0.7417  0.3980
14986TIP3    H266450   4.655   4.535   4.920 -0.6107 -0.2244 -1.6067
14987TIP3   OH266451   3.168   2.458  10.624  0.3313  0.1584 -1.2887
14987TIP3    H166452   3.176   2.421  10.712  1.0136 -3.2159 -2.6827
14987TIP3    H266453   3.125   2.389  10.574  1.3328  1.4278 -3.9615
14988TIP3   OH266454   1.077   1.127  10.834 -0.1026 -0.0230  0.7876
14988TIP3    H166455   1.039   1.042  10.812  0.7963 -0.3838  0.6245
14988TIP3    H266456   1.001   1.182  10.855 -0.7427 -0.5986 -0.0077
14989TIP3   OH266457   1.294   0.273   4.758  0.7255 -0.0022 -0.2493
14989TIP3    H166458   1.375   0.259   4.806 -0.2546  1.6128  1.9511
14989TIP3    H266459   1.226   0.235   4.814 -0.2995  0.7906 -0.9425
14990TIP3   OH266460   5.094   3.817  16.745 -0.0093 -0.2628  0.1944
14990TIP3    H166461   5.065   3.906  16.765 -0.7069 -0.7543  1.3802
14990TIP3    H266462   5.189   3.819  16.760  0.3844  0.9399 -2.2389
14991TIP3   OH266463   6.086   6.744  12.677 -0.3233  0.1678 -0.1052
14991TIP3    H166464   6.073   6.788  12.761  0.9024  0.1884  0.0856
14991TIP3    H266465   6.017   6.779  12.621 -0.6603  0.7506  0.6567
14992TIP3   OH266466   4.217   0.168   2.650 -0.5266  0.3975  0.1547
14992TIP3    H166467   4.142   0.183   2.592  0.3156 -1.7262 -1.5652
14992TIP3    H266468   4.210   0.077   2.676  1.3400  0.2191  0.1332
14993TIP3   OH266469   1.271   6.415   5.613  0.2163 -0.2694  0.3553
14993TIP3    H166470   1.287   6.419   5.708 -0.9800 -0.4538  0.5772
14993TIP3    H266471   1.178   6.394   5.606  0.4051 -0.7166 -0.8675
14994TIP3   OH266472   0.183   5.630  12.930 -0.3117 -0.4271  0.4450
14994TIP3    H166473   0.094   5.602  12.951 -0.2177  0.2976  1.8485
14994TIP3    H266474   0.239   5.571  12.981  0.0247 -1.0259 -0.6102
14995TIP3   OH266475   4.696   1.799   6.393  0.7726  0.6280 -0.2898
14995TIP3    H166476   4.668   1.848   6.316  0.3772 -0.8145 -1.0922
14995TIP3    H266477   4.781   1.835   6.416  0.4051  1.7946 -0.7532
14996TIP3   OH266478   5.137   0.506   0.678  0.0651  0.2644 -0.3562
14996TIP3    H166479   5.224   0.490   0.641 -0.6811 -2.2103 -1.1461
14996TIP3    H266480   5.115   0.425   0.724  0.0114  2.4755  3.7235
14997TIP3   OH266481   2.678   2.037  16.952 -0.2224  0.0413  0.7034
14997TIP3    H166482   2.627   1.966  16.911 -0.1041 -0.4860  1.4624
14997TIP3    H266483   2.636   2.050  17.037  0.1943  0.4109  0.8501
14998TIP3   OH266484   2.520   2.852  11.537  0.5047 -0.2304  0.1158
14998TIP3    H166485   2.606   2.887  11.514 -0.2200  0.6332 -1.3233
14998TIP3    H266486   2.460   2.926  11.525 -0.5210 -0.9662  0.6217
14999TIP3   OH266487   4.065   4.143  14.169 -0.0459  0.1690 -0.2771
14999TIP3    H166488   4.155   4.176  14.172 -0.2224  0.6722 -0.5551
14999TIP3    H266489   4.053   4.113  14.079  0.2216 -0.9736  0.0511
15000TIP3   OH266490   4.221   0.602  14.797 -0.4413  0.0845 -0.2091
15000TIP3    H166491   4.160   0.643  14.736  0.4431  0.0939 -1.1006
15000TIP3    H266492   4.282   0.553  14.741 -0.0113 -0.4316  0.6988
15001TIP3   OH266493   4.781   3.068  15.591  0.5164  0.1074 -0.5289
15001TIP3    H166494   4.814   3.009  15.523 -0.3672 -1.2896  0.2335
15001TIP3    H266495   4.850   3.068  15.658  0.7533  0.3517 -0.7752
15002TIP3   OH266496   0.765   3.503   0.221  0.4874 -0.3457 -0.0494
15002TIP3    H166497   0.739   3.415   0.193  2.2979 -1.7350  2.4170
15002TIP3    H266498   0.810   3.489   0.305  1.3092  2.8739  0.1094
15003TIP3   OH266499   5.360   5.344   5.927 -0.1689  0.4318 -0.1501
15003TIP3    H166500   5.375   5.317   6.018  0.8868  0.1955 -0.3887
15003TIP3    H266501   5.269   5.320   5.910 -0.3731  0.4699  0.8416
15004TIP3   OH266502   1.267   6.788   5.777 -0.3901 -0.5798  0.8365
15004TIP3    H166503   1.359   6.766   5.764 -0.4944 -0.7326  0.3356
15004TIP3    H266504   1.237   6.815   5.690 -1.4410 -2.8416  0.4581
15005TIP3   OH266505   1.296   1.679   5.261  0.3154  0.5265 -0.4581
15005TIP3    H166506   1.344   1.748   5.306 -0.5107  0.5755  0.3829
15005TIP3    H266507   1.349   1.658   5.185 -0.9498  4.3555 -2.5489
15006TIP3   OH266508   6.271   4.033   0.261 -0.9716 -0.9125 -0.1105
15006TIP3    H166509   6.346   4.019   0.204  1.0541 -0.3810  2.3490
15006TIP3    H266510   6.205   3.970   0.231  1.1982 -2.8013 -0.9884
15007TIP3   OH266511   4.586   0.864  10.816  0.7801  0.5524 -0.2359
15007TIP3    H166512   4.496   0.873  10.849  0.6830 -1.6728  0.1505
15007TIP3    H266513   4.630   0.944  10.845 -0.9242  1.4201  0.0331
15008TIP3   OH266514   0.127   0.801  15.442  0.5703 -0.0378 -0.5258
15008TIP3    H166515   0.179   0.721  15.451  2.2497  0.9194 -1.3430
15008TIP3    H266516   0.115   0.811  15.347 -0.6308  0.0665 -0.3736
15009TIP3   OH266517   0.013   0.635   4.461  0.1382  0.1977 -0.5571
15009TIP3    H166518   0.040   0.549   4.428  1.0869  0.5644 -0.7459
15009TIP3    H266519  -0.083   0.630   4.466  0.3090 -1.7972  1.9725
15010TIP3   OH266520   5.479   2.843   6.237  0.6319  0.1605  1.0025
15010TIP3    H166521   5.441   2.930   6.234  2.0370  0.8098  1.4040
15010TIP3    H266522   5.406   2.784   6.222  0.1189  1.5165 -2.1973
15011TIP3   OH266523   0.124   6.238   0.220 -0.7583  0.6923  0.0959
15011TIP3    H166524   0.056   6.174   0.198 -0.7411  0.2995  1.1935
15011TIP3    H266525   0.169   6.201   0.296 -0.2931  1.6735  0.3073
15012TIP3   OH266526   1.881   4.027   5.242 -0.5776  0.1361  0.1620
15012TIP3    H166527   1.878   4.051   5.149  0.6314 -0.9450 -0.1683
15012TIP3    H266528   1.964   4.062   5.273 -0.6989 -0.0391  0.6903
15013TIP3   OH266529   0.588   2.963  14.348 -0.2718  0.3755  0.6483
15013TIP3    H166530   0.521   2.911  14.302 -0.8883  1.2697  0.5199
15013TIP3    H266531   0.669   2.914  14.336 -0.8857 -0.6683  0.7039
15014TIP3   OH266532   6.523   3.022   3.937 -0.3760  0.2077  0.3676
15014TIP3    H166533   6.485   3.096   3.889  4.2889  2.0710 -0.7220
15014TIP3    H266534   6.513   3.046   4.029  2.2876  2.9619  0.0164
15015TIP3   OH266535   1.809   4.774   3.195 -0.2073 -0.2723 -1.0157
15015TIP3    H166536   1.803   4.763   3.100 -2.1023  1.7635 -1.1845
15015TIP3    H266537   1.808   4.685   3.230  0.9711 -1.0659 -2.9039
15016TIP3   OH266538   3.820   2.270   2.454 -0.4645  0.3548 -0.1313
15016TIP3    H166539   3.798   2.349   2.406 -1.0947 -0.1560 -0.6976
15016TIP3    H266540   3.738   2.245   2.498 -0.6857 -0.8230 -1.1780
15017TIP3   OH266541   6.318   2.608  15.716 -0.1018 -0.3163  0.0135
15017TIP3    H166542   6.229   2.572  15.724 -0.5089 -0.3304 -3.6162
15017TIP3    H266543   6.364   2.545  15.661  1.4113  0.9640 -0.2087
15018TIP3   OH266544   5.836   3.725   3.599  0.1473 -0.0203  0.0367
15018TIP3    H166545   5.842   3.695   3.508  1.7147  0.5322 -0.0596
15018TIP3    H266546   5.912   3.783   3.610 -0.7093  0.8773  1.3423
15019TIP3   OH266547   0.531   3.660  14.734 -0.0336  0.2321 -0.2351
15019TIP3    H166548   0.522   3.680  14.641 -0.9426 -0.3580 -0.2832
15019TIP3    H266549   0.606   3.600  14.738  0.8402  1.2999 -0.4227
15020TIP3   OH266550   6.476   4.648  10.475 -0.5717 -0.5215  0.0035
15020TIP3    H166551   6.563   4.673  10.444 -0.5183 -1.2224 -0.4213
15020TIP3    H266552   6.417   4.714  10.437 -0.1711  0.2862  0.7546
15021TIP3   OH266553   2.348   1.156   5.648  0.2159  0.5688  0.2851
15021TIP3    H166554   2.281   1.098   5.611  0.8423 -0.0287  0.0708
15021TIP3    H266555   2.431   1.110   5.632  0.7354  1.5777  0.0145
15022TIP3   OH266556   3.591   4.265   3.386 -0.3263  0.2430  0.1549
15022TIP3    H166557   3.619   4.293   3.299  1.5673 -0.4986  0.5187
15022TIP3    H266558   3.570   4.347   3.432 -1.2667  0.6379 -0.9491
15023TIP3   OH266559   4.103   4.516   4.968  0.3495 -0.5723 -0.1615
15023TIP3    H166560   4.008   4.518   4.967  0.3272 -1.2272  0.0113
15023TIP3    H266561   4.128   4.511   4.875  0.2184 -0.1951 -0.2134
15024TIP3   OH266562   2.847   6.762   3.278  0.2771  0.1910  0.7903
15024TIP3    H166563   2.776   6.825   3.266  0.8564  0.7070  0.0832
15024TIP3    H266564   2.923   6.815   3.301  0.6847 -0.2740  0.5232
15025TIP3   OH266565   5.209   5.248   1.233  0.1694  0.4567  0.3449
15025TIP3    H166566   5.218   5.181   1.301 -0.1964  0.0716  0.0148
15025TIP3    H266567   5.115   5.252   1.216  0.1090  1.6538  0.9621
15026TIP3   OH266568   1.738   3.284   3.890 -0.1910 -0.5208 -0.2296
15026TIP3    H166569   1.764   3.376   3.891 -1.3924 -0.1713  0.3712
15026TIP3    H266570   1.663   3.281   3.831 -1.2821 -0.7705  1.1348
15027TIP3   OH266571   1.508   2.378   0.036  0.5437 -0.0069 -0.2801
15027TIP3    H166572   1.482   2.423   0.116  0.0085 -0.7348 -0.0389
15027TIP3    H266573   1.478   2.287   0.048 -1.1324  0.2770 -2.0357
15028TIP3   OH266574   6.257   2.300   2.682  0.2325 -0.1644  0.1777
15028TIP3    H166575   6.188   2.366   2.670 -0.9046 -0.8440  2.6521
15028TIP3    H266576   6.250   2.244   2.604 -1.5642  0.1987  0.0562
15029TIP3   OH266577   0.971   0.376   3.811  0.0215 -0.4761  0.1043
15029TIP3    H166578   0.925   0.370   3.727  0.2548  0.8866 -0.1336
15029TIP3    H266579   1.042   0.439   3.795 -0.3868  0.3699  1.5135
15030TIP3   OH266580   1.715   2.232  13.535  0.4362  0.6104 -0.2514
15030TIP3    H166581   1.682   2.192  13.455 -0.2014 -0.5322  0.5768
15030TIP3    H266582   1.669   2.316  13.541  0.1818  0.5105 -0.8563
15031TIP3   OH266583   0.403   5.944  15.283  0.0810 -0.0964  0.2435
15031TIP3    H166584   0.416   5.940  15.188  1.0512  0.6527  0.3290
15031TIP3    H266585   0.491   5.959  15.318 -0.5267  1.5071  1.1282
15032TIP3   OH266586   0.423   5.813   0.383  0.1383  0.3467 -0.6628
15032TIP3    H166587   0.374   5.856   0.453  1.4448 -0.5119  0.7910
15032TIP3    H266588   0.514   5.833   0.402  0.5138  0.0034 -2.0686
15033TIP3   OH266589   5.330   2.883  16.325  0.4249 -0.6603  0.1433
15033TIP3    H166590   5.277   2.955  16.358  1.6969  0.2818  0.1496
15033TIP3    H266591   5.309   2.879  16.231 -1.4411 -1.8504  0.5788
15034TIP3   OH266592   3.399   5.155   1.238 -0.7691 -0.2950  0.1624
15034TIP3    H166593   3.315   5.200   1.234 -0.1979  0.7360 -0.5769
15034TIP3    H266594   3.386   5.076   1.186 -0.9564  0.4231 -0.8991
15035TIP3   OH266595   0.002   4.143  15.936  0.5814  0.0441 -0.7936
15035TIP3    H166596   0.063   4.070  15.931  0.7094  0.2016 -1.5639
15035TIP3    H266597   0.034   4.205  15.871  1.2171  1.3497  0.7221
15036TIP3   OH266598   3.348   4.367   3.066  0.3525 -0.2177 -0.0653
15036TIP3    H166599   3.408   4.295   3.046  0.8667  0.3683 -0.6408
15036TIP3    H266600   3.295   4.377   2.987  0.1893 -0.0531  0.0637
15037TIP3   OH266601   0.553   0.804   1.064 -0.3710  0.4036  0.0398
15037TIP3    H166602   0.631   0.752   1.083 -1.6547 -1.7869 -0.4282
15037TIP3    H266603   0.495   0.787   1.139 -1.2472  0.2621 -0.6603
15038TIP3   OH266604   3.677   2.395  15.915 -0.6171 -0.3823 -0.0042
15038TIP3    H166605   3.728   2.315  15.926  0.5609  0.1982 -1.0655
15038TIP3    H266606   3.637   2.410  16.000  0.2037 -1.3939  0.5752
15039TIP3   OH266607   6.273   5.910   5.074 -0.2685  0.1285 -0.3766
15039TIP3    H166608   6.317   5.904   5.159  0.9548  0.1282 -1.0071
15039TIP3    H266609   6.260   5.819   5.047 -0.9028  0.1235 -0.0785
15040TIP3   OH266610   2.068   4.560  17.166 -0.5037  0.1543  0.8576
15040TIP3    H166611   2.159   4.579  17.191 -0.1131  1.5561 -1.3981
15040TIP3    H266612   2.022   4.643  17.177 -1.2089 -0.2199  0.7724
15041TIP3   OH266613   3.023   2.890   3.832  0.0157 -0.0258  0.3932
15041TIP3    H166614   2.994   2.816   3.779 -2.1208  0.9157  0.2134
15041TIP3    H266615   3.115   2.901   3.808 -0.4156 -0.7672 -1.7780
15042TIP3   OH266616   6.166   6.328  17.154  0.5162 -0.4249 -0.4526
15042TIP3    H166617   6.154   6.377  17.236 -1.3823  0.3419 -1.1576
15042TIP3    H266618   6.259   6.306  17.153  0.7768  0.4635  1.4044
15043TIP3   OH266619   4.077   0.470  16.626 -0.3489 -0.3153 -0.1092
15043TIP3    H166620   4.034   0.436  16.547  0.4839 -1.0529 -0.2644
15043TIP3    H266621   4.124   0.547  16.596 -0.9559  0.0665 -0.0937
15044TIP3   OH266622   5.939   3.428  17.018  0.4185 -0.2138  0.2712
15044TIP3    H166623   5.957   3.432  17.112  1.3229  0.5301  0.0766
15044TIP3    H266624   5.953   3.518  16.988  0.6092 -0.5563 -0.6539
15045TIP3   OH266625   5.666   0.267  11.927 -0.2686 -0.0964 -0.0289
15045TIP3    H166626   5.746   0.230  11.963 -0.7314 -1.8703 -0.8028
15045TIP3    H266627   5.694   0.348  11.884  0.8168  0.2204  1.2574
15046TIP3   OH266628   4.293   5.062   4.336  0.1085  0.3919  0.6350
15046TIP3    H166629   4.311   4.982   4.286 -3.0937 -0.4754  0.7636
15046TIP3    H266630   4.311   5.133   4.275  3.3584 -0.3760  0.6419
15047TIP3   OH266631   2.953   3.874  12.486 -0.6027  0.2964  0.4346
15047TIP3    H166632   2.958   3.956  12.436 -2.0003 -0.8532 -1.6620
15047TIP3    H266633   2.983   3.807  12.424  0.0478 -0.8619  1.9716
15048TIP3   OH266634   5.632   6.469   0.942 -0.0136 -0.3045 -0.5297
15048TIP3    H166635   5.674   6.401   0.891 -2.4009 -0.1248 -2.8510
15048TIP3    H266636   5.611   6.427   1.026 -0.4509 -2.0926 -1.5160
15049TIP3   OH266637   3.921   6.115  13.856  0.0799  0.0336 -0.0645
15049TIP3    H166638   3.868   6.127  13.777 -0.0251  1.3525  0.1962
15049TIP3    H266639   4.008   6.095  13.823 -0.4123 -1.4357 -0.5013
15050TIP3   OH266640   1.657   4.145  13.338  0.3333  0.0346 -0.6064
15050TIP3    H166641   1.563   4.156  13.356 -0.0639 -1.5317 -1.6301
15050TIP3    H266642   1.688   4.233  13.319 -0.2804  1.0429  2.6948
15051TIP3   OH266643   6.547   0.147   5.922  0.4038  0.6376 -0.1935
15051TIP3    H166644   6.608   0.121   5.992  1.5158 -0.8628 -1.6777
15051TIP3    H266645   6.480   0.079   5.922  0.3140  0.7264 -0.4912
15052TIP3   OH266646   4.516   4.374  15.126  0.4028  0.0269 -0.0147
15052TIP3    H166647   4.548   4.404  15.211 -0.6451 -2.9781  1.5225
15052TIP3    H266648   4.555   4.287  15.115 -2.3092 -1.1473 -0.9247
15053TIP3   OH266649   3.177   3.929  11.062  0.4003 -0.3526 -0.0136
15053TIP3    H166650   3.092   3.973  11.054 -0.3245 -1.6115  0.5644
15053TIP3    H266651   3.226   3.958  10.986 -0.5426  0.4154 -0.3428
15054TIP3   OH266652   0.084   3.034  14.287  0.0884 -0.3377 -0.1722
15054TIP3    H166653   0.046   2.961  14.336  1.3510 -1.0826 -0.2817
15054TIP3    H266654   0.146   3.074  14.349 -0.4299  0.4968 -0.1921
15055TIP3   OH266655   1.722   0.490   0.836 -0.9526 -0.1537  0.1897
15055TIP3    H166656   1.690   0.400   0.833  2.5001 -1.4986  1.5516
15055TIP3    H266657   1.685   0.526   0.916 -3.0305 -0.0308 -0.7859
15056TIP3   OH266658   6.667   1.711   0.436  0.2030  0.0774  0.3354
15056TIP3    H166659   6.603   1.775   0.405  0.9004  0.8087  0.3835
15056TIP3    H266660   6.751   1.758   0.432  0.4707 -0.2143  2.1395
15057TIP3   OH266661   2.698   3.505  16.248  0.4615 -0.4107  0.3065
15057TIP3    H166662   2.684   3.424  16.297  1.9366 -0.6061  0.4234
15057TIP3    H266663   2.643   3.570  16.293  0.5248 -0.9715  1.2010
15058TIP3   OH266664   6.123   6.670  13.668 -0.0383  0.3825 -0.0346
15058TIP3    H166665   6.189   6.681  13.736  1.4112  0.2514 -1.3728
15058TIP3    H266666   6.044   6.643  13.714  0.4904  1.7516  1.7357
15059TIP3   OH266667   0.878   4.987   5.031  0.0181  0.2007 -0.0047
15059TIP3    H166668   0.801   4.949   5.072  0.8008  0.2348  1.5361
15059TIP3    H266669   0.873   4.958   4.940 -2.9030  1.9437 -0.4571
15060TIP3   OH266670   3.832   3.501  15.689 -0.4847  0.2575 -0.2962
15060TIP3    H166671   3.847   3.508  15.594 -0.6873 -1.0543 -0.4347
15060TIP3    H266672   3.919   3.484  15.725 -0.5921 -0.4759 -0.3779
15061TIP3   OH266673   2.578   6.542   4.671 -0.3441 -0.1970  0.0271
15061TIP3    H166674   2.484   6.530   4.665 -0.5540  1.5436 -0.4961
15061TIP3    H266675   2.610   6.532   4.581  0.0984 -1.6767  0.3345
15062TIP3   OH266676   3.770   1.933  12.797 -0.0269 -0.2122 -0.4943
15062TIP3    H166677   3.786   1.851  12.843 -2.0115 -1.2504 -1.5523
15062TIP3    H266678   3.674   1.941  12.796  0.0487  0.8385 -2.5709
15063TIP3   OH266679   4.523   6.383   0.031  0.4453  0.2712 -0.2199
15063TIP3    H166680   4.558   6.465   0.066 -0.3483  0.6126 -0.2138
15063TIP3    H266681   4.430   6.402   0.014  0.0600 -0.8540  0.5391
15064TIP3   OH266682   0.456   4.483  13.765  0.1086  0.3745  0.4272
15064TIP3    H166683   0.405   4.555  13.803 -0.3745 -0.0238  0.5301
15064TIP3    H266684   0.400   4.406  13.775  0.2955  0.1299 -0.4161
15065TIP3   OH266685   5.277   2.130  12.844 -0.2238 -0.3703  0.0809
15065TIP3    H166686   5.201   2.186  12.827  1.5185  1.8466 -0.5565
15065TIP3    H266687   5.288   2.133  12.939 -0.0958  0.4428  0.0438
15066TIP3   OH266688   3.852   2.472  13.733  0.5216 -0.2593  0.4919
15066TIP3    H166689   3.916   2.542  13.717 -0.1107 -0.0985 -1.4607
15066TIP3    H266690   3.893   2.393  13.697  1.5855 -1.1039  3.4255
15067TIP3   OH266691   4.148   0.222  16.792 -0.2328 -0.4592  0.3338
15067TIP3    H166692   4.229   0.190  16.753  0.8666 -1.2245  3.1731
15067TIP3    H266693   4.136   0.309  16.753  1.6305 -0.5594 -0.5140
15068TIP3   OH266694   0.176   5.789  13.788 -0.0711 -0.8095  0.2778
15068TIP3    H166695   0.270   5.803  13.802  0.0253 -0.9848 -0.1767
15068TIP3    H266696   0.146   5.868  13.743 -0.3504 -0.3107  1.3402
15069TIP3   OH266697   3.802   1.790  13.997  0.0767  0.0671 -0.0277
15069TIP3    H166698   3.878   1.806  13.941  1.5013  1.7933  2.2995
15069TIP3    H266699   3.772   1.877  14.022 -2.0588 -0.6264 -0.0725
15070TIP3   OH266700   4.302   0.970   1.787  0.2815 -0.1675  0.3333
15070TIP3    H166701   4.232   0.905   1.778  1.0382 -1.0885  0.9033
15070TIP3    H266702   4.357   0.955   1.710  0.3965 -0.1315  0.4092
15071TIP3   OH266703   0.545   3.716   6.192 -0.5044  0.5395 -0.0447
15071TIP3    H166704   0.589   3.768   6.260 -1.4124 -1.1676  1.9029
15071TIP3    H266705   0.452   3.734   6.206 -0.7734 -0.8974  0.0734
15072TIP3   OH266706   3.600   5.060  15.260  0.1103  0.3227 -0.8335
15072TIP3    H166707   3.525   5.112  15.288  0.3703  0.5658 -0.5818
15072TIP3    H266708   3.594   4.979  15.310  0.4644  0.6751 -0.2178
15073TIP3   OH266709   1.930   1.058  15.385  0.4237 -0.8057  0.3777
15073TIP3    H166710   1.959   0.989  15.444  1.2688 -0.8999 -0.1297
15073TIP3    H266711   1.936   1.020  15.298  2.5033  0.4111 -0.0493
15074TIP3   OH266712   5.692   5.547  12.106  0.1709 -0.9237 -0.4239
15074TIP3    H166713   5.731   5.623  12.149 -0.8521  0.2523 -1.5345
15074TIP3    H266714   5.604   5.541  12.144  0.3413 -1.6989 -0.1560
15075TIP3   OH266715   0.187   3.663   0.884 -0.3845  0.2285  0.1037
15075TIP3    H166716   0.158   3.573   0.900  0.4719 -0.3374 -1.4711
15075TIP3    H266717   0.257   3.676   0.948 -0.5846 -0.1779  0.4131
15076TIP3   OH266718   4.996   2.318  11.239  0.2572  0.1902 -0.6692
15076TIP3    H166719   4.919   2.316  11.182 -0.8843 -0.0307  0.8405
15076TIP3    H266720   4.982   2.395  11.294 -0.7752 -1.9395  2.1486
15077TIP3   OH266721   3.194   6.579  13.273  0.2100 -0.6318  1.1377
15077TIP3    H166722   3.229   6.548  13.190  1.1146 -0.4998  1.4642
15077TIP3    H266723   3.111   6.533  13.283 -0.7706  0.6667 -0.6960
15078TIP3   OH266724   1.565   5.258  13.197  0.0642 -1.1086 -0.2239
15078TIP3    H166725   1.622   5.182  13.186  1.1340 -0.4601  0.7366
15078TIP3    H266726   1.506   5.255  13.121  0.3885 -2.6215 -0.4427
15079TIP3   OH266727   1.964   0.049  13.910 -0.5532  0.2341  0.5360
15079TIP3    H166728   2.059   0.061  13.923 -0.7670  0.1545  2.3606
15079TIP3    H266729   1.933   0.136  13.883 -0.3712  0.9937  2.6727
15080TIP3   OH266730   0.418   1.958  15.458 -0.5403 -0.5296 -0.3522
15080TIP3    H166731   0.429   1.978  15.365 -2.5488  1.3511 -0.2487
15080TIP3    H266732   0.333   1.913  15.463 -1.1478  0.6962  0.7186
15081TIP3   OH266733   0.068   6.033   3.723  0.2356  0.3354 -0.3416
15081TIP3    H166734   0.035   6.122   3.724  0.8471  0.5757 -1.3704
15081TIP3    H266735   0.162   6.042   3.738  0.7264  0.0718 -3.0304
15082TIP3   OH266736   3.814   2.905   4.892  0.0730 -0.1009  0.4779
15082TIP3    H166737   3.726   2.938   4.871  0.8973  1.3820 -0.7077
15082TIP3    H266738   3.799   2.844   4.964 -2.4684 -3.0530 -2.3818
15083TIP3   OH266739   5.215   6.187   1.886 -0.5557 -0.0209 -0.4320
15083TIP3    H166740   5.250   6.271   1.855  0.9521 -0.6733 -0.5286
15083TIP3    H266741   5.160   6.156   1.815 -1.8060  1.2686 -0.0659
15084TIP3   OH266742   0.954   5.518  17.292 -0.7597 -0.6111 -0.5399
15084TIP3    H166743   0.990   5.430  17.282 -2.9121 -1.1874 -4.5684
15084TIP3    H266744   0.860   5.505  17.303 -0.8846  1.1242  0.7171
15085TIP3   OH266745   4.262   5.538   6.314  0.2507 -0.0177 -1.0957
15085TIP3    H166746   4.266   5.442   6.317 -0.5751 -0.0373 -0.4383
15085TIP3    H266747   4.169   5.558   6.305  0.2830  0.7501  0.1007
15086TIP3   OH266748   4.151   4.396   3.563 -0.9846  0.0762  0.2113
15086TIP3    H166749   4.106   4.415   3.645 -0.6775  1.9610 -0.0179
15086TIP3    H266750   4.177   4.483   3.530  0.4529 -0.7906 -0.9795
15087TIP3   OH266751   0.714   5.026  12.075  0.3399  0.4386  0.6453
15087TIP3    H166752   0.800   5.059  12.101  0.2659 -0.4408  2.0443
15087TIP3    H266753   0.652   5.094  12.104  0.1697 -0.9460  3.6794
15088TIP3   OH266754   4.664   1.476  13.709 -0.7840  0.0444 -0.3780
15088TIP3    H166755   4.639   1.561  13.747 -1.4033  0.2814 -1.2862
15088TIP3    H266756   4.628   1.411  13.770 -0.9040  0.4259 -0.0385
15089TIP3   OH266757   0.280   5.868  15.921  0.0745  0.2687 -0.3160
15089TIP3    H166758   0.189   5.886  15.899 -1.3147 -1.6327  3.3927
15089TIP3    H266759   0.325   5.951  15.905 -2.6003  1.7187 -0.7068
15090TIP3   OH266760   5.872   3.724   0.669 -0.2355 -0.1774 -0.2282
15090TIP3    H166761   5.921   3.644   0.652 -0.0186 -0.4244  1.4762
15090TIP3    H266762   5.928   3.775   0.727 -1.7512 -0.2404  1.3345
15091TIP3   OH266763   2.612   5.961   0.398 -0.3285  1.0156 -1.0605
15091TIP3    H166764   2.666   5.970   0.319  0.5789 -1.6227 -0.7933
15091TIP3    H266765   2.524   5.986   0.370 -0.4372 -1.8333 -3.5042
15092TIP3   OH266766   2.422   1.045  11.732 -0.0740  0.1870  0.5313
15092TIP3    H166767   2.405   1.083  11.818 -0.1607  0.0366  0.5821
15092TIP3    H266768   2.340   1.002  11.707 -0.5949  1.6949 -0.3930
15093TIP3   OH266769   4.489   0.318   0.534  0.0454  0.1447 -0.5411
15093TIP3    H166770   4.558   0.362   0.484  0.5346 -1.2016 -1.0818
15093TIP3    H266771   4.533   0.286   0.613  0.2691 -1.5299 -1.3273
15094TIP3   OH266772   4.658   1.811   2.460 -0.4652  1.0990  0.2840
15094TIP3    H166773   4.688   1.731   2.418 -1.0054  0.5085  1.0170
15094TIP3    H266774   4.736   1.848   2.501  0.3700  2.3818 -2.3261
15095TIP3   OH266775   1.618   0.945   0.323 -0.2765 -0.1072 -0.1021
15095TIP3    H166776   1.545   0.900   0.280  0.9582 -1.2817 -1.0209
15095TIP3    H266777   1.670   0.875   0.363  1.0728  0.5570 -0.6273
15096TIP3   OH266778   3.310   3.644   1.553  0.5899  0.2987  0.5798
15096TIP3    H166779   3.341   3.557   1.580  0.2049  0.4824  1.6504
15096TIP3    H266780   3.318   3.697   1.632 -0.7817  0.7996  0.3919
15097TIP3   OH266781   0.280   2.285   1.838 -0.4709 -0.1981 -0.6229
15097TIP3    H166782   0.353   2.223   1.831 -0.2324 -0.0209  0.2225
15097TIP3    H266783   0.298   2.351   1.771 -0.7550 -1.0631 -1.5638
15098TIP3   OH266784   5.323   4.946  15.638 -0.0276 -0.0691  0.1021
15098TIP3    H166785   5.276   4.960  15.556 -0.5519 -0.1800  0.3748
15098TIP3    H266786   5.336   4.851  15.643  0.9332  0.0355 -0.3534
15099TIP3   OH266787   3.555   4.073  11.526  0.3539  0.3221 -0.0033
15099TIP3    H166788   3.580   4.084  11.434 -1.4407  0.2110 -0.5207
15099TIP3    H266789   3.472   4.120  11.534  0.7013  0.6764  1.6669
15100TIP3   OH266790   6.262   4.028   1.939 -0.2096  0.4566 -0.4345
15100TIP3    H166791   6.188   4.055   1.884  0.0989 -0.0546 -1.1013
15100TIP3    H266792   6.238   3.940   1.970 -1.6652  1.8323  2.5315
15101TIP3   OH266793   5.093   0.921   5.725 -0.2123  0.2364  0.3483
15101TIP3    H166794   5.082   0.999   5.671 -1.3050  1.4842  2.2827
15101TIP3    H266795   5.007   0.878   5.723 -0.2404  0.2473  0.9907
15102TIP3   OH266796   2.481   2.995   3.262 -0.0777  0.0560 -0.2026
15102TIP3    H166797   2.525   2.978   3.346  0.8885  0.8118 -0.5467
15102TIP3    H266798   2.552   2.994   3.198 -0.6099  0.9835 -0.8162
15103TIP3   OH266799   3.142   0.340  15.290  0.6607  0.6387  0.1170
15103TIP3    H166800   3.171   0.344  15.382  0.4626  1.1534  0.1565
15103TIP3    H266801   3.216   0.302  15.243 -0.0401 -1.6992  0.8419
15104TIP3   OH266802   4.746   5.865   5.493  0.5385  0.1507  0.1577
15104TIP3    H166803   4.734   5.948   5.447  1.8375  1.1880  1.6024
15104TIP3    H266804   4.830   5.875   5.538  1.1617 -2.3195 -0.3760
15105TIP3   OH266805   0.389   5.081  14.591  0.1981  0.0968 -0.1543
15105TIP3    H166806   0.472   5.034  14.576 -0.1769 -0.7004  0.2112
15105TIP3    H266807   0.340   5.070  14.509  1.1738  2.1265 -1.0579
15106TIP3   OH266808   0.400   6.769  14.198 -0.0009  0.0833 -0.5877
15106TIP3    H166809   0.421   6.859  14.170 -2.4582  0.7770 -0.3189
15106TIP3    H266810   0.319   6.748  14.151  1.2120 -2.4807 -1.5879
15107TIP3   OH266811   0.869   0.105  11.255  0.0092  0.5458 -0.1739
15107TIP3    H166812   0.829   0.192  11.263  2.0665  1.3986  1.1448
15107TIP3    H266813   0.845   0.061  11.336  0.2798  0.4381 -0.1528
15108TIP3   OH266814   2.076   0.377   2.016 -0.3134 -0.0757 -0.0231
15108TIP3    H166815   2.039   0.357   1.930 -0.4951 -0.2945  0.1054
15108TIP3    H266816   2.165   0.407   1.997 -0.5352  0.3899 -0.3251
15109TIP3   OH266817   5.364   4.016  15.513 -0.1427 -0.2205 -0.6639
15109TIP3    H166818   5.271   4.026  15.495 -0.0403  1.1627 -0.4849
15109TIP3    H266819   5.381   4.073  15.587  0.9230 -0.1798 -0.9226
15110TIP3   OH266820   6.284   0.128   2.156  0.7353  0.0195 -0.0230
15110TIP3    H166821   6.220   0.060   2.176 -0.4941  0.7873 -1.2255
15110TIP3    H266822   6.244   0.209   2.190  0.9796  0.5276 -0.9289
15111TIP3   OH266823   1.274   0.995  10.965  0.2335 -0.2417  0.4622
15111TIP3    H166824   1.320   0.950  10.894  1.5008  0.1183  1.0409
15111TIP3    H266825   1.202   1.042  10.921 -0.4284 -1.9207 -0.2740
15112TIP3   OH266826   3.390   1.751   2.853  0.3923  0.5331 -0.0406
15112TIP3    H166827   3.329   1.817   2.885 -0.6280 -1.1925  1.6573
15112TIP3    H266828   3.365   1.738   2.761 -1.5013  0.2113  0.4962
15113TIP3   OH266829   5.797   2.491   1.823 -0.0040  0.2672  0.8190
15113TIP3    H166830   5.866   2.451   1.770  0.0152  1.1580  0.1517
15113TIP3    H266831   5.717   2.476   1.773 -0.0439  0.7679  0.7332
15114TIP3   OH266832   2.879   6.801   4.892  0.0561 -0.0909  0.2469
15114TIP3    H166833   2.844   6.735   4.832  0.3243  0.1481 -0.1737
15114TIP3    H266834   2.904   6.751   4.970 -0.8213 -0.3230  0.3853
15115TIP3   OH266835   6.298   4.279  11.527  0.5416 -0.3366  0.1031
15115TIP3    H166836   6.305   4.351  11.589  0.5530 -1.4840  1.4478
15115TIP3    H266837   6.283   4.322  11.443 -1.9510  1.1585  1.2506
15116TIP3   OH266838   2.282   3.364   2.116 -0.0022  0.1780 -0.3281
15116TIP3    H166839   2.297   3.344   2.208 -1.5005  1.1685  0.1554
15116TIP3    H266840   2.228   3.292   2.083 -0.6238  0.5152 -0.0610
15117TIP3   OH266841   3.017   4.441   0.979 -0.3233 -0.4091 -0.1674
15117TIP3    H166842   2.934   4.487   0.989  0.6890  0.8789  2.6967
15117TIP3    H266843   3.084   4.510   0.979  0.9233 -1.5860  0.1116
15118TIP3   OH266844   2.600   5.067  14.726  0.5181  0.0465  0.1993
15118TIP3    H166845   2.530   5.123  14.762  0.5571  0.3447 -0.1839
15118TIP3    H266846   2.553   5.000  14.676  0.4732 -0.2457  0.6252
15119TIP3   OH266847   5.546   5.142  11.588 -0.3481  0.4980 -0.1738
15119TIP3    H166848   5.467   5.116  11.539  0.7013 -2.9350 -0.1857
15119TIP3    H266849   5.606   5.174  11.520  0.4093 -2.4696 -0.9554
15120TIP3   OH266850   5.319   5.951  12.136  0.7033  0.2055 -0.3639
15120TIP3    H166851   5.311   5.856  12.130 -0.2038  0.3294 -1.2818
15120TIP3    H266852   5.308   5.971  12.229  1.5068 -0.6356 -0.0857
15121TIP3   OH266853   2.709   0.980   4.988  0.3100 -0.2926  0.4390
15121TIP3    H166854   2.706   0.905   4.929 -2.1317  0.2015 -0.0936
15121TIP3    H266855   2.695   0.943   5.075  4.8519 -1.1536  0.9694
15122TIP3   OH266856   3.967   1.661   3.580 -0.1533  0.0497  0.0383
15122TIP3    H166857   4.059   1.670   3.558 -0.3439 -1.8070 -1.7191
15122TIP3    H266858   3.951   1.567   3.580 -1.8422  0.3062  1.1815
15123TIP3   OH266859   5.579   5.299  13.398 -0.0591 -0.1424  0.4344
15123TIP3    H166860   5.542   5.345  13.474 -0.8921  0.1688 -0.1527
15123TIP3    H266861   5.582   5.207  13.426 -0.7261 -0.0875  0.7114
15124TIP3   OH266862   5.577   2.804   1.547  0.0090 -0.4385  0.4400
15124TIP3    H166863   5.615   2.856   1.476 -1.1057 -1.6068 -1.0443
15124TIP3    H266864   5.639   2.812   1.619  0.7798  1.4120 -0.3975
15125TIP3   OH266865   6.327   4.959   2.513 -0.6232  0.2904  0.0560
15125TIP3    H166866   6.308   4.912   2.432  0.7495 -1.1987  0.5817
15125TIP3    H266867   6.420   4.944   2.528 -0.8024  0.8168  1.7488
15126TIP3   OH266868   3.393   6.755  15.741 -0.5838 -0.1615 -0.0350
15126TIP3    H166869   3.425   6.761  15.651 -2.7266 -0.7099 -0.8639
15126TIP3    H266870   3.440   6.680  15.778  0.7164  0.4000 -0.5027
15127TIP3   OH266871   5.550   4.988  14.835  0.6399 -0.0925 -0.4971
15127TIP3    H166872   5.588   4.972  14.748 -0.3100 -0.9563 -0.7607
15127TIP3    H266873   5.547   5.083  14.843  1.2511 -0.0144 -1.1885
15128TIP3   OH266874   4.398   1.080   0.894  0.2041  0.0784  0.4076
15128TIP3    H166875   4.357   1.046   0.814 -0.7841  0.8101  0.5880
15128TIP3    H266876   4.475   1.128   0.862 -1.0472  1.7111 -0.2770
15129TIP3   OH266877   2.671   4.338  13.577 -0.2362  0.5442 -0.1822
15129TIP3    H166878   2.576   4.336  13.569 -0.6715 -0.5989  3.7884
15129TIP3    H266879   2.693   4.255  13.620  2.6839  0.3272 -1.9430
15130TIP3   OH266880   6.441   2.007  13.550 -0.2390  0.4254 -0.3367
15130TIP3    H166881   6.388   1.986  13.473  1.5416 -0.7382 -1.2642
15130TIP3    H266882   6.498   1.931  13.562  0.7739  1.3751  1.0505
15131TIP3   OH266883   5.411   6.543  13.564 -0.1041 -0.0861 -0.7174
15131TIP3    H166884   5.480   6.592  13.608 -0.2356  0.4532 -1.1023
15131TIP3    H266885   5.371   6.489  13.633  0.8824 -0.6105 -0.5549
15132TIP3   OH266886   2.130   2.392  16.996 -0.2292 -0.0875  0.1799
15132TIP3    H166887   2.158   2.477  16.963  1.3048 -0.2764  0.9772
15132TIP3    H266888   2.195   2.330  16.963 -0.9852 -0.8707  0.1241
15133TIP3   OH266889   2.946   3.137  17.080 -0.4078  0.1149 -0.6500
15133TIP3    H166890   2.897   3.064  17.042 -1.3073  0.3708  0.0127
15133TIP3    H266891   2.946   3.120  17.174  2.2062 -0.7534 -0.7525
15134TIP3   OH266892   6.641   3.943   3.863  0.8743 -0.7425 -0.4269
15134TIP3    H166893   6.603   3.871   3.914 -0.2414 -0.0461 -0.2715
15134TIP3    H266894   6.580   4.015   3.874  1.6079  0.0029 -1.2097
15135TIP3   OH266895   4.440   1.175   2.881 -0.3189  0.1602 -0.8762
15135TIP3    H166896   4.519   1.145   2.927 -0.3154 -0.4887 -1.3008
15135TIP3    H266897   4.381   1.100   2.883 -1.8998  1.3702  1.5206
15136TIP3   OH266898   4.305   3.033  14.376  0.5826 -0.0921  0.3483
15136TIP3    H166899   4.223   3.045  14.423 -0.2010  0.6845 -1.1602
15136TIP3    H266900   4.314   3.112  14.323  0.7203 -1.5198 -1.8395
15137TIP3   OH266901   0.615   0.212   0.388 -0.1842 -0.4769 -0.7628
15137TIP3    H166902   0.561   0.287   0.362 -0.2288 -0.9167 -1.9468
15137TIP3    H266903   0.601   0.147   0.319 -2.0398 -2.5225  1.4429
15138TIP3   OH266904   5.611   5.738  16.390  0.5516  0.9043 -0.0428
15138TIP3    H166905   5.635   5.738  16.483  1.8306 -0.4018 -0.3554
15138TIP3    H266906   5.686   5.776  16.345 -0.0803  1.5737 -0.5480
15139TIP3   OH266907   3.108   0.181   0.800 -0.9449  0.6273  0.0973
15139TIP3    H166908   3.081   0.273   0.803 -1.7862  0.5571 -3.5910
15139TIP3    H266909   3.072   0.148   0.718  1.3922 -2.3838  0.2183
15140TIP3   OH266910   1.897   1.594  13.826 -0.7073  0.1081  0.1042
15140TIP3    H166911   1.940   1.679  13.835  0.7290 -0.6332  0.3850
15140TIP3    H266912   1.957   1.532  13.869 -1.6339 -1.0768 -0.2861
15141TIP3   OH266913   3.915   6.789   1.767  0.0544 -0.5943 -0.3082
15141TIP3    H166914   4.004   6.815   1.789 -0.4390  1.2670 -0.3693
15141TIP3    H266915   3.882   6.859   1.711 -1.9539 -0.4547  0.9678
15142TIP3   OH266916   3.170   2.560   4.712 -0.4486 -0.2895 -0.1436
15142TIP3    H166917   3.124   2.536   4.631 -1.7589  1.3648  0.0917
15142TIP3    H266918   3.263   2.557   4.688 -0.8457  1.2493 -2.0368
15143TIP3   OH266919   5.202   1.699  17.094  0.6841  1.0929  0.0494
15143TIP3    H166920   5.231   1.609  17.107 -0.4537  0.5775 -0.9111
15143TIP3    H266921   5.273   1.740  17.044  0.7360  0.4250 -0.4396
15144TIP3   OH266922   2.896   5.269  12.317  0.3267  0.2052  0.0249
15144TIP3    H166923   2.904   5.362  12.296 -0.8212  0.3420  0.1556
15144TIP3    H266924   2.935   5.261  12.405  1.2183  0.3952 -0.3440
15145TIP3   OH266925   1.658   2.114  13.302  0.0846 -0.0124 -0.2982
15145TIP3    H166926   1.609   2.033  13.311  0.1901  0.1475  1.9874
15145TIP3    H266927   1.749   2.089  13.317  0.1924  0.4319 -0.1955
15146TIP3   OH266928   6.785   3.695   1.839 -0.6495 -0.5749  0.5210
15146TIP3    H166929   6.717   3.761   1.827 -0.2437 -0.0070  1.3014
15146TIP3    H266930   6.805   3.697   1.932 -0.0800 -1.2587  0.4208
15147TIP3   OH266931   5.672   4.058  16.166 -0.5019  0.1574 -0.4953
15147TIP3    H166932   5.615   3.985  16.191  0.8990 -0.8925 -0.3160
15147TIP3    H266933   5.760   4.022  16.169  0.1544  1.6546 -1.1792
15148TIP3   OH266934   0.637   6.815  12.846  0.2904  0.0221 -0.3725
15148TIP3    H166935   0.650   6.854  12.933  2.4751  0.7786 -0.9956
15148TIP3    H266936   0.638   6.721  12.861 -1.1759  0.1478  0.6483
15149TIP3   OH266937   1.450   0.372   0.848 -0.2198 -0.0166 -0.6190
15149TIP3    H166938   1.482   0.315   0.777 -2.1814 -0.2568 -1.3504
15149TIP3    H266939   1.361   0.341   0.864  0.0893  0.2674  1.7472
15150TIP3   OH266940   3.251   2.958   2.733  0.8680  0.1969 -0.2887
15150TIP3    H166941   3.189   3.022   2.699 -0.5599 -0.3569  1.2223
15150TIP3    H266942   3.328   3.009   2.758  0.7649  0.9751 -1.4824
15151TIP3   OH266943   5.242   4.148  13.281  0.6821  0.5472 -0.3347
15151TIP3    H166944   5.208   4.060  13.266 -0.9489  0.9352  0.8682
15151TIP3    H266945   5.185   4.205  13.228 -0.9913  1.2561  2.1087
15152TIP3   OH266946   1.884   4.363   2.774 -0.7478  0.3751 -0.3313
15152TIP3    H166947   1.819   4.308   2.730  0.0630 -1.2254  0.4324
15152TIP3    H266948   1.967   4.317   2.761 -0.3232  0.4797  1.8385
15153TIP3   OH266949   3.336   0.898   0.858  0.3797 -0.4020  0.1397
15153TIP3    H166950   3.250   0.889   0.898  0.8547  1.2592  1.5929
15153TIP3    H266951   3.377   0.812   0.869 -0.4302 -0.6817  1.0142
15154TIP3   OH266952   5.346   5.216  16.237 -0.4116  0.1669 -0.3847
15154TIP3    H166953   5.325   5.123  16.231 -1.0099  0.2722  0.0026
15154TIP3    H266954   5.377   5.227  16.327 -2.8558  0.8259  0.4233
15155TIP3   OH266955   1.865   1.673  16.301 -0.2155 -0.1504  0.1482
15155TIP3    H166956   1.806   1.611  16.259  0.5505 -1.8598  1.5093
15155TIP3    H266957   1.832   1.679  16.391  0.7932  0.0100  0.5154
15156TIP3   OH266958   3.094   6.817   3.098  0.1936 -0.2836 -0.1316
15156TIP3    H166959   3.057   6.867   3.170  1.7967  1.3156 -0.3746
15156TIP3    H266960   3.023   6.811   3.034 -1.0614 -1.2513  1.3285
15157TIP3   OH266961   2.665   4.125   5.605  0.4440 -0.6348 -0.2176
15157TIP3    H166962   2.593   4.183   5.583 -0.1800 -1.5014 -0.4621
15157TIP3    H266963   2.651   4.046   5.553  0.4203 -1.6352  1.2574
15158TIP3   OH266964   1.720   2.734   4.962  0.0980 -0.4615 -0.0605
15158TIP3    H166965   1.771   2.788   4.901  0.7461  0.1257  0.9939
15158TIP3    H266966   1.727   2.646   4.927  0.2272 -0.0892 -1.0011
15159TIP3   OH266967   0.070   0.551   0.991  0.5288 -0.5146  0.0391
15159TIP3    H166968   0.139   0.484   0.990  1.8482  0.8300  0.0529
15159TIP3    H266969   0.071   0.585   1.080 -1.2654 -1.6085  0.4915
15160TIP3   OH266970   5.170   6.756  11.476 -0.2859  0.3431  0.3782
15160TIP3    H166971   5.209   6.840  11.452 -1.4665  0.3685 -1.6132
15160TIP3    H266972   5.161   6.709  11.393  1.0329 -2.0753  1.5343
15161TIP3   OH266973   5.511   0.654   3.623 -0.2589 -0.1348 -0.4239
15161TIP3    H166974   5.523   0.602   3.544 -0.8379  0.6567 -1.0457
15161TIP3    H266975   5.459   0.599   3.681 -1.1723 -0.1150 -1.2137
15162TIP3   OH266976   5.633   1.742  12.244 -0.0770 -0.4502 -0.5950
15162TIP3    H166977   5.687   1.814  12.212 -1.8691  0.8725 -0.7101
15162TIP3    H266978   5.618   1.761  12.336 -0.4923 -0.6911 -0.6071
15163TIP3   OH266979   4.222   3.995  17.146 -0.0973  0.2734  0.3152
15163TIP3    H166980   4.152   3.989  17.080 -1.5960 -2.7882  2.0521
15163TIP3    H266981   4.198   4.070  17.200 -0.5679  0.8923 -0.7384
15164TIP3   OH266982   4.878   6.806  12.238 -0.0134  0.7211 -0.2870
15164TIP3    H166983   4.946   6.843  12.295 -0.2716  1.1294 -0.2469
15164TIP3    H266984   4.915   6.812  12.150 -0.2011  1.3914 -0.3197
15165TIP3   OH266985   4.172   6.244  16.973  0.1546 -0.1322  0.7108
15165TIP3    H166986   4.136   6.223  16.887 -0.2931  0.9120  0.6344
15165TIP3    H266987   4.266   6.251  16.959  0.0343  0.5174  0.2016
15166TIP3   OH266988   4.089   2.826  14.046 -0.2751  0.2802 -0.1442
15166TIP3    H166989   4.164   2.779  14.010 -0.1901  1.0538 -0.9769
15166TIP3    H266990   4.115   2.848  14.136  0.2185 -0.0721 -0.2021
15167TIP3   OH266991   2.273   1.560   4.982 -0.0289  0.0462  0.3905
15167TIP3    H166992   2.281   1.570   4.887 -0.9461 -2.3902  0.0246
15167TIP3    H266993   2.358   1.528   5.010  0.8356  2.4701  0.6862
15168TIP3   OH266994   1.479   3.459  13.442 -0.0455 -0.6639  0.4580
15168TIP3    H166995   1.437   3.450  13.527  0.3838  0.3283  0.7799
15168TIP3    H266996   1.442   3.388  13.389 -1.7382 -0.1270  0.8874
15169TIP3   OH266997   1.608   2.321   3.773  0.6532  0.2976 -0.8616
15169TIP3    H166998   1.526   2.285   3.740  0.2738  0.9302 -0.6179
15169TIP3    H266999   1.664   2.245   3.787  0.2211 -0.1101 -1.3374
15170TIP3   OH267000   0.774   0.234   4.285 -0.2271 -0.4794 -0.1514
15170TIP3    H167001   0.745   0.208   4.197  0.9494 -0.7298 -0.4745
15170TIP3    H267002   0.693   0.239   4.336 -0.8026 -1.6999 -0.9006
15171TIP3   OH267003   4.582   6.704  14.077  0.3018 -0.2144  0.0508
15171TIP3    H167004   4.669   6.708  14.036  1.6854  0.2485  2.9250
15171TIP3    H267005   4.537   6.634  14.029  1.3734  1.1508 -3.0712
15172TIP3   OH267006   1.291   2.265  15.452  0.3370 -1.1167 -0.4947
15172TIP3    H167007   1.262   2.174  15.452  1.0978 -1.3666 -0.2473
15172TIP3    H267008   1.378   2.262  15.412  0.1367 -0.4249 -0.9871
15173TIP3   OH267009   3.289   5.553   1.086 -0.3127  0.1196  0.0962
15173TIP3    H167010   3.305   5.647   1.094 -0.2611  0.2193 -1.0504
15173TIP3    H267011   3.254   5.542   0.998 -1.1053 -0.8356  0.5129
15174TIP3   OH267012   3.799   3.047  12.087  0.2160  0.3122 -0.2256
15174TIP3    H167013   3.818   2.968  12.036 -0.2597 -0.0952  0.2291
15174TIP3    H267014   3.712   3.074  12.058  0.3492  0.6319 -0.3297
15175TIP3   OH267015   2.877   0.609  15.915 -0.0548 -0.2443  0.3914
15175TIP3    H167016   2.823   0.642  15.987 -1.4597  0.6153 -1.0489
15175TIP3    H267017   2.918   0.687  15.877  0.0923 -0.6161 -0.2242
15176TIP3   OH267018   1.779   1.028  16.016  0.3303  0.0168  0.1846
15176TIP3    H167019   1.776   0.946  15.967 -0.6262  0.1426  0.0272
15176TIP3    H267020   1.849   1.079  15.974  0.4850 -0.4548 -0.1227
15177TIP3   OH267021   2.459   3.063   1.480  0.0815  0.2629 -0.3427
15177TIP3    H167022   2.550   3.076   1.451  0.1236 -0.3800 -0.4902
15177TIP3    H267023   2.455   2.972   1.508 -0.2522  0.5672  0.6380
15178TIP3   OH267024   3.579   0.692   4.574  0.2713 -0.0939 -0.3918
15178TIP3    H167025   3.543   0.683   4.663 -0.4670  0.0487 -0.6727
15178TIP3    H267026   3.562   0.607   4.533  0.6979 -0.1925 -0.3703
15179TIP3   OH267027   5.699   5.326   2.115  0.1133  0.1429 -0.0758
15179TIP3    H167028   5.723   5.387   2.046 -0.1220  4.4975  3.4606
15179TIP3    H267029   5.783   5.295   2.150  0.4266  2.7147  1.6007
15180TIP3   OH267030   1.388   2.106   6.777  0.3663  0.4404 -0.3628
15180TIP3    H167031   1.358   2.015   6.780 -0.2394  0.6032 -1.1501
15180TIP3    H267032   1.450   2.109   6.704  2.0490  0.1897  1.0279
15181TIP3   OH267033   4.466   6.685  11.668 -0.7395  0.0077  0.1519
15181TIP3    H167034   4.512   6.739  11.732 -1.8067 -0.5064  1.3796
15181TIP3    H267035   4.477   6.595  11.700  0.5747 -0.4690 -1.5786
15182TIP3   OH267036   5.123   3.681   5.212  0.2420 -0.3175 -0.2181
15182TIP3    H167037   5.109   3.755   5.153 -0.3577  0.1620  0.5160
15182TIP3    H267038   5.178   3.620   5.162  0.4672  0.4749 -0.9450
15183TIP3   OH267039   6.146   4.119   3.863 -0.0513  0.2877 -0.0965
15183TIP3    H167040   6.133   4.134   3.956  1.8558 -0.4435  0.3076
15183TIP3    H267041   6.226   4.167   3.842  0.2724 -0.6538 -1.0558
15184TIP3   OH267042   6.526   0.672  14.060  0.2762  0.3727 -0.3956
15184TIP3    H167043   6.433   0.690  14.044  0.5370  1.8453 -0.3831
15184TIP3    H267044   6.532   0.662  14.154 -0.1405 -1.4417 -0.5457
15185TIP3   OH267045   6.753   4.114   4.081 -0.1460  0.8813  0.2977
15185TIP3    H167046   6.717   4.025   4.088  1.8438  0.1025  0.8862
15185TIP3    H267047   6.741   4.138   3.989  0.9281 -0.7099 -0.2793
15186TIP3   OH267048   1.334   4.124  15.080 -0.2843 -0.2020  0.1497
15186TIP3    H167049   1.247   4.163  15.071  0.0978  0.4057 -0.9058
15186TIP3    H267050   1.347   4.074  15.000  0.2334 -0.5157  0.4222
15187TIP3   OH267051   4.390   0.837  15.838  0.3502 -0.0032 -0.1209
15187TIP3    H167052   4.451   0.887  15.783  1.2913 -0.9976  0.0055
15187TIP3    H267053   4.433   0.753  15.850  0.2812  0.2959  2.3660
15188TIP3   OH267054   3.946   5.940  12.194  0.2002  0.2957 -0.3583
15188TIP3    H167055   3.853   5.945  12.217  0.1896 -0.0988 -0.3206
15188TIP3    H267056   3.950   5.880  12.120  0.1914  1.8673 -1.6566
15189TIP3   OH267057   3.882   6.124  11.953 -0.0852 -0.7467  0.2522
15189TIP3    H167058   3.909   6.135  12.045  2.3558  0.7950 -0.6185
15189TIP3    H267059   3.928   6.045  11.925 -0.4933 -0.9681  0.1892
15190TIP3   OH267060   2.421   2.663  13.093 -0.0582 -0.4743 -0.0609
15190TIP3    H167061   2.393   2.675  13.184  1.5147  4.5935 -0.0924
15190TIP3    H267062   2.516   2.666  13.096  0.0910 -2.2130 -1.7194
15191TIP3   OH267063   0.799   1.021  16.063 -0.1221 -0.0794 -0.2869
15191TIP3    H167064   0.715   1.066  16.068 -0.3146 -0.2336 -1.8544
15191TIP3    H267065   0.777   0.928  16.074 -0.5955 -0.4607 -3.9234
15192TIP3   OH267066   2.485   0.441  12.583  0.1969  0.1214  0.2648
15192TIP3    H167067   2.470   0.404  12.496 -0.6682 -0.3828  0.6137
15192TIP3    H267068   2.579   0.431  12.597  0.1900 -0.7217 -0.2070
15193TIP3   OH267069   2.230   0.899   4.160 -0.0980 -0.6461  0.0357
15193TIP3    H167070   2.165   0.830   4.149  1.3341 -2.2106  1.1354
15193TIP3    H267071   2.306   0.869   4.110  0.5869  0.0535  0.6391
15194TIP3   OH267072   5.519   4.914   5.356  0.3750 -0.2379  0.3277
15194TIP3    H167073   5.560   4.935   5.272  0.5049 -2.1832 -0.1121
15194TIP3    H267074   5.538   4.990   5.411  0.0437  1.1764 -1.4778
15195TIP3   OH267075   5.574   5.087   3.847 -0.0870 -0.5038  0.2041
15195TIP3    H167076   5.550   5.161   3.791  0.8446 -0.2890  0.0831
15195TIP3    H267077   5.503   5.024   3.835  0.2398 -0.5793 -1.4637
15196TIP3   OH267078   0.135   6.116   1.811  0.0579  0.3999 -0.0619
15196TIP3    H167079   0.130   6.027   1.777 -0.6878  1.2244 -2.2136
15196TIP3    H267080   0.193   6.161   1.750  0.7971  1.2887  1.2740
15197TIP3   OH267081   2.387   6.570  10.391  0.1568 -0.1222  0.7627
15197TIP3    H167082   2.449   6.640  10.413 -1.0990  0.9377  0.9915
15197TIP3    H267083   2.329   6.565  10.466  0.6044 -1.8592  1.0101
15198TIP3   OH267084   2.556   3.957   5.851 -0.3886  0.4172 -0.2025
15198TIP3    H167085   2.635   3.912   5.882 -0.0330  1.5582  0.5916
15198TIP3    H267086   2.559   4.043   5.893 -0.9912  1.2452 -1.8153
15199TIP3   OH267087   6.027   3.758  16.000  0.7223  0.7973  0.7940
15199TIP3    H167088   6.018   3.834  15.943 -1.3620 -0.5804 -0.7864
15199TIP3    H267089   6.012   3.683  15.943  0.4307 -0.7095  2.7788
15200TIP3   OH267090   4.558   5.930   3.544  0.2994 -0.3627 -0.2167
15200TIP3    H167091   4.638   5.894   3.584 -0.5729 -2.7047 -0.4764
15200TIP3    H267092   4.536   5.868   3.474 -0.3837  1.5898 -1.7717
15201TIP3   OH267093   3.235   5.702  14.529 -0.4382  0.6862  0.1665
15201TIP3    H167094   3.255   5.788  14.566 -0.5419  1.1568 -0.8710
15201TIP3    H267095   3.319   5.671  14.493 -1.0103  1.5991 -2.0052
15202TIP3   OH267096   1.401   4.476  14.957 -0.1923 -0.1633  0.5614
15202TIP3    H167097   1.383   4.442  14.870  1.2870 -1.3247  0.6973
15202TIP3    H267098   1.317   4.513  14.986 -1.2325 -1.6251 -0.5073
15203TIP3   OH267099   0.574   4.837  12.361 -0.1187  0.5817  0.1758
15203TIP3    H167100   0.525   4.844  12.279  1.6314  1.6562 -0.8164
15203TIP3    H267101   0.510   4.857  12.429 -1.8331 -1.2340 -0.8294
15204TIP3   OH267102   2.517   5.919   5.570 -0.4874  0.3505 -0.2616
15204TIP3    H167103   2.553   5.953   5.652 -2.1328  1.9860 -0.1776
15204TIP3    H267104   2.590   5.871   5.530  1.0106  1.4216  1.0883
15205TIP3   OH267105   5.285   1.431  17.121  0.2100  0.7995  0.0825
15205TIP3    H167106   5.368   1.432  17.074 -1.3957  0.7681 -2.8924
15205TIP3    H267107   5.269   1.339  17.141  0.4192  0.6851 -0.2713
15206TIP3   OH267108   3.275   2.832  12.587  0.0977  0.0479  0.3368
15206TIP3    H167109   3.348   2.893  12.581 -0.1948  0.3379 -0.2457
15206TIP3    H267110   3.252   2.812  12.496 -0.3801 -0.2474  0.5179
15207TIP3   OH267111   3.633   6.222  11.863 -0.7807  0.0630 -0.1061
15207TIP3    H167112   3.714   6.183  11.897 -0.7789 -2.1293 -2.4762
15207TIP3    H267113   3.641   6.315  11.883  1.9474 -0.2461  0.4727
15208TIP3   OH267114   2.096   5.967  16.684  0.3461 -0.5688 -0.0402
15208TIP3    H167115   2.048   5.996  16.762 -0.2614 -0.8870 -0.2892
15208TIP3    H267116   2.032   5.976  16.613  0.7496 -0.7282 -0.4235
15209TIP3   OH267117   2.182   6.684   1.380  0.3127 -0.1392  0.4921
15209TIP3    H167118   2.220   6.608   1.423  1.0334 -1.3980 -2.2878
15209TIP3    H267119   2.194   6.668   1.286 -1.0138  2.6131 -0.2108
15210TIP3   OH267120   5.267   0.936  11.361  0.1218 -0.3783 -0.2712
15210TIP3    H167121   5.188   0.989  11.364  0.0238 -0.4085 -1.9334
15210TIP3    H267122   5.329   0.981  11.418 -0.5195  0.5773 -0.3222
15211TIP3   OH267123   2.703   1.001   0.247  0.7808  0.4590  0.3712
15211TIP3    H167124   2.702   0.932   0.181 -0.7992 -0.3585  1.2274
15211TIP3    H267125   2.787   1.045   0.234  1.8303 -1.6404 -0.1878
15212TIP3   OH267126   2.986   0.913   2.472 -0.3611 -0.3032 -0.3751
15212TIP3    H167127   2.946   0.836   2.431 -1.1673  0.1327 -0.4082
15212TIP3    H267128   2.928   0.934   2.545  2.3036 -2.5435  2.5729
15213TIP3   OH267129   3.014   5.646  13.747  0.3216 -0.3280 -0.7330
15213TIP3    H167130   3.078   5.581  13.774  2.2292  1.3485 -1.0532
15213TIP3    H267131   3.053   5.686  13.668 -0.5543  1.5146 -0.2639
15214TIP3   OH267132   4.185   6.148   2.027  0.0007 -0.1136  0.1873
15214TIP3    H167133   4.257   6.140   2.089  0.6742 -0.8046 -0.6841
15214TIP3    H267134   4.138   6.065   2.033 -1.3564  0.7179  1.5140
15215TIP3   OH267135   0.990   4.800   2.721  0.0188  0.4963  0.0829
15215TIP3    H167136   0.929   4.805   2.795  0.1708 -0.9315  0.3215
15215TIP3    H267137   0.942   4.838   2.648 -0.3608  1.3571  0.7666
15216TIP3   OH267138   3.759   4.208   3.028  0.4784 -0.1666  0.3556
15216TIP3    H167139   3.770   4.113   3.020 -1.1251 -0.1046 -4.0867
15216TIP3    H267140   3.807   4.244   2.953 -0.0274  2.4150  1.2223
15217TIP3   OH267141   0.722   1.711   4.844 -0.2581  0.1778  0.0503
15217TIP3    H167142   0.639   1.742   4.808 -0.7546 -1.5208 -0.3221
15217TIP3    H267143   0.786   1.732   4.776 -0.6106  0.2601 -0.2620
15218TIP3   OH267144   2.675   2.105   1.522 -0.3355  0.2423  0.8543
15218TIP3    H167145   2.597   2.083   1.574 -0.4495  0.5522  0.8154
15218TIP3    H267146   2.641   2.113   1.433 -0.1021 -0.5126  0.6939
15219TIP3   OH267147   5.053   5.605  15.370  0.4026  0.1378  0.3161
15219TIP3    H167148   5.140   5.583  15.402 -0.3455  0.7091  2.9126
15219TIP3    H267149   4.994   5.547  15.420 -0.7087 -0.3073 -1.4516
15220TIP3   OH267150   4.509   1.896  11.896 -0.5351  0.1777 -0.2012
15220TIP3    H167151   4.462   1.956  11.954 -1.5382 -0.7702 -0.0289
15220TIP3    H267152   4.598   1.932  11.892 -1.0679  1.5505  0.0711
15221TIP3   OH267153   5.618   2.052  15.335  0.0717  0.7833 -0.1583
15221TIP3    H167154   5.684   1.986  15.312 -0.7730 -0.4432  0.8643
15221TIP3    H267155   5.600   2.098  15.253 -0.6609 -1.4997 -1.3208
15222TIP3   OH267156   2.524   5.768  12.074  0.0956 -0.2549  0.5358
15222TIP3    H167157   2.595   5.703  12.076  0.3313  0.0049  0.7659
15222TIP3    H267158   2.444   5.716  12.075  0.2836 -0.5629 -0.1710
15223TIP3   OH267159   0.358   3.380  15.126  0.0283 -0.1424  0.2064
15223TIP3    H167160   0.362   3.396  15.032  0.2537  0.9018  0.3905
15223TIP3    H267161   0.384   3.288  15.136 -0.2443 -0.3225 -0.7682
15224TIP3   OH267162   6.121   4.027  12.134 -0.2033 -0.5729  0.2344
15224TIP3    H167163   6.085   3.950  12.091 -0.0417 -0.4831 -0.0591
15224TIP3    H267164   6.215   4.007  12.144  0.1016  0.1783 -1.1032
15225TIP3   OH267165   6.242   5.762   3.740  0.0352 -0.4438 -0.4231
15225TIP3    H167166   6.274   5.785   3.653  2.5246 -0.3285  0.4890
15225TIP3    H267167   6.316   5.717   3.782 -1.4865 -1.4720  1.2485
15226TIP3   OH267168   0.436   6.050  14.391 -0.1271 -0.1357  0.5168
15226TIP3    H167169   0.396   5.978  14.440 -0.0163 -0.0456  0.7363
15226TIP3    H267170   0.476   6.008  14.315  0.4549 -0.3725  0.9578
15227TIP3   OH267171   4.578   1.301   1.540 -0.3580  0.5310  0.4888
15227TIP3    H167172   4.562   1.376   1.483 -0.2469  0.8627  0.8850
15227TIP3    H267173   4.535   1.325   1.622 -3.0164 -1.1748 -0.3556
15228TIP3   OH267174   1.485   5.743   0.438  0.0515  0.2482 -0.3721
15228TIP3    H167175   1.509   5.738   0.530  0.7618 -0.3338 -0.5821
15228TIP3    H267176   1.428   5.667   0.424 -1.1532  1.0832 -0.1055
15229TIP3   OH267177   0.779   2.729  12.779  0.3868  0.0825  0.5336
15229TIP3    H167178   0.753   2.787  12.851 -0.2585  0.3171  0.1164
15229TIP3    H267179   0.854   2.681  12.813 -0.1208 -0.0450  1.4871
15230TIP3   OH267180   5.504   3.548   1.931  0.0401 -0.5872  0.1534
15230TIP3    H167181   5.516   3.544   2.026  1.9963 -0.0405 -0.0395
15230TIP3    H267182   5.580   3.598   1.900 -1.1689  0.2008 -1.5833
15231TIP3   OH267183   1.080   5.798   4.188 -0.8968 -0.5355  0.3367
15231TIP3    H167184   0.987   5.803   4.210 -0.9224  1.0903 -0.0777
15231TIP3    H267185   1.124   5.847   4.258 -0.7432  2.2795 -1.6554
15232TIP3   OH267186   5.061   5.205   4.173  0.1724  0.8218  1.1285
15232TIP3    H167187   5.106   5.124   4.200  0.6147  0.6864  0.0542
15232TIP3    H267188   5.013   5.233   4.250 -0.3578 -0.7280  1.3917
15233TIP3   OH267189   6.069   0.105   4.609  0.2435 -0.3496  0.9490
15233TIP3    H167190   6.100   0.160   4.681  1.2914 -0.1321  0.3345
15233TIP3    H267191   6.148   0.074   4.566 -0.3589 -1.4106  0.5784
15234TIP3   OH267192   5.491   6.130   3.739 -0.0886  0.3599  0.2816
15234TIP3    H167193   5.444   6.052   3.711 -0.0898  0.2449  0.5937
15234TIP3    H267194   5.437   6.203   3.709  0.6324  0.2758 -1.2625
15235TIP3   OH267195   0.401   2.752   1.208 -0.4569  0.0089 -0.0546
15235TIP3    H167196   0.374   2.670   1.167  0.3262 -0.4897  0.3950
15235TIP3    H267197   0.456   2.724   1.281 -0.1056  0.9423  0.0398
15236TIP3   OH267198   0.233   3.912   1.216  0.3054  0.5474 -0.1219
15236TIP3    H167199   0.224   3.957   1.300  0.5805 -0.5463  0.5045
15236TIP3    H267200   0.316   3.943   1.181  0.3854  0.7062  0.2041
15237TIP3   OH267201   4.315   2.074   3.306  0.4905 -0.1237  0.7974
15237TIP3    H167202   4.268   2.017   3.367 -1.1643  0.1623 -0.1577
15237TIP3    H267203   4.246   2.126   3.264  1.6689  0.3147 -0.6563
15238TIP3   OH267204   6.303   0.873   5.743 -0.0386 -0.1459 -0.1067
15238TIP3    H167205   6.382   0.823   5.762  0.6773  0.7517 -0.6554
15238TIP3    H267206   6.291   0.862   5.649 -0.1352  0.3394 -0.1495
15239TIP3   OH267207   6.032   6.695   0.428  0.0403 -0.1924 -0.8130
15239TIP3    H167208   5.977   6.700   0.350 -0.4848 -1.3787 -0.5202
15239TIP3    H267209   6.020   6.606   0.462 -2.6538  1.3884  2.7249
15240TIP3   OH267210   6.620   3.650   2.721  0.0544 -0.2002 -0.2658
15240TIP3    H167211   6.568   3.577   2.687  0.5940 -0.8853  0.3670
15240TIP3    H267212   6.670   3.681   2.645 -0.7008 -0.0246 -0.6976
15241TIP3   OH267213   4.694   6.500  14.535 -0.4320  0.0670  0.3654
15241TIP3    H167214   4.674   6.544  14.453 -0.7730 -1.0127 -0.1421
15241TIP3    H267215   4.704   6.571  14.599 -1.0953  0.8683 -0.4081
15242TIP3   OH267216   3.082   2.481  17.179 -0.4969  0.1148  0.0845
15242TIP3    H167217   3.000   2.434  17.165 -0.0733 -0.4589 -0.4744
15242TIP3    H267218   3.135   2.422  17.232 -0.6312  0.7035  0.8983
15243TIP3   OH267219   3.161   5.266   1.276 -0.0941  0.1297 -0.2776
15243TIP3    H167220   3.195   5.347   1.313  0.2471 -0.5077  0.8460
15243TIP3    H267221   3.077   5.253   1.319  0.1066 -0.3988 -0.0429
15244TIP3   OH267222   1.325   5.878   6.387 -0.2362 -0.2561 -0.0542
15244TIP3    H167223   1.301   5.813   6.452  0.0339 -0.8361 -0.5233
15244TIP3    H267224   1.365   5.827   6.316 -1.4627  0.2490 -1.1244
15245TIP3   OH267225   0.097   1.183  15.799 -0.9321  0.4202 -0.3772
15245TIP3    H167226   0.036   1.135  15.856 -0.0859  0.7436  0.8218
15245TIP3    H267227   0.067   1.163  15.710 -0.7139 -2.1860  0.0919
15246TIP3   OH267228   2.636   0.980  12.054  0.7730  0.4636  0.1609
15246TIP3    H167229   2.697   0.973  11.980 -0.3426  0.8038 -0.8198
15246TIP3    H267230   2.570   0.913  12.036  0.9948 -0.0910  1.3613
15247TIP3   OH267231   6.516   5.820   5.580 -0.6669  0.7874  0.0146
15247TIP3    H167232   6.528   5.766   5.658 -1.5729 -0.6339 -0.8030
15247TIP3    H267233   6.475   5.900   5.612 -1.1696  0.1552  0.9834
15248TIP3   OH267234   4.228   6.197  10.600  0.4260 -0.1061 -0.0529
15248TIP3    H167235   4.197   6.192  10.691 -0.9573 -1.8376 -0.5948
15248TIP3    H267236   4.154   6.168  10.548  2.0124 -1.5178 -1.5800
15249TIP3   OH267237   0.955   3.675  13.237  0.2755  0.3343  0.1765
15249TIP3    H167238   0.923   3.598  13.283 -1.1350  1.8962  1.8362
15249TIP3    H267239   0.930   3.749  13.292  2.1538  1.9619 -1.0751
15250TIP3   OH267240   3.057   1.839  12.495 -0.3241 -0.0477  0.2243
15250TIP3    H167241   3.037   1.766  12.436 -2.1159 -1.4030  2.4268
15250TIP3    H267242   3.023   1.916  12.451 -2.5074 -1.1696 -0.1040
15251TIP3   OH267243   0.915   0.977   2.695  0.0976 -0.4546 -0.1757
15251TIP3    H167244   1.006   1.008   2.687  0.3615 -0.6322  1.9107
15251TIP3    H267245   0.863   1.050   2.662  1.0068 -0.7581 -2.4192
15252TIP3   OH267246   5.809   0.138   5.489 -0.7887 -0.0224 -0.1409
15252TIP3    H167247   5.748   0.129   5.562 -0.5646 -0.0651  0.0420
15252TIP3    H267248   5.801   0.056   5.440  1.3339 -1.3240  1.5758
15253TIP3   OH267249   2.169   5.959  11.154 -0.0150 -0.3301  0.1658
15253TIP3    H167250   2.128   5.952  11.068  0.6459  1.3603 -0.3152
15253TIP3    H267251   2.254   5.915  11.144  0.2849  0.3206 -0.2156
15254TIP3   OH267252   2.889   2.298   1.655  0.6783 -0.6665  0.0941
15254TIP3    H167253   2.812   2.352   1.642  0.6416 -0.9270 -0.8721
15254TIP3    H267254   2.860   2.209   1.633  1.6008 -0.5519 -1.6937
15255TIP3   OH267255   5.075   6.154  16.944  0.1220  0.4231  0.5174
15255TIP3    H167256   5.038   6.090  17.004  0.4162 -0.6819 -0.4800
15255TIP3    H267257   5.164   6.123  16.926  0.4679  1.4024  0.4620
15256TIP3   OH267258   1.400   0.017   2.125  0.3520  0.0567  0.6466
15256TIP3    H167259   1.488  -0.019   2.135  1.0024  1.0262 -1.2140
15256TIP3    H267260   1.371  -0.016   2.039 -0.4087  1.1436  0.4793
15257TIP3   OH267261   2.687   4.772   2.039 -0.2385 -0.1103 -0.1377
15257TIP3    H167262   2.650   4.757   1.952  0.1016 -0.3445 -0.2454
15257TIP3    H267263   2.760   4.832   2.023  0.1565 -0.5767 -0.0876
15258TIP3   OH267264   4.577   2.718  16.572 -0.0555  0.1041 -0.1990
15258TIP3    H167265   4.510   2.685  16.511  0.8401  0.0555 -1.1760
15258TIP3    H267266   4.651   2.659  16.559  0.5980  0.8803  0.0293
15259TIP3   OH267267   5.505   3.831   1.222  0.1863  0.2084 -1.0260
15259TIP3    H167268   5.461   3.812   1.305  0.1139  2.7136 -0.4557
15259TIP3    H267269   5.511   3.746   1.178  1.7209 -1.4475  2.2588
15260TIP3   OH267270   0.587   3.208  14.725  0.1480  0.4657 -0.1815
15260TIP3    H167271   0.534   3.181  14.800  1.0369 -0.3542  0.1580
15260TIP3    H267272   0.526   3.204  14.651 -0.9700  2.1820  0.6295
15261TIP3   OH267273   1.790   2.449  15.834  0.1724  0.6176 -0.1824
15261TIP3    H167274   1.872   2.499  15.824  0.0107  0.8556 -0.3287
15261TIP3    H267275   1.818   2.358  15.834  0.3476  0.6654 -1.1432
15262TIP3   OH267276   3.843   2.599   3.759 -0.0988 -0.6270  0.1133
15262TIP3    H167277   3.764   2.549   3.738 -1.6788  1.0195  1.9752
15262TIP3    H267278   3.857   2.655   3.683 -2.1849  0.8691  0.8135
15263TIP3   OH267279   4.413   2.612  15.474 -0.0230 -0.5586 -0.0919
15263TIP3    H167280   4.412   2.666  15.553  0.8081  0.4819 -0.7762
15263TIP3    H267281   4.351   2.541  15.492 -2.4638  1.5700  0.1786
15264TIP3   OH267282   3.505   2.282   2.626 -0.8622  0.0617 -0.6119
15264TIP3    H167283   3.535   2.231   2.702 -1.2084 -1.0046 -1.1828
15264TIP3    H267284   3.435   2.229   2.587 -0.3335  0.3385 -1.9757
15265TIP3   OH267285   2.653   0.853  10.986  0.5161  0.5336 -0.2419
15265TIP3    H167286   2.624   0.945  10.981 -0.4614  0.1769 -1.7261
15265TIP3    H267287   2.607   0.817  11.061 -1.9102  0.3480 -1.7605
15266TIP3   OH267288   6.514   6.760  16.568  0.5032  0.2823 -0.5232
15266TIP3    H167289   6.474   6.768  16.654  0.5917 -0.5905 -0.3945
15266TIP3    H267290   6.557   6.675  16.569  0.6632  0.3430 -1.3649
15267TIP3   OH267291   4.318   4.580  12.757 -0.1780 -0.3985  0.1180
15267TIP3    H167292   4.350   4.565  12.668 -0.7624 -0.5467 -0.0721
15267TIP3    H267293   4.343   4.670  12.777  1.5702 -0.9531  0.4924
15268TIP3   OH267294   5.504   0.708   2.073  0.2249  0.2547 -0.3765
15268TIP3    H167295   5.411   0.713   2.094  0.2090  0.8735 -0.5693
15268TIP3    H267296   5.538   0.794   2.094  1.6928 -1.2699  3.8896
15269TIP3   OH267297   6.662   1.556  16.610 -0.5961  0.0666  0.4371
15269TIP3    H167298   6.574   1.534  16.640 -0.7244  0.5979  0.4647
15269TIP3    H267299   6.652   1.640  16.565 -0.1410  0.0272  0.2538
15270TIP3   OH267300   6.397   5.568  15.139 -0.1464  0.0687  0.0479
15270TIP3    H167301   6.475   5.566  15.084  0.0987  1.7703  0.3216
15270TIP3    H267302   6.425   5.529  15.222  0.2534  0.1553 -0.0470
15271TIP3   OH267303   1.513   5.753   1.938  0.1161 -0.3245 -0.1591
15271TIP3    H167304   1.537   5.800   1.858  1.9857 -1.6442 -0.3945
15271TIP3    H267305   1.421   5.730   1.924 -0.3965  1.8812 -0.7026
15272TIP3   OH267306   6.808   2.855  14.554  0.6929  0.0984 -0.4552
15272TIP3    H167307   6.791   2.948  14.539 -1.8106 -0.3383 -0.5737
15272TIP3    H267308   6.721   2.815  14.553  1.7926 -2.3253 -0.9288
15273TIP3   OH267309   0.852   5.607   6.348  0.2048 -0.1009  0.1340
15273TIP3    H167310   0.782   5.622   6.412 -1.2431  0.4874 -1.5281
15273TIP3    H267311   0.844   5.514   6.325  1.1742 -0.4830  1.2932
15274TIP3   OH267312   3.399   5.812  14.831 -0.1502  0.7159 -0.2387
15274TIP3    H167313   3.345   5.842  14.757 -0.6036  1.7475  0.4990
15274TIP3    H267314   3.449   5.738  14.796 -3.1445 -1.2666 -0.5546
15275TIP3   OH267315   1.668   1.209  16.566  0.0747 -0.2538  0.3908
15275TIP3    H167316   1.680   1.223  16.660 -1.6482 -1.0216  0.7442
15275TIP3    H267317   1.659   1.297  16.529 -0.0746  0.0131  1.0674
15276TIP3   OH267318   6.148   0.963  15.510 -0.0744 -0.7472 -0.1062
15276TIP3    H167319   6.185   1.000  15.430 -0.5484  1.7866  0.7894
15276TIP3    H267320   6.220   0.963  15.573 -0.4435  0.1149  0.3370
15277TIP3   OH267321   1.803   0.639  16.967 -0.0960  0.1328 -0.2101
15277TIP3    H167322   1.897   0.654  16.958  0.1642 -1.3926 -0.1731
15277TIP3    H267323   1.776   0.698  17.037  1.1578 -0.6437  0.9648
15278TIP3   OH267324   4.175   6.476   5.853  0.7675 -0.3930 -0.2604
15278TIP3    H167325   4.222   6.408   5.901  1.4872 -0.9644 -1.7405
15278TIP3    H267326   4.147   6.538   5.921  0.3490 -1.9978  1.0665
15279TIP3   OH267327   6.200   5.975   0.771  0.1954 -0.8664  0.1179
15279TIP3    H167328   6.122   5.926   0.798 -0.9791  0.1656 -1.3559
15279TIP3    H267329   6.172   6.025   0.695  1.8963  0.6894  0.4838
15280TIP3   OH267330   0.176   3.152   2.795 -0.6539 -0.2932  0.0899
15280TIP3    H167331   0.201   3.119   2.881 -1.0958  0.6167  0.5738
15280TIP3    H267332   0.235   3.225   2.779 -1.3011  0.2422  0.1128
15281TIP3   OH267333   6.671   3.219  13.035  0.6069 -0.8695  0.1897
15281TIP3    H167334   6.710   3.140  13.071  0.5543 -1.4587 -1.0090
15281TIP3    H267335   6.648   3.196  12.945  1.7634  0.8964 -0.5930
15282TIP3   OH267336   6.224   0.550  16.439 -0.1109 -0.1285 -0.2830
15282TIP3    H167337   6.287   0.521  16.505 -0.3647  0.1176  0.0722
15282TIP3    H267338   6.233   0.487  16.368 -1.4190 -1.7521  0.9345
15283TIP3   OH267339   1.862   2.954   0.983 -0.4526  0.5967 -0.5486
15283TIP3    H167340   1.843   2.949   1.077  1.4142  1.2575 -0.1123
15283TIP3    H267341   1.877   2.864   0.957  0.9782  0.6049  0.2264
15284TIP3   OH267342   0.242   0.681   3.320  0.6257  0.1765 -0.2198
15284TIP3    H167343   0.332   0.715   3.320  0.6512  0.1769  2.5773
15284TIP3    H267344   0.218   0.675   3.412 -1.2763 -2.4515 -0.8312
15285TIP3   OH267345   4.012   1.310   6.270  0.0511  0.6603  0.0664
15285TIP3    H167346   3.936   1.290   6.324 -0.6013  0.6333 -0.8651
15285TIP3    H267347   4.048   1.224   6.246 -0.0802  0.6676 -0.1514
15286TIP3   OH267348   2.933   2.009   3.033  0.3400 -0.6969 -0.1428
15286TIP3    H167349   2.946   2.036   3.125  1.1565 -0.0103 -0.4489
15286TIP3    H267350   2.876   1.932   3.039  0.6851 -0.8877  0.9705
15287TIP3   OH267351   0.726   3.798   3.838 -0.0106  0.1180  0.3741
15287TIP3    H167352   0.650   3.740   3.835 -1.9427  2.5826 -1.7702
15287TIP3    H267353   0.746   3.816   3.746  2.7153  0.1300  0.9366
15288TIP3   OH267354   6.731   1.400  14.842  0.1912  0.1317  0.2718
15288TIP3    H167355   6.732   1.489  14.806  0.1792  0.5369  1.2547
15288TIP3    H267356   6.663   1.355  14.793 -0.1577  0.8171  0.1238
15289TIP3   OH267357   2.589   4.079   1.378 -0.0051  0.1219  0.3397
15289TIP3    H167358   2.685   4.085   1.375  0.0629 -1.3292 -1.2923
15289TIP3    H267359   2.571   4.015   1.446  0.3135 -1.5683 -1.1254
15290TIP3   OH267360   5.997   4.097  16.385 -0.0315  0.4548  0.3383
15290TIP3    H167361   6.029   4.079  16.474  2.0224  1.0016 -0.2770
15290TIP3    H267362   5.920   4.153  16.398 -0.9346 -1.0598  1.8416
15291TIP3   OH267363   4.948   3.191   0.160 -0.5235 -0.1160 -0.6578
15291TIP3    H167364   4.939   3.286   0.144  0.5776  0.3014  1.0955
15291TIP3    H267365   5.028   3.167   0.114 -0.2482  0.0137 -0.2491
15292TIP3   OH267366   3.281   5.358   5.524 -0.0266  0.0629 -0.3463
15292TIP3    H167367   3.286   5.436   5.469  1.1589  1.3208  1.4919
15292TIP3    H267368   3.188   5.349   5.545 -0.3340  0.2352 -1.6073
15293TIP3   OH267369   6.599   4.625  13.341  0.1660  0.2948  0.3128
15293TIP3    H167370   6.521   4.672  13.312  0.9292  1.2539 -0.2099
15293TIP3    H267371   6.615   4.656  13.430 -0.0999  0.0265  0.4559
15294TIP3   OH267372   4.349   3.674  11.383 -0.1236  0.1998 -0.5207
15294TIP3    H167373   4.426   3.653  11.435 -0.1145 -0.1018 -0.6584
15294TIP3    H267374   4.280   3.615  11.416  0.1310 -0.6350 -1.4798
15295TIP3   OH267375   3.042   4.420   2.107 -0.3834  0.5865  0.2140
15295TIP3    H167376   2.952   4.385   2.108 -1.1215  2.3732 -1.3344
15295TIP3    H267377   3.095   4.349   2.071 -1.3573 -0.0789  0.0761
15296TIP3   OH267378   6.552   3.303  16.249  0.0507 -0.6046 -0.1964
15296TIP3    H167379   6.463   3.271  16.265  0.2971 -1.0720  0.2339
15296TIP3    H267380   6.605   3.224  16.241  0.9378 -0.3078  2.3720
15297TIP3   OH267381   0.210   3.361   1.434 -0.5509 -0.4160  0.1179
15297TIP3    H167382   0.237   3.421   1.504 -0.5944 -2.5818  2.0464
15297TIP3    H267383   0.115   3.363   1.435 -0.5631 -0.9546  0.6060
15298TIP3   OH267384   3.129   3.013  12.358 -0.3921 -0.7764 -0.0600
15298TIP3    H167385   3.135   2.922  12.329  2.5402 -0.6106 -0.0876
15298TIP3    H267386   3.095   3.007  12.447  1.4961 -2.0297  0.5905
15299TIP3   OH267387   1.125   3.498  12.318  0.2695  0.5407 -0.2418
15299TIP3    H167388   1.092   3.585  12.338 -0.6450 -0.0845  1.0271
15299TIP3    H267389   1.215   3.498  12.351 -0.4849  0.2656  1.8334
15300TIP3   OH267390   2.741   0.155  14.431  0.0515  0.1734  0.2249
15300TIP3    H167391   2.656   0.146  14.473 -1.4405  0.1203 -2.6736
15300TIP3    H267392   2.784   0.071  14.446 -0.8467 -0.1933  0.7787
15301TIP3   OH267393   5.034   0.237   3.979  0.6874 -0.1819 -0.0347
15301TIP3    H167394   4.949   0.199   3.954  1.4675 -1.9682 -0.0333
15301TIP3    H267395   5.040   0.318   3.928 -1.6104  0.6750  0.9821
15302TIP3   OH267396   6.460   1.382   0.038  0.6829  0.1858 -0.5002
15302TIP3    H167397   6.418   1.367  -0.047 -0.7084 -2.5433  0.5922
15302TIP3    H267398   6.481   1.294   0.070  1.2551  1.1588  1.9406
15303TIP3   OH267399   5.475   3.203   4.036 -0.0658 -0.2553 -0.4230
15303TIP3    H167400   5.496   3.294   4.059  0.5493 -0.2432 -1.0264
15303TIP3    H267401   5.389   3.209   3.994  0.4168  0.1795 -1.3590
15304TIP3   OH267402   1.898   6.534   2.772  0.0497  0.0736  0.0226
15304TIP3    H167403   1.967   6.593   2.741  0.1246  1.0508  1.9731
15304TIP3    H267404   1.819   6.589   2.772 -0.5908 -0.8072 -1.4054
15305TIP3   OH267405   6.396   0.488   2.194 -0.4327 -0.3035 -0.3400
15305TIP3    H167406   6.481   0.447   2.174 -0.3367 -0.5469  0.5476
15305TIP3    H267407   6.398   0.502   2.288 -1.2909 -0.0942 -0.3507
15306TIP3   OH267408   4.691   3.185   0.307 -0.4565 -0.1585  0.0892
15306TIP3    H167409   4.624   3.218   0.247  0.9394  1.4161 -0.6380
15306TIP3    H267410   4.772   3.188   0.256  0.0739 -2.7218  0.7151
15307TIP3   OH267411   5.259   5.949  15.974 -0.0412 -0.2116 -0.4972
15307TIP3    H167412   5.296   5.995  15.899 -1.4590  1.0581 -0.4489
15307TIP3    H267413   5.164   5.954  15.961 -0.3153  0.0504  1.3894
15308TIP3   OH267414   2.691   2.268   4.121  0.1274 -0.1308  0.6078
15308TIP3    H167415   2.683   2.185   4.075 -1.9019 -0.6507  1.8208
15308TIP3    H267416   2.604   2.308   4.112  0.9719  1.6896  0.3628
15309TIP3   OH267417   1.794   6.473   5.066  0.2551  0.2877 -0.4269
15309TIP3    H167418   1.817   6.551   5.017  0.4013  1.4565  1.4515
15309TIP3    H267419   1.717   6.438   5.020  0.6895  1.0466 -1.7650
15310TIP3   OH267420   1.495   1.094  13.587  0.0801 -0.0673 -0.3607
15310TIP3    H167421   1.455   1.026  13.642  1.0865 -1.1456 -0.9474
15310TIP3    H267422   1.486   1.174  13.638 -0.9004 -0.6707  0.4523
15311TIP3   OH267423   3.753   5.181  16.520  0.3126 -0.3583 -0.2662
15311TIP3    H167424   3.657   5.179  16.523  0.2393  0.5545 -1.4149
15311TIP3    H267425   3.780   5.196  16.610 -0.5217 -3.0342  0.4656
15312TIP3   OH267426   3.640   1.190  14.090 -0.0824  0.4773 -0.5644
15312TIP3    H167427   3.717   1.215  14.141 -0.6582  1.1868 -0.0422
15312TIP3    H267428   3.566   1.214  14.145 -0.6678 -2.4271  0.0153
15313TIP3   OH267429   0.140   2.860   1.275  0.1961  0.0183  0.6168
15313TIP3    H167430   0.084   2.782   1.274 -0.6653  0.6062 -2.4977
15313TIP3    H267431   0.228   2.825   1.291 -0.6123 -1.2052  2.6234
15314TIP3   OH267432   2.950   5.997   6.688 -0.9090 -0.4423  0.4033
15314TIP3    H167433   2.966   5.994   6.593 -0.1600 -1.6401  0.5596
15314TIP3    H267434   3.024   5.951   6.726 -1.1444  0.1469  1.5916
15315TIP3   OH267435   0.982   4.250   0.901 -0.1927 -0.3081  0.1169
15315TIP3    H167436   0.918   4.264   0.831  0.0366  0.7462  0.1168
15315TIP3    H267437   1.048   4.192   0.862 -1.1748 -1.4457  0.1383
15316TIP3   OH267438   1.257   2.355   2.015  0.1713 -0.3153  0.3661
15316TIP3    H167439   1.244   2.335   2.108  1.2586 -0.1109  0.5718
15316TIP3    H267440   1.193   2.424   1.997  0.8149  0.5569  1.3043
15317TIP3   OH267441   4.503   3.317   2.270 -0.2392  0.0502  0.5108
15317TIP3    H167442   4.526   3.346   2.358  0.1028  0.0375  0.4249
15317TIP3    H267443   4.545   3.380   2.211  0.0764 -0.3173  0.3402
15318TIP3   OH267444   0.075   4.637  13.432  0.4299  0.1450 -0.5443
15318TIP3    H167445  -0.009   4.654  13.391  1.1042  1.1902 -1.5299
15318TIP3    H267446   0.139   4.677  13.373  1.4473  1.6497  1.5076
15319TIP3   OH267447   6.231   1.091  14.599  0.0507 -0.7168  0.2160
15319TIP3    H167448   6.237   1.146  14.521 -0.0764 -2.0063 -0.7265
15319TIP3    H267449   6.309   1.036  14.595 -0.1808 -1.0867  0.7563
15320TIP3   OH267450   0.888   3.301   4.348  0.0236 -0.1866 -0.0650
15320TIP3    H167451   0.982   3.296   4.362 -0.2080 -0.2947  1.5291
15320TIP3    H267452   0.874   3.264   4.261  1.1082 -3.2807  1.0282
15321TIP3   OH267453   1.576   2.724  13.300 -0.4803  0.4219 -0.4884
15321TIP3    H167454   1.655   2.722  13.247 -0.4807  0.9379 -0.5109
15321TIP3    H267455   1.593   2.790  13.367  0.5987 -2.1803  1.8616
15322TIP3   OH267456   5.082   0.285   4.759  0.6339 -0.7727 -0.0048
15322TIP3    H167457   5.056   0.287   4.851  0.6934 -0.9054  0.0146
15322TIP3    H267458   5.140   0.360   4.748  0.5193 -0.6790  0.0346
15323TIP3   OH267459   6.243   1.782  15.937 -0.0271 -0.2128  0.7158
15323TIP3    H167460   6.169   1.726  15.964 -0.7871 -0.0841 -1.0712
15323TIP3    H267461   6.293   1.727  15.877 -1.3401  1.3220 -1.8672
15324TIP3   OH267462   2.008   1.544  11.792 -0.1512  0.0128  0.2339
15324TIP3    H167463   2.003   1.485  11.717  0.2792  0.5387 -0.2080
15324TIP3    H267464   2.078   1.507  11.846 -1.6265 -1.3657  1.2553
15325TIP3   OH267465   3.868   0.176  10.806  0.4600 -0.2244  0.2314
15325TIP3    H167466   3.853   0.197  10.714  0.1116  0.4918  0.4455
15325TIP3    H267467   3.794   0.122  10.831 -0.9915  2.0033  0.8646
15326TIP3   OH267468   3.458   4.903   0.150 -0.4578  0.1802  0.0651
15326TIP3    H167469   3.522   4.857   0.097 -1.5350 -0.5833 -0.5997
15326TIP3    H267470   3.501   4.985   0.174  1.3390 -1.0022  0.9590
15327TIP3   OH267471   6.800   6.273  16.273 -0.3990 -0.5614  0.3048
15327TIP3    H167472   6.713   6.310  16.257 -0.3497 -0.4176  0.3647
15327TIP3    H267473   6.841   6.335  16.334 -0.0506 -0.3334 -0.1640
15328TIP3   OH267474   6.405   4.332   2.048 -0.6245  0.0398 -0.2072
15328TIP3    H167475   6.336   4.354   1.985 -2.5632 -1.0514  1.4831
15328TIP3    H267476   6.384   4.384   2.126  0.4030 -0.3933  0.3720
15329TIP3   OH267477   6.661   0.729  16.374 -0.3288 -0.1770 -0.1741
15329TIP3    H167478   6.678   0.805  16.428 -0.9652  1.9889 -2.9081
15329TIP3    H267479   6.723   0.737  16.301 -1.5429 -1.3198 -1.3754
15330TIP3   OH267480   0.899   2.368  16.544  0.5229 -0.4518  0.0867
15330TIP3    H167481   0.896   2.458  16.512 -0.1303 -0.8617 -1.0284
15330TIP3    H267482   0.809   2.337  16.537  0.3619 -0.5520  2.3541
15331TIP3   OH267483   0.099   1.940  13.960  0.2069 -0.3074 -0.1318
15331TIP3    H167484   0.150   2.020  13.977 -0.1385 -0.1719  0.2769
15331TIP3    H267485   0.026   1.970  13.905  1.0219 -0.6488 -1.4251
15332TIP3   OH267486   6.323   6.477  16.471  0.6993 -0.3838  0.2593
15332TIP3    H167487   6.323   6.466  16.375  0.3400  1.2160  0.0602
15332TIP3    H267488   6.410   6.512  16.491  0.4539  0.1629  0.3953
15333TIP3   OH267489   3.340   2.884   2.471  0.1504  0.5748  0.2015
15333TIP3    H167490   3.321   2.791   2.479 -0.7433  0.8588  1.5072
15333TIP3    H267491   3.298   2.924   2.547 -1.3917  2.3293 -1.5198
15334TIP3   OH267492   3.265   0.191  16.614 -0.8370 -0.1137  0.7854
15334TIP3    H167493   3.352   0.165  16.645 -0.8299 -0.7146  0.2647
15334TIP3    H267494   3.219   0.219  16.693 -0.0722  0.4799  1.0251
15335TIP3   OH267495   0.409   0.466   5.498  0.4088 -0.3258 -0.2407
15335TIP3    H167496   0.341   0.528   5.471  1.0215 -0.4718 -2.1374
15335TIP3    H267497   0.383   0.440   5.587 -0.7432  1.3889 -0.0493
15336TIP3   OH267498   1.912   6.660  16.584 -0.7516 -0.9239 -0.0028
15336TIP3    H167499   1.869   6.609  16.653  0.4187  0.9715  2.2148
15336TIP3    H267500   1.979   6.601  16.549  1.8582 -0.4128  3.8094
15337TIP3   OH267501   6.372   3.516  15.040 -0.0285  0.4752  0.4190
15337TIP3    H167502   6.323   3.494  14.961  1.9755 -1.1185 -0.4204
15337TIP3    H267503   6.441   3.450  15.045  0.7439  1.3919  2.7468
15338TIP3   OH267504   4.798   6.641   3.864 -0.6008 -0.5612  0.3476
15338TIP3    H167505   4.807   6.546   3.872  1.8940 -0.4366 -0.3707
15338TIP3    H267506   4.840   6.675   3.943 -2.9669 -0.0756  1.4228
15339TIP3   OH267507   0.705   3.737  11.109  0.5097  0.0792  0.6761
15339TIP3    H167508   0.746   3.707  11.190  0.6429  2.0855  1.3786
15339TIP3    H267509   0.612   3.744  11.130  0.3147 -0.9165  0.1758
15340TIP3   OH267510   1.556   2.790   1.590 -0.0689  0.0375 -0.0893
15340TIP3    H167511   1.509   2.858   1.540  0.9248  1.8125  1.3326
15340TIP3    H267512   1.627   2.763   1.532  0.0025  0.7742 -0.3524
15341TIP3   OH267513   4.317   3.178  15.163  0.9660  0.7614  0.1114
15341TIP3    H167514   4.364   3.261  15.165  0.2870  1.1756 -0.9958
15341TIP3    H267515   4.229   3.199  15.193  0.9581  0.3214  0.4096
15342TIP3   OH267516   5.870   4.217   4.013 -0.0602  0.2161 -0.1688
15342TIP3    H167517   5.951   4.263   4.032  0.0870 -0.1617  0.1247
15342TIP3    H267518   5.897   4.138   3.968 -0.3661  0.7872 -1.3690
15343TIP3   OH267519   1.441   4.132   3.844 -0.0824 -0.2131  0.1904
15343TIP3    H167520   1.356   4.160   3.810 -0.9195 -1.7235  0.9601
15343TIP3    H267521   1.504   4.194   3.808 -1.6691  1.6956  0.6255
15344TIP3   OH267522   4.475   0.536  12.826 -0.1195  0.3576 -0.4914
15344TIP3    H167523   4.533   0.576  12.760  1.1688  0.3285  0.5905
15344TIP3    H267524   4.498   0.581  12.907  0.7472 -1.9495  0.5929
15345TIP3   OH267525   5.879   5.302   3.780  0.6267  0.2651  0.1735
15345TIP3    H167526   5.792   5.271   3.755  0.8034 -1.9842  2.1236
15345TIP3    H267527   5.867   5.396   3.797 -1.4355 -0.0291  0.4675
15346TIP3   OH267528   2.516   3.892   1.548 -0.0594  0.1316 -0.3912
15346TIP3    H167529   2.420   3.891   1.551 -0.1092  1.4281 -0.8996
15346TIP3    H267530   2.539   3.815   1.497 -0.8007 -0.5696  0.3170
15347TIP3   OH267531   0.853   0.400   5.511  0.1411  0.1315 -0.6801
15347TIP3    H167532   0.775   0.424   5.460 -1.4699 -2.3837  0.4982
15347TIP3    H267533   0.885   0.320   5.469  0.0378 -0.7752  0.9295
15348TIP3   OH267534   0.741   6.466   5.198 -0.1206  0.0460  0.2912
15348TIP3    H167535   0.656   6.509   5.212 -0.0220  0.1174  0.6756
15348TIP3    H267536   0.802   6.518   5.249 -0.0163 -0.6208  0.8439
15349TIP3   OH267537   0.278   6.381   5.902 -0.0461  0.1093  0.1070
15349TIP3    H167538   0.286   6.414   5.813 -0.9267  2.0951  0.7496
15349TIP3    H267539   0.352   6.321   5.912 -0.6946 -1.1611 -2.3868
15350TIP3   OH267540   0.643   0.632  16.996 -0.2818  0.4311 -0.0623
15350TIP3    H167541   0.663   0.623  17.089 -0.2800 -0.7839 -0.1766
15350TIP3    H267542   0.725   0.664  16.957 -0.2287  0.7649  0.3132
15351TIP3   OH267543   0.852   6.797   5.632 -0.1569  0.3546  0.8858
15351TIP3    H167544   0.781   6.851   5.598  0.5214  1.0804  0.6174
15351TIP3    H267545   0.916   6.859   5.666  1.0012 -0.2408 -0.1721
15352TIP3   OH267546   1.932   3.309   4.135 -0.1856 -0.1534  0.3739
15352TIP3    H167547   1.881   3.245   4.185  0.7140 -1.5465 -0.4784
15352TIP3    H267548   1.873   3.384   4.126 -1.4671 -1.0782  0.8842
15353TIP3   OH267549   4.854   5.921   1.789  0.2439 -0.1966 -0.5043
15353TIP3    H167550   4.775   5.896   1.837  0.4894  1.4711  0.8419
15353TIP3    H267551   4.824   5.987   1.726  0.4845  0.0910 -0.3189
15354TIP3   OH267552   4.371   0.508  15.472 -0.2323 -0.0878 -0.1112
15354TIP3    H167553   4.349   0.485  15.382  0.9622  1.1798 -0.7458
15354TIP3    H267554   4.457   0.470  15.486 -0.2327  0.0748  0.3476
15355TIP3   OH267555   6.414   0.155   1.196 -0.2902 -0.0525  0.2426
15355TIP3    H167556   6.449   0.083   1.145 -1.2128 -1.7174  1.9057
15355TIP3    H267557   6.380   0.114   1.276 -0.6979  2.2303  1.2826
15356TIP3   OH267558   5.462   3.804   5.127  0.6502  0.7477 -0.1498
15356TIP3    H167559   5.416   3.721   5.141  0.8332  0.4895 -1.0141
15356TIP3    H267560   5.411   3.869   5.174 -0.3467  0.3813 -0.7156
15357TIP3   OH267561   1.587   0.651   2.322  0.0755 -0.3649 -0.1523
15357TIP3    H167562   1.637   0.617   2.248  0.5701  1.5546 -0.7278
15357TIP3    H267563   1.629   0.735   2.343 -1.0869 -0.1127  1.2461
15358TIP3   OH267564   2.637   1.000   0.813 -0.2358  0.0671  0.1427
15358TIP3    H167565   2.661   0.957   0.731  0.5978  0.5648  0.1290
15358TIP3    H267566   2.649   0.932   0.880 -0.6286 -0.2471 -0.1005
15359TIP3   OH267567   6.368   5.846  15.069 -0.1916  0.4040 -0.3198
15359TIP3    H167568   6.419   5.901  15.129  0.7509  0.3943 -1.1020
15359TIP3    H267569   6.358   5.763  15.116 -0.1254  0.6580  0.1445
15360TIP3   OH267570   0.203   3.729  12.725  0.1310  0.0099 -0.0835
15360TIP3    H167571   0.294   3.703  12.737  0.2683 -0.1661 -1.4242
15360TIP3    H267572   0.197   3.817  12.762  0.8639  0.0538 -0.0711
15361TIP3   OH267573   5.161   6.301   0.548 -0.0811 -0.0730 -0.1353
15361TIP3    H167574   5.086   6.340   0.503 -0.2258 -0.8941 -0.6241
15361TIP3    H267575   5.223   6.279   0.477  0.1319 -0.4277  0.1547
15362TIP3   OH267576   0.718   6.062  11.674 -0.5947 -0.0881 -0.5394
15362TIP3    H167577   0.788   6.038  11.735  0.4127  0.0804 -1.5944
15362TIP3    H267578   0.738   6.012  11.595 -1.2022  0.5905 -1.1302
15363TIP3   OH267579   3.100   4.226  14.544 -0.0040 -0.3600 -0.1503
15363TIP3    H167580   3.128   4.163  14.610 -1.2659 -1.1043 -0.2938
15363TIP3    H267581   3.117   4.182  14.461 -1.4473 -0.7771 -0.2384
15364TIP3   OH267582   6.054   0.820   6.586  0.4001  0.0784 -0.6265
15364TIP3    H167583   5.962   0.796   6.593  0.5434 -0.2394  0.1987
15364TIP3    H267584   6.099   0.767   6.652  0.8583  1.8563  0.5569
15365TIP3   OH267585   6.586   4.292  13.459  0.1302  0.2092 -0.0270
15365TIP3    H167586   6.660   4.334  13.502 -0.5246 -0.5365  1.8666
15365TIP3    H267587   6.599   4.311  13.366  3.2596 -0.7836  0.1336
15366TIP3   OH267588   4.374   0.016  14.441  0.1380  0.2708  0.0646
15366TIP3    H167589   4.438   0.071  14.487 -0.6587  0.0203  1.4917
15366TIP3    H267590   4.322   0.079  14.391  0.4965  0.6264  0.1305
15367TIP3   OH267591   6.778   4.561  14.685  0.9427 -0.0214 -0.0671
15367TIP3    H167592   6.761   4.554  14.591  0.9949  1.0455 -0.1667
15367TIP3    H267593   6.695   4.537  14.726  1.4328 -2.2336 -0.3247
15368TIP3   OH267594   6.097   3.654  12.533  0.1737 -0.3358  0.5327
15368TIP3    H167595   6.126   3.567  12.562  2.1038  0.3107  0.6376
15368TIP3    H267596   6.074   3.699  12.614  1.4275  0.0176  0.7087
15369TIP3   OH267597   0.982   5.730   5.595 -0.2751  0.5420  0.2098
15369TIP3    H167598   1.036   5.788   5.650  0.6747  0.2890 -0.4404
15369TIP3    H267599   0.963   5.655   5.651  0.8321  0.2092  0.1553
15370TIP3   OH267600   1.530   6.119   6.469  0.4993 -0.1448  0.5324
15370TIP3    H167601   1.442   6.133   6.433  0.6632  0.4976  0.3752
15370TIP3    H267602   1.582   6.091   6.394  0.1075 -1.9635  0.8968
15371TIP3   OH267603   0.922   4.091  16.362  0.1508 -0.5384 -0.2421
15371TIP3    H167604   0.844   4.096  16.306  0.1769 -1.9609 -0.4308
15371TIP3    H267605   0.906   4.155  16.431  0.3231  1.5811 -2.1172
15372TIP3   OH267606   3.858   0.904   1.765 -0.3080  0.3814 -0.3282
15372TIP3    H167607   3.813   0.901   1.849 -1.2971  0.4604 -0.8551
15372TIP3    H267608   3.894   0.816   1.753  0.3351  0.5346  0.4435
15373TIP3   OH267609   5.855   2.680  11.766 -0.1636  0.0019  0.1627
15373TIP3    H167610   5.947   2.699  11.751  0.2795 -0.6384  1.8532
15373TIP3    H267611   5.848   2.585  11.758 -0.3641 -0.1097  1.4324
15374TIP3   OH267612   4.923   6.344   0.396  0.0756 -0.0683 -0.3367
15374TIP3    H167613   4.838   6.372   0.362  1.0552  2.8020 -0.5527
15374TIP3    H267614   4.965   6.301   0.322 -0.6583 -0.3074 -0.6207
15375TIP3   OH267615   2.176   4.085  13.037  0.7887  0.4486  0.2622
15375TIP3    H167616   2.145   4.018  13.097  0.7237  1.3551  1.2550
15375TIP3    H267617   2.267   4.061  13.018  1.3457  1.0804  2.0626
15376TIP3   OH267618   2.208   4.959  12.755  0.4230  0.0970 -0.0546
15376TIP3    H167619   2.207   4.986  12.847  1.4464  0.0907 -0.0337
15376TIP3    H267620   2.224   4.865  12.758  0.2516  0.0640 -0.2283
15377TIP3   OH267621   0.990   5.678   3.224 -0.2187 -0.5159  0.2208
15377TIP3    H167622   1.070   5.663   3.273 -0.0238  0.1650  0.1241
15377TIP3    H267623   0.981   5.773   3.222 -0.1385 -0.5281 -1.1853
15378TIP3   OH267624   3.886   6.649  16.468 -0.2721  0.2482  0.1917
15378TIP3    H167625   3.964   6.698  16.445  0.5849 -0.8541  0.6846
15378TIP3    H267626   3.919   6.568  16.507 -1.6413  0.5765  2.1300
15379TIP3   OH267627   1.150   4.629  14.591 -0.1524 -0.3079 -0.6295
15379TIP3    H167628   1.071   4.654  14.543  0.4793  0.4354 -1.3045
15379TIP3    H267629   1.155   4.690  14.664 -0.7397 -1.0033  0.0098
15380TIP3   OH267630   6.416   0.585   5.140 -0.1433  0.1100 -0.8644
15380TIP3    H167631   6.418   0.544   5.054 -0.2541  0.3519 -0.9839
15380TIP3    H267632   6.440   0.676   5.123 -0.3071  0.1918 -0.6615
15381TIP3   OH267633   5.199   1.075  16.637  0.0808  0.1632 -0.0683
15381TIP3    H167634   5.152   1.148  16.597 -1.7783 -0.3861  1.0344
15381TIP3    H267635   5.257   1.043  16.568 -1.4238  0.6643 -1.6145
15382TIP3   OH267636   2.361   4.159  12.697 -0.7087  0.4991 -0.0545
15382TIP3    H167637   2.271   4.136  12.723 -0.6639 -1.4329 -1.5472
15382TIP3    H267638   2.416   4.120  12.765 -0.8626 -0.3305 -0.4101
15383TIP3   OH267639   3.556   0.656   0.074  0.2247 -0.1329  0.2104
15383TIP3    H167640   3.567   0.730   0.133  0.1911  0.5900 -0.6875
15383TIP3    H267641   3.462   0.649   0.061  0.2085 -0.5099  0.5090
15384TIP3   OH267642   4.422   1.553   2.300 -0.0009  0.7861 -0.3722
15384TIP3    H167643   4.364   1.618   2.259 -2.0247 -0.9411 -0.3265
15384TIP3    H267644   4.410   1.474   2.248 -0.2722 -0.5572  1.6951
15385TIP3   OH267645   1.768   4.048   5.977 -0.0815 -0.0286  0.5942
15385TIP3    H167646   1.721   4.131   5.982  0.0544  0.0199  1.1252
15385TIP3    H267647   1.819   4.044   6.058  0.6253 -0.2068  0.1443
15386TIP3   OH267648   6.179   5.366  10.889 -0.6266  0.1622 -0.0646
15386TIP3    H167649   6.085   5.379  10.888 -0.7516 -0.6628  0.2890
15386TIP3    H267650   6.195   5.313  10.967  0.0817 -0.0545 -0.3493
15387TIP3   OH267651   1.956   0.347  11.485  0.0013 -0.4441 -0.0247
15387TIP3    H167652   1.934   0.438  11.467 -1.2540 -0.9250 -0.9760
15387TIP3    H267653   1.943   0.337  11.579 -1.4707 -0.0683 -0.1795
15388TIP3   OH267654   5.433   3.359   3.777 -0.6782  0.1571 -0.8653
15388TIP3    H167655   5.507   3.300   3.761 -0.2621  0.7417 -1.1224
15388TIP3    H267656   5.474   3.443   3.798 -1.2620  0.2406 -0.0482
15389TIP3   OH267657   3.188   2.087  14.657 -0.2970 -0.1600 -0.1916
15389TIP3    H167658   3.105   2.092  14.704  0.4478  0.5664  1.0858
15389TIP3    H267659   3.193   1.997  14.626 -0.6943 -0.7174  1.3428
15390TIP3   OH267660   6.388   5.230  13.480 -0.1860  0.3973  0.1866
15390TIP3    H167661   6.391   5.168  13.407  0.0727 -0.5837  1.0238
15390TIP3    H267662   6.422   5.181  13.555 -2.2771  0.7671  1.4277
15391TIP3   OH267663   3.594   4.643  11.442  0.1199  0.0608 -0.3324
15391TIP3    H167664   3.674   4.638  11.495 -0.7599  0.2607  1.0310
15391TIP3    H267665   3.543   4.713  11.482 -1.2080 -0.7787 -0.5331
15392TIP3   OH267666   1.025   0.178  14.551  0.3689 -0.1926 -0.4429
15392TIP3    H167667   0.952   0.156  14.608 -1.3813  2.9769 -1.3577
15392TIP3    H267668   1.102   0.177  14.608 -0.8390 -0.5678  1.1908
15393TIP3   OH267669   5.459   0.573   1.540  0.2153 -0.0537  0.4164
15393TIP3    H167670   5.543   0.603   1.504  0.6032 -1.1391  0.3819
15393TIP3    H267671   5.479   0.549   1.630 -0.3832  1.0482  0.8443
15394TIP3   OH267672   1.762   2.687   1.829  0.0093 -0.3728  0.3740
15394TIP3    H167673   1.851   2.689   1.794  0.5541  1.4304  1.8031
15394TIP3    H267674   1.768   2.631   1.907 -0.1385 -0.3399  0.4094
15395TIP3   OH267675   2.393   0.381  15.674  0.1271  0.1773 -0.0360
15395TIP3    H167676   2.458   0.388  15.603 -1.6655 -1.5226 -1.9298
15395TIP3    H267677   2.327   0.321  15.639 -1.4148  0.2544  2.6572
15396TIP3   OH267678   4.612   5.882   2.161  0.5565 -0.2030  0.2519
15396TIP3    H167679   4.521   5.909   2.159  0.4743 -0.3422  1.5717
15396TIP3    H267680   4.637   5.872   2.069 -0.5217  0.6022 -0.1293
15397TIP3   OH267681   6.499   4.725   2.823  0.1788  0.1106 -0.1860
15397TIP3    H167682   6.575   4.732   2.765  1.1052  1.1796  1.1325
15397TIP3    H267683   6.502   4.803   2.877 -0.4630 -1.0218  1.5482
15398TIP3   OH267684   2.966   4.190  12.413  0.2851  0.3898  0.3056
15398TIP3    H167685   3.028   4.173  12.485  0.7717 -0.4079 -0.2900
15398TIP3    H267686   3.001   4.268  12.370 -0.3514  1.2470  1.2934
15399TIP3   OH267687   1.771   2.883   1.237 -0.1955  0.1233  0.9175
15399TIP3    H167688   1.746   2.811   1.294  2.3489 -1.0095  0.6753
15399TIP3    H267689   1.780   2.959   1.295 -0.5819 -0.2910  1.5229
15400TIP3   OH267690   1.907   1.214   6.503  0.0736  0.0193  0.9688
15400TIP3    H167691   1.994   1.219   6.542 -0.4033  0.3610  2.0022
15400TIP3    H267692   1.912   1.272   6.427  0.4845  0.7339  1.5316
15401TIP3   OH267693   1.815   4.920  12.220 -0.3388 -0.0457  0.3518
15401TIP3    H167694   1.857   4.916  12.306 -1.1666 -1.1212  0.7213
15401TIP3    H267695   1.841   4.837  12.178 -2.8916 -1.2147  0.9807
15402TIP3   OH267696   0.347   1.588  11.408  0.6269 -0.0766  0.1954
15402TIP3    H167697   0.440   1.610  11.416  1.0202 -1.6311 -0.0591
15402TIP3    H267698   0.345   1.512  11.350 -0.5667 -1.8493  2.5087
15403TIP3   OH267699   1.871   0.611   3.567  0.2461  0.6594 -0.6364
15403TIP3    H167700   1.922   0.690   3.550 -1.0148  1.3930 -1.1293
15403TIP3    H267701   1.837   0.585   3.481  0.1623 -0.0807 -0.3882
15404TIP3   OH267702   6.506   1.803  13.162 -0.0565  0.3390  0.3210
15404TIP3    H167703   6.588   1.823  13.117 -0.1509 -1.0035 -0.5011
15404TIP3    H267704   6.438   1.834  13.102 -0.1605 -0.0637  0.2271
15405TIP3   OH267705   0.463   6.522  14.522 -0.0524  0.0844  0.4607
15405TIP3    H167706   0.518   6.487  14.592  1.3530  0.6324 -0.3557
15405TIP3    H267707   0.429   6.445  14.477 -0.2195 -0.2600  1.1690
15406TIP3   OH267708   2.275   2.717   3.003 -1.0478 -0.0126 -0.1385
15406TIP3    H167709   2.366   2.739   3.020 -1.0124 -1.4740  1.7711
15406TIP3    H267710   2.256   2.758   2.918  0.3442  3.2572  1.0100
15407TIP3   OH267711   4.606   5.277   3.936 -0.0939  0.1919  0.0070
15407TIP3    H167712   4.667   5.345   3.965  0.4688 -0.3429  0.0871
15407TIP3    H267713   4.617   5.206   3.999 -1.7227  0.5868  0.7497
15408TIP3   OH267714   1.263   1.246   5.474  0.0783 -0.5755 -0.0226
15408TIP3    H167715   1.329   1.313   5.495 -2.4011  1.3847  1.8983
15408TIP3    H267716   1.213   1.284   5.402  0.4249 -1.6520 -0.8428
15409TIP3   OH267717   6.470   6.627   5.290 -0.2698  0.0841  0.3955
15409TIP3    H167718   6.509   6.623   5.377  0.2654 -2.7970  0.0679
15409TIP3    H267719   6.381   6.593   5.302 -0.3112 -0.0015 -0.1308
15410TIP3   OH267720   2.779   2.586   1.871 -0.4278 -0.0004 -0.4292
15410TIP3    H167721   2.803   2.663   1.820 -0.5635  1.5455  1.7864
15410TIP3    H267722   2.849   2.578   1.936 -1.6303 -0.3249  0.8466
15411TIP3   OH267723   5.505   0.520  13.228 -0.3029  0.4348  0.0372
15411TIP3    H167724   5.497   0.553  13.318  0.9716  0.7910  0.0222
15411TIP3    H267725   5.505   0.598  13.173 -0.0401  0.2648 -0.2033
15412TIP3   OH267726   6.730   3.822   2.915 -0.7905 -0.5580  0.1828
15412TIP3    H167727   6.640   3.819   2.884 -0.8124  0.9447  0.0561
15412TIP3    H267728   6.778   3.762   2.857 -1.3800 -0.0179 -0.8699
15413TIP3   OH267729   0.560   1.192   1.946  0.1164  0.3637 -0.4344
15413TIP3    H167730   0.608   1.202   2.028  0.0447  0.4943 -0.4095
15413TIP3    H267731   0.475   1.155   1.973  0.4426 -0.4699 -0.5403
15414TIP3   OH267732   3.963   3.993   0.066  0.3992 -0.0961  0.4699
15414TIP3    H167733   4.012   4.047   0.128  2.4543 -1.0324 -0.2744
15414TIP3    H267734   3.908   3.937   0.121  0.3291  0.8325  1.3466
15415TIP3   OH267735   4.216   0.478  12.952  0.0545  1.0191  0.2165
15415TIP3    H167736   4.217   0.409  13.018 -2.6951 -0.4827 -1.2561
15415TIP3    H267737   4.309   0.491  12.930  0.6896 -1.3647  1.3608
15416TIP3   OH267738   4.229   3.460  14.021  0.0698  0.0564  0.0359
15416TIP3    H167739   4.229   3.540  13.968 -1.0160 -0.1420 -0.2802
15416TIP3    H267740   4.234   3.491  14.112  1.6782  0.4073 -0.1691
15417TIP3   OH267741   4.588   4.479   2.959  0.3612  0.2228 -0.3967
15417TIP3    H167742   4.670   4.443   2.994  0.2651  0.5359  0.1576
15417TIP3    H267743   4.616   4.550   2.902  0.4072  2.0375  1.7835
15418TIP3   OH267744   6.176   1.227   6.505 -0.4923  0.0346 -0.1331
15418TIP3    H167745   6.087   1.241   6.537 -0.0864  0.7319  0.6959
15418TIP3    H267746   6.232   1.272   6.568  0.5334 -1.4747  0.0598
15419TIP3   OH267747   2.229   0.800  11.228  0.3199  0.1969 -0.5722
15419TIP3    H167748   2.141   0.822  11.258  0.5678 -0.3607  0.5628
15419TIP3    H267749   2.267   0.884  11.203  0.0650  0.6498  0.5483
15420TIP3   OH267750   0.798   2.143  14.333 -0.1856 -0.1435 -0.9873
15420TIP3    H167751   0.772   2.214  14.392  1.2598 -0.6972  0.3774
15420TIP3    H267752   0.826   2.073  14.392  2.2676 -0.3418 -2.3253
15421TIP3   OH267753   6.814   2.421  16.609 -0.1436  0.3843 -0.1588
15421TIP3    H167754   6.883   2.442  16.672 -0.6051  2.0197 -0.1716
15421TIP3    H267755   6.733   2.449  16.652 -0.5935  0.3055 -0.9506
15422TIP3   OH267756   5.327   5.795  10.455 -0.0018 -0.0988  0.1719
15422TIP3    H167757   5.272   5.873  10.462 -0.3158  0.0891 -3.4700
15422TIP3    H267758   5.412   5.827  10.428  0.0528 -0.9312 -0.6813
15423TIP3   OH267759   4.579   0.975  12.446  0.0858  0.1885 -0.7466
15423TIP3    H167760   4.560   0.887  12.415  1.5271 -0.2945 -0.2863
15423TIP3    H267761   4.500   1.025  12.425 -0.1722 -0.8478 -2.3489
15424TIP3   OH267762   5.369   0.443   2.782  0.3902 -0.4611  0.5774
15424TIP3    H167763   5.444   0.431   2.723  0.3088 -1.4948  0.6714
15424TIP3    H267764   5.298   0.471   2.724  0.1744 -1.9666  0.0843
15425TIP3   OH267765   0.820   1.777  11.180  0.3665  0.3530 -0.0814
15425TIP3    H167766   0.896   1.766  11.237 -0.1054  0.9956  0.6894
15425TIP3    H267767   0.857   1.801  11.095  1.0650 -0.2871  0.0385
15426TIP3   OH267768   1.786   5.736   3.154 -1.0521 -0.6752 -0.1528
15426TIP3    H167769   1.851   5.800   3.184 -2.5633  1.7596 -1.8103
15426TIP3    H267770   1.824   5.700   3.074  0.4379 -2.9838  1.5295
15427TIP3   OH267771   2.655   1.028  14.213 -0.1604 -0.2904  0.1278
15427TIP3    H167772   2.705   1.035  14.294  0.3149 -0.2197 -0.1655
15427TIP3    H267773   2.687   1.101  14.159  0.6027 -1.2279 -0.7030
15428TIP3   OH267774   3.769   5.308   2.966  0.3973  0.0932 -0.2785
15428TIP3    H167775   3.850   5.258   2.977  0.2198 -0.1458 -0.0290
15428TIP3    H267776   3.784   5.390   3.013  1.3629  1.0509 -2.2239
15429TIP3   OH267777   1.117   6.453  10.429  0.0133 -0.4675 -0.4535
15429TIP3    H167778   1.160   6.369  10.447 -1.1105 -1.4411 -2.1082
15429TIP3    H267779   1.032   6.428  10.394 -1.2172  1.4127  1.1130
15430TIP3   OH267780   4.272   1.261  15.868  0.0926  0.4152  0.0474
15430TIP3    H167781   4.235   1.289  15.952 -0.3959  2.5740 -0.8742
15430TIP3    H267782   4.196   1.248  15.811  0.5394  1.1422 -0.7202
15431TIP3   OH267783   0.606   0.578   1.929  0.5058 -0.0400  0.0540
15431TIP3    H167784   0.526   0.528   1.914  0.0651 -0.0358  2.1601
15431TIP3    H267785   0.677   0.520   1.903 -0.1874  0.4232 -3.0660
15432TIP3   OH267786   3.273   2.721   1.807  0.1325  0.3834 -0.3145
15432TIP3    H167787   3.210   2.698   1.739  0.2031  1.1635 -0.6495
15432TIP3    H267788   3.356   2.728   1.761  0.6746 -1.6494  0.2966
15433TIP3   OH267789   0.509   3.714   1.493  0.0364 -0.0877  0.0828
15433TIP3    H167790   0.437   3.775   1.512  1.2023  0.9428  1.3038
15433TIP3    H267791   0.501   3.647   1.560 -2.1913 -2.1986 -2.1834
15434TIP3   OH267792   2.538   3.541   6.171  0.3148  0.1454 -0.3201
15434TIP3    H167793   2.587   3.499   6.100  0.7392 -0.0131  0.0623
15434TIP3    H267794   2.497   3.617   6.130  1.7908  0.9136 -0.4150
15435TIP3   OH267795   4.977   0.194   1.176  0.1215  0.3672  1.3428
15435TIP3    H167796   4.922   0.271   1.193  1.3222  1.3790  0.7590
15435TIP3    H267797   4.924   0.138   1.120  0.0782  1.8389 -0.1347
15436TIP3   OH267798   5.779   4.727  11.913  0.3086 -1.1328  0.3706
15436TIP3    H167799   5.868   4.723  11.949  0.0990 -1.0946  0.9047
15436TIP3    H267800   5.741   4.805  11.953  0.2453 -0.7901 -0.3508
15437TIP3   OH267801   5.672   2.266   1.532 -0.3931 -0.2579 -0.6178
15437TIP3    H167802   5.705   2.216   1.608 -2.4513 -0.9575 -0.1451
15437TIP3    H267803   5.751   2.293   1.485  0.8519 -1.7663  0.5409
15438TIP3   OH267804   2.941   6.470  13.503 -0.6947  0.7149  0.0139
15438TIP3    H167805   2.855   6.512  13.507 -0.1850  1.6139  2.9837
15438TIP3    H267806   2.923   6.376  13.512 -1.5313  0.5962 -2.4261
15439TIP3   OH267807   4.888   1.909  15.521 -0.3985 -0.3395 -0.4182
15439TIP3    H167808   4.825   1.908  15.594 -0.9453  0.9322 -0.8667
15439TIP3    H267809   4.932   1.824  15.527 -0.3191 -0.1893  1.4930
15440TIP3   OH267810   2.325   1.536  13.242 -0.5195 -0.2753 -0.1718
15440TIP3    H167811   2.386   1.488  13.298 -0.2710  0.5918  0.3059
15440TIP3    H267812   2.346   1.508  13.153 -0.2995 -0.9681  0.0990
15441TIP3   OH267813   5.207   4.591   5.656  0.0222  0.0344 -0.4633
15441TIP3    H167814   5.299   4.574   5.633  0.8797  0.2036  2.6403
15441TIP3    H267815   5.208   4.679   5.694 -1.3935 -0.0403 -0.2460
15442TIP3   OH267816   1.798   5.189  12.174  0.1502  0.2266  0.2496
15442TIP3    H167817   1.761   5.203  12.261  1.4584  0.2512  0.8029
15442TIP3    H267818   1.808   5.094  12.167  1.6854  0.3423  0.8088
15443TIP3   OH267819   5.811   5.517   3.249  0.2651  1.0029  0.2390
15443TIP3    H167820   5.851   5.577   3.186 -1.4024  0.2754 -1.6001
15443TIP3    H267821   5.777   5.446   3.195 -0.4529 -0.0781  2.0775
15444TIP3   OH267822   4.157   1.585   5.633 -0.6119  1.0099  0.1583
15444TIP3    H167823   4.206   1.642   5.692 -0.7590  0.0757  1.2062
15444TIP3    H267824   4.078   1.561   5.683 -1.3425  1.1956 -0.8856
15445TIP3   OH267825   5.607   0.975   2.167  0.3830 -0.7173 -0.0609
15445TIP3    H167826   5.518   1.010   2.163  0.7694  0.5003  1.5093
15445TIP3    H267827   5.659   1.036   2.115  0.9002  0.6430  1.9635
15446TIP3   OH267828   4.612   6.755   2.754  0.2307 -0.2202  0.0288
15446TIP3    H167829   4.685   6.806   2.790  1.7943 -0.8503 -2.0888
15446TIP3    H267830   4.561   6.819   2.705 -0.4169  0.1462  1.1672
15447TIP3   OH267831   2.463   4.072   0.734  0.2924 -0.5156 -0.0060
15447TIP3    H167832   2.452   4.163   0.761 -2.5184 -0.1346 -2.0781
15447TIP3    H267833   2.554   4.051   0.754  0.7510  2.4754  1.3085
15448TIP3   OH267834   5.355   4.276   2.527 -0.3316  0.2033  0.1425
15448TIP3    H167835   5.271   4.313   2.498 -0.7888 -0.4399  0.6195
15448TIP3    H267836   5.350   4.277   2.622 -0.6247 -1.6716  0.1704
15449TIP3   OH267837   0.487   2.924   0.408 -0.3295  0.8253 -0.3176
15449TIP3    H167838   0.469   2.937   0.314 -2.0279 -0.9604 -0.2576
15449TIP3    H267839   0.582   2.915   0.413  0.0033  3.2006 -1.5704
15450TIP3   OH267840   1.235   4.227  13.196  0.6248 -0.3672  0.0224
15450TIP3    H167841   1.246   4.222  13.101  1.2324  1.3547 -0.0207
15450TIP3    H267842   1.146   4.195  13.211  1.0370 -2.0509 -0.9605
15451TIP3   OH267843   5.356   1.357   4.962 -0.3010 -0.0003 -0.3607
15451TIP3    H167844   5.343   1.444   5.001  1.0811 -0.5488  1.4094
15451TIP3    H267845   5.312   1.362   4.877 -1.8604  1.8274  0.5038
15452TIP3   OH267846   4.397   2.161   5.777  0.2857  0.4403  0.6296
15452TIP3    H167847   4.392   2.168   5.873  1.0772  0.5926  0.6577
15452TIP3    H267848   4.405   2.067   5.760 -0.8157  0.3238  0.6603
15453TIP3   OH267849   5.688   3.088   5.266 -0.1476  0.3760  0.4668
15453TIP3    H167850   5.684   3.132   5.181  0.0502  0.5666  0.5549
15453TIP3    H267851   5.609   3.116   5.312  0.1773  0.9603  0.6749
15454TIP3   OH267852   4.368   3.922   3.984  0.3407 -1.0106  0.0189
15454TIP3    H167853   4.339   3.911   3.893 -1.4809 -0.3262  0.5001
15454TIP3    H267854   4.341   3.842   4.028  0.4724 -0.9849  0.1482
15455TIP3   OH267855   2.170   2.027   2.977 -0.5868 -0.2424  0.5704
15455TIP3    H167856   2.122   2.061   3.052  0.5523  1.3963  0.5737
15455TIP3    H267857   2.216   1.950   3.011 -1.3010 -0.4184  1.1462
15456TIP3   OH267858   4.771   3.048  11.046 -0.7356  0.1505 -0.3881
15456TIP3    H167859   4.856   3.091  11.043  0.1808 -1.5709  0.0387
15456TIP3    H267860   4.731   3.068  10.961  0.8671 -0.5124 -1.3218
15457TIP3   OH267861   1.267   5.576  12.710 -0.1217  0.6355  0.0788
15457TIP3    H167862   1.355   5.611  12.698  0.1620 -0.5739 -1.5744
15457TIP3    H267863   1.223   5.590  12.626 -1.0223 -0.1021  0.4141
15458TIP3   OH267864   1.095   1.060   4.575  0.2552 -0.4369  0.0750
15458TIP3    H167865   1.128   1.006   4.503  1.7937  0.9437 -0.2771
15458TIP3    H267866   1.127   1.018   4.654 -1.7446 -2.1704  0.0130
15459TIP3   OH267867   2.664   1.215  15.930 -0.2358  0.2913  0.1838
15459TIP3    H167868   2.674   1.310  15.933 -0.3355  0.3775 -1.6737
15459TIP3    H267869   2.649   1.195  15.837  2.0881 -1.7845  0.2196
15460TIP3   OH267870   1.212   5.452   6.330 -0.2819 -0.0611  0.3049
15460TIP3    H167871   1.158   5.373   6.333  0.0082 -0.3215 -1.2420
15460TIP3    H267872   1.298   5.423   6.360 -0.1819 -0.3139 -0.2380
15461TIP3   OH267873   5.523   3.816   4.859  0.2391 -0.4529  0.2933
15461TIP3    H167874   5.560   3.894   4.819  1.3536 -1.6402 -1.0778
15461TIP3    H267875   5.532   3.831   4.953  1.4616  0.6001  0.0262
15462TIP3   OH267876   1.911   0.409   2.482  0.2553  0.6580  0.3500
15462TIP3    H167877   1.825   0.382   2.514 -0.1535  0.6373 -0.7801
15462TIP3    H267878   1.929   0.492   2.527 -0.7448  1.1171 -0.0954
15463TIP3   OH267879   3.067   4.940   5.163 -0.5050 -0.1196  0.5782
15463TIP3    H167880   3.044   4.892   5.243 -1.3166  0.5645  0.7695
15463TIP3    H267881   2.984   4.951   5.117 -0.1671  0.1934  0.0349
15464TIP3   OH267882   6.111   4.168  16.634  0.4781  0.4971  0.1949
15464TIP3    H167883   6.200   4.140  16.652  0.6348  1.8422  1.6166
15464TIP3    H267884   6.064   4.158  16.717 -0.2051  1.5609 -0.0423
15465TIP3   OH267885   1.360   1.918  16.671 -0.4423 -0.1005  0.5834
15465TIP3    H167886   1.381   1.831  16.637 -1.5229 -0.6148  1.1826
15465TIP3    H267887   1.444   1.960  16.684  0.0780 -0.9012 -0.1234
15466TIP3   OH267888   0.737   2.960   0.272  0.7255  0.1699  0.8352
15466TIP3    H167889   0.694   2.913   0.201  1.9974  0.9555 -0.4653
15466TIP3    H267890   0.818   2.911   0.288  0.5837  0.1611  1.5473
15467TIP3   OH267891   2.888   1.993  12.329  0.5029 -0.4210  0.4543
15467TIP3    H167892   2.832   1.924  12.293 -0.2354  0.5129 -0.2182
15467TIP3    H267893   2.856   2.006  12.418  0.2533 -0.5303  0.3813
15468TIP3   OH267894   6.561   6.341  15.258 -0.6484 -0.2842  0.5861
15468TIP3    H167895   6.576   6.425  15.215 -0.7844 -0.8892 -0.6716
15468TIP3    H267896   6.546   6.363  15.350 -0.2585  1.0242  0.3408
15469TIP3   OH267897   1.218   1.159   3.812 -0.2302 -0.2033  0.1148
15469TIP3    H167898   1.137   1.160   3.864 -0.0748  0.8040  0.3462
15469TIP3    H267899   1.216   1.240   3.763  0.6747 -0.1465  0.1667
15470TIP3   OH267900   3.390   6.071   4.406  0.0862  0.4379 -1.0747
15470TIP3    H167901   3.422   5.984   4.385 -1.6606 -0.1882 -1.2227
15470TIP3    H267902   3.434   6.128   4.342  0.0732 -0.5330 -1.9690
15471TIP3   OH267903   4.464   6.789  13.382  0.4754 -0.1088 -0.4515
15471TIP3    H167904   4.499   6.750  13.302  1.6228 -0.3503  0.1521
15471TIP3    H267905   4.473   6.720  13.448 -1.3965 -0.2691 -0.3274
15472TIP3   OH267906   1.904   2.097   5.289 -0.3605 -0.1156 -0.1903
15472TIP3    H167907   1.934   2.014   5.325 -1.0430  0.3706  1.5976
15472TIP3    H267908   1.919   2.091   5.195  0.9796 -1.6680  0.1184
15473TIP3   OH267909   5.063   5.889  13.650 -0.0512  0.4847  0.5402
15473TIP3    H167910   5.040   5.878  13.743 -0.6587  1.5705  0.5259
15473TIP3    H267911   5.031   5.810  13.608 -0.0459  0.1187  1.2104
15474TIP3   OH267912   4.712   2.942   2.432  0.3586 -0.5144 -0.0627
15474TIP3    H167913   4.750   3.021   2.394 -0.1803  0.1432  0.7414
15474TIP3    H267914   4.694   2.886   2.357 -2.9230  1.7188 -1.0884
15475TIP3   OH267915   1.577   5.418  12.289 -0.2062 -0.4736  0.4014
15475TIP3    H167916   1.624   5.445  12.368 -0.2853  0.6514  0.0747
15475TIP3    H267917   1.645   5.385  12.230 -0.2360 -2.0263  1.2204
15476TIP3   OH267918   5.679   0.637   2.442  0.5054  0.4928  0.1169
15476TIP3    H167919   5.620   0.569   2.410  3.3255 -1.4980 -1.1030
15476TIP3    H267920   5.685   0.621   2.536 -1.2090  1.0102  0.3369
15477TIP3   OH267921   5.406   6.012   0.440 -0.1670 -0.7160 -0.2894
15477TIP3    H167922   5.487   5.998   0.392 -0.2056  0.0512 -0.5811
15477TIP3    H267923   5.363   6.084   0.395 -0.3237 -0.1558  0.7374
15478TIP3   OH267924   1.754   1.307   1.735  0.9773 -0.0299  0.5791
15478TIP3    H167925   1.779   1.280   1.823  2.8896  1.0591  0.4308
15478TIP3    H267926   1.837   1.305   1.686 -0.0283 -0.4202 -1.1217
15479TIP3   OH267927   0.654   4.965  11.800 -0.1396  0.7707  0.1299
15479TIP3    H167928   0.647   4.974  11.895  0.9877  1.5488  0.1524
15479TIP3    H267929   0.744   4.991  11.781  0.0725 -0.7617 -0.9930
15480TIP3   OH267930   4.523   6.162  13.359  0.6657  0.2919  0.2648
15480TIP3    H167931   4.469   6.085  13.338 -2.2379  2.2272  0.4464
15480TIP3    H267932   4.589   6.164  13.289 -2.1332  0.3218 -2.4827
15481TIP3   OH267933   6.163   5.808   6.258  0.7243 -0.4743 -0.7601
15481TIP3    H167934   6.172   5.720   6.223  1.7296 -0.2093 -1.1999
15481TIP3    H267935   6.131   5.795   6.348  0.4526 -1.2606 -0.9678
15482TIP3   OH267936   1.357   3.133  13.629 -0.0469  0.4406 -0.1385
15482TIP3    H167937   1.394   3.175  13.552  1.9562  2.1173  1.6705
15482TIP3    H267938   1.267   3.166  13.634 -1.2235 -1.9735 -3.3399
15483TIP3   OH267939   2.001   1.472  13.349  0.3831 -0.0817 -0.4693
15483TIP3    H167940   2.030   1.415  13.421  1.8407  0.9396 -0.2133
15483TIP3    H267941   2.052   1.553  13.361 -4.2218  2.7695  1.3680
15484TIP3   OH267942   5.482   3.027  12.195 -0.6482  0.2015 -0.3524
15484TIP3    H167943   5.496   2.950  12.250  0.3209  0.8342  0.3056
15484TIP3    H267944   5.455   3.096  12.256 -1.4662  0.4051 -0.9294
15485TIP3   OH267945   2.682   1.462   2.185 -0.5634 -0.0976  0.1297
15485TIP3    H167946   2.738   1.386   2.168 -1.6862 -1.2548  1.4405
15485TIP3    H267947   2.639   1.479   2.102  1.2628  0.4352 -0.7341
15486TIP3   OH267948   2.015   2.191   3.425  0.3294 -0.6498 -0.1167
15486TIP3    H167949   2.031   2.194   3.519 -2.2752 -0.1747  0.3298
15486TIP3    H267950   1.941   2.249   3.411  1.5395  0.3757 -2.6732
15487TIP3   OH267951   1.400   3.587   4.889  0.2747  0.3520 -0.6989
15487TIP3    H167952   1.445   3.511   4.851  1.1639  0.5834 -0.1093
15487TIP3    H267953   1.335   3.611   4.823 -0.7272 -1.5777 -0.4456
15488TIP3   OH267954   2.511   0.517   5.828  0.6672 -0.2119 -0.1471
15488TIP3    H167955   2.561   0.449   5.873  1.2613 -0.0046 -0.4839
15488TIP3    H267956   2.578   0.577   5.795  0.2238 -0.3003 -1.2060
15489TIP3   OH267957   3.895   0.559  11.738 -0.5148 -0.1623 -0.1633
15489TIP3    H167958   3.875   0.563  11.644  2.6643 -1.0951 -0.9534
15489TIP3    H267959   3.984   0.594  11.744 -0.1954 -1.3539  2.3484
15490TIP3   OH267960   5.583   2.586   4.948  0.1693  0.1472  0.2924
15490TIP3    H167961   5.550   2.576   4.858  1.6939 -2.0257 -0.0452
15490TIP3    H267962   5.633   2.668   4.946 -0.6655  0.6484 -0.5640
15491TIP3   OH267963   3.031   4.989  16.812  0.1898  0.3212 -0.2720
15491TIP3    H167964   2.997   4.922  16.752  0.3486  0.7475 -0.8382
15491TIP3    H267965   3.126   4.975  16.812  0.5340  2.3569 -2.6037
15492TIP3   OH267966   3.484   6.184  11.341  0.3055  0.5624  0.5269
15492TIP3    H167967   3.458   6.197  11.250  1.8212  3.7583  0.4571
15492TIP3    H267968   3.552   6.117  11.338  0.6517  0.9570 -0.7485
15493TIP3   OH267969   2.621   3.396   3.444  0.1347  0.8995  1.4287
15493TIP3    H167970   2.545   3.453   3.437 -0.4895  0.2438  2.6181
15493TIP3    H267971   2.599   3.335   3.515  0.9279 -0.5833  0.4383
15494TIP3   OH267972   4.656   6.017  13.702 -0.1535 -0.1351  1.2203
15494TIP3    H167973   4.674   5.923  13.707  2.1810  0.1980 -0.0273
15494TIP3    H267974   4.708   6.055  13.773  0.3272  0.3796  0.6006
15495TIP3   OH267975   3.710   2.111  16.403 -0.0458 -0.3395  0.3549
15495TIP3    H167976   3.720   2.024  16.442  1.4196  0.0784  0.9706
15495TIP3    H267977   3.619   2.135  16.419 -0.2013 -1.3667  1.0246
15496TIP3   OH267978   2.982   4.780  12.733  0.5332  0.6018 -0.5981
15496TIP3    H167979   2.971   4.685  12.724  0.5366  0.4270  0.9867
15496TIP3    H267980   2.927   4.803  12.808 -0.7546  2.1287 -1.9644
15497TIP3   OH267981   3.467   5.175  16.498 -0.2650 -0.0790 -0.4000
15497TIP3    H167982   3.492   5.088  16.466 -0.9401 -0.3229 -0.2643
15497TIP3    H267983   3.373   5.169  16.511 -0.1675  0.3880  0.5163
15498TIP3   OH267984   5.861   5.238  17.123  0.7083  0.0069 -0.2287
15498TIP3    H167985   5.806   5.299  17.075 -0.1108 -1.2230 -0.8780
15498TIP3    H267986   5.814   5.222  17.205  0.2623 -0.7889 -0.6390
15499TIP3   OH267987   4.921   4.524   2.798 -0.3940 -0.6373  0.7069
15499TIP3    H167988   4.871   4.443   2.794 -0.8339 -0.3570  0.4558
15499TIP3    H267989   4.855   4.593   2.803 -0.0029 -0.3579  2.1688
15500TIP3   OH267990   4.872   5.165   1.642 -0.0147  0.2957  0.2815
15500TIP3    H167991   4.819   5.088   1.662  0.3439  0.0399  0.2587
15500TIP3    H267992   4.881   5.164   1.547 -0.9535  0.9965  0.1867
15501TIP3   OH267993   1.320   5.360  14.490  0.8151  0.0429  0.7169
15501TIP3    H167994   1.294   5.422  14.422  1.6807  2.7239  2.7364
15501TIP3    H267995   1.383   5.302  14.448 -2.7026 -1.8484 -2.2122
15502TIP3   OH267996   3.092   4.563   4.595  0.1718 -0.1174 -0.3662
15502TIP3    H167997   3.078   4.542   4.503 -0.8806 -0.2025 -0.1870
15502TIP3    H267998   3.119   4.655   4.594  0.5758 -0.2342 -0.7870
15503TIP3   OH267999   0.714   5.139  11.479  0.1630 -0.2171  0.3845
15503TIP3    H168000   0.681   5.165  11.393 -1.8073  0.8931  1.4382
15503TIP3    H268001   0.652   5.073  11.510  0.2145  0.2221  1.4310
15504TIP3   OH268002   4.693   1.899  12.278  0.5425  0.0878  0.3549
15504TIP3    H168003   4.654   1.935  12.358 -0.4345  0.2509 -0.1855
15504TIP3    H268004   4.766   1.845  12.309  0.4231  0.4755  1.3301
15505TIP3   OH268005   6.477   2.019  11.175 -0.3746 -0.1131 -0.2837
15505TIP3    H168006   6.524   2.101  11.161 -2.0386  0.9603  0.2489
15505TIP3    H268007   6.443   2.026  11.264 -1.9488 -0.6467 -0.8285
15506TIP3   OH268008   6.529   3.403   2.687 -0.3548 -0.4493 -0.3199
15506TIP3    H168009   6.501   3.365   2.604 -0.7090  0.2902 -0.5417
15506TIP3    H268010   6.619   3.371   2.699 -0.4903 -0.9874 -0.7221
15507TIP3   OH268011   2.952   3.463   0.683  0.1145 -0.0114  0.3876
15507TIP3    H168012   2.860   3.486   0.670  0.6192  1.2699 -1.0547
15507TIP3    H268013   2.977   3.507   0.764 -1.4342 -3.1433  2.6693
15508TIP3   OH268014   4.627   3.749   2.269 -0.2722  0.0257 -0.4389
15508TIP3    H168015   4.618   3.738   2.175 -0.4720 -0.1318 -0.4001
15508TIP3    H268016   4.596   3.838   2.286  0.6295  0.3845 -0.6468
15509TIP3   OH268017   2.013   3.284   1.394  0.0579 -0.3866 -0.1734
15509TIP3    H168018   2.102   3.250   1.402 -0.3801 -1.2987  0.8397
15509TIP3    H268019   2.010   3.322   1.306  1.9917  1.2200  0.4077
15510TIP3   OH268020   4.393   3.598  12.051 -0.3918 -0.0409 -0.2741
15510TIP3    H168021   4.332   3.671  12.038  1.1248  1.3656  0.3264
15510TIP3    H268022   4.388   3.579  12.144  2.3860  2.2337  0.4330
15511TIP3   OH268023   3.719   4.874  16.263  0.0523  0.7311  0.4853
15511TIP3    H168024   3.812   4.856  16.252 -0.4190 -1.6505  0.1046
15511TIP3    H268025   3.686   4.799  16.312 -1.8878  0.9664 -0.4192
15512TIP3   OH268026   0.371   5.304  14.735  0.2091 -0.1816  0.0806
15512TIP3    H168027   0.358   5.284  14.828  2.9409 -0.3378  0.4769
15512TIP3    H268028   0.374   5.218  14.692  1.0903 -0.2165  0.1913
15513TIP3   OH268029   0.201   0.711   2.473 -0.0721 -0.7063  0.0134
15513TIP3    H168030   0.272   0.684   2.415 -0.9745 -0.9249 -1.0073
15513TIP3    H268031   0.177   0.799   2.444 -0.0424 -0.5177  0.5393
15514TIP3   OH268032   6.442   5.507  13.010 -0.4092 -0.2279  0.2815
15514TIP3    H168033   6.494   5.531  13.086 -0.5464 -1.6378  0.8424
15514TIP3    H268034   6.488   5.544  12.935  0.8179 -0.5567  0.8710
15515TIP3   OH268035   1.088   4.030  14.182 -0.2737  0.1234 -0.2264
15515TIP3    H168036   1.081   4.126  14.180  1.1768  0.2727  1.2045
15515TIP3    H268037   1.127   4.007  14.098  0.2253  0.8788 -0.2054
15516TIP3   OH268038   5.742   5.110   5.239 -0.3016  0.0644  0.2228
15516TIP3    H168039   5.718   5.144   5.153  0.9151  0.3677  0.0038
15516TIP3    H268040   5.745   5.186   5.296  0.4705  0.0694  0.1763
15517TIP3   OH268041   6.353   6.457   5.600  0.6332 -0.3059  0.4002
15517TIP3    H168042   6.442   6.491   5.601  0.0983  1.1978 -1.5987
15517TIP3    H268043   6.354   6.391   5.531  0.6565 -1.6988  1.6815
15518TIP3   OH268044   0.763   0.894  11.401 -0.3480  0.2538  0.2320
15518TIP3    H168045   0.689   0.896  11.462  0.3004 -0.7627  1.0776
15518TIP3    H268046   0.772   0.985  11.371 -0.6792  0.7755  1.6757
15519TIP3   OH268047   4.039   1.449   1.632  0.6914  0.4863  0.0216
15519TIP3    H168048   3.998   1.373   1.673 -1.0631  0.4809 -1.6674
15519TIP3    H268049   4.027   1.520   1.695 -0.2642  0.0422  0.3394
15520TIP3   OH268050   2.271   6.215   5.781 -0.0744  0.1922  0.1867
15520TIP3    H168051   2.247   6.122   5.788 -0.2852  0.2126 -0.2205
15520TIP3    H268052   2.291   6.242   5.870  0.5031 -0.3831  0.2291
15521TIP3   OH268053   1.666   5.114   1.317 -0.2742  0.1230  0.1052
15521TIP3    H168054   1.671   5.034   1.265 -0.9782  0.6853 -0.8337
15521TIP3    H268055   1.746   5.112   1.371  0.1490 -0.7705 -0.5362
15522TIP3   OH268056   1.377   0.091  16.787  0.0408  0.0929 -0.1039
15522TIP3    H168057   1.415   0.118  16.870  4.3132  2.5306 -2.6265
15522TIP3    H268058   1.315   0.161  16.765 -0.6066 -0.2259  0.6757
15523TIP3   OH268059   2.803   5.542   0.557 -0.1332 -0.6535 -0.3584
15523TIP3    H168060   2.862   5.520   0.629  0.1481 -1.1716 -0.7452
15523TIP3    H268061   2.729   5.482   0.568 -1.1684  0.8029  0.8358
15524TIP3   OH268062   6.352   0.617   4.781 -0.1381  0.2352  0.5341
15524TIP3    H168063   6.441   0.621   4.745  0.3079  1.1076  1.7092
15524TIP3    H268064   6.358   0.550   4.849 -0.5221 -0.1076  0.2276
15525TIP3   OH268065   2.153   1.733   1.970  0.2106  0.0813 -0.3033
15525TIP3    H168066   2.221   1.743   2.037 -1.2139  0.6358  1.1067
15525TIP3    H268067   2.090   1.803   1.989 -0.2365  0.2370 -2.2287
15526TIP3   OH268068   6.416   3.698   4.248  0.1866 -0.5825  0.4358
15526TIP3    H168069   6.439   3.629   4.186 -0.4386 -0.3482 -0.0681
15526TIP3    H268070   6.417   3.778   4.195 -2.9317 -0.7145  0.1266
15527TIP3   OH268071   5.143   0.422  15.449  0.0572  0.1485 -0.3648
15527TIP3    H168072   5.169   0.506  15.489 -0.8853 -0.2629  1.1808
15527TIP3    H268073   5.225   0.374  15.440  0.1220 -0.5623  3.0931
15528TIP3   OH268074   5.344   5.540  15.164 -0.0927  0.0475  0.1720
15528TIP3    H168075   5.269   5.545  15.105  1.7428  1.2164 -2.1330
15528TIP3    H268076   5.375   5.450  15.156 -0.0483  0.1142 -0.3874
15529TIP3   OH268077   1.360   0.876  12.294  0.7296 -0.8643 -0.0862
15529TIP3    H168078   1.434   0.816  12.303  1.7489  0.1007 -1.5946
15529TIP3    H268079   1.398   0.954  12.253 -1.0591 -0.2327 -0.6033
15530TIP3   OH268080   0.955   6.301  13.222  0.1340  0.8320  0.1933
15530TIP3    H168081   0.980   6.294  13.314  1.4064 -1.4963 -0.2946
15530TIP3    H268082   0.997   6.226  13.179 -3.9233 -0.6015 -1.5187
15531TIP3   OH268083   2.057   2.694   5.027  0.2116 -0.3489  0.4321
15531TIP3    H168084   2.062   2.786   5.002 -2.2225 -0.7991 -1.9566
15531TIP3    H268085   2.144   2.659   5.007  0.7648  1.1608  0.1482
15532TIP3   OH268086   1.984   6.380  16.013  0.2121  0.1580 -0.0405
15532TIP3    H168087   1.943   6.294  16.007 -0.7808  0.5823  0.6935
15532TIP3    H268088   2.053   6.370  16.079  2.6437 -1.0793 -2.6592
15533TIP3   OH268089   0.653   0.863  14.587 -0.2612  0.5014  0.3693
15533TIP3    H168090   0.597   0.804  14.638  0.2869  0.1736  0.5938
15533TIP3    H268091   0.618   0.859  14.498 -1.7957  1.7678  0.8845
15534TIP3   OH268092   2.939   5.801   1.818 -0.3854 -0.3946  0.6097
15534TIP3    H168093   3.023   5.801   1.771 -0.9045  0.6552 -0.3447
15534TIP3    H268094   2.960   5.836   1.904  0.7315 -3.0734  1.5038
15535TIP3   OH268095   2.191   4.772  11.547  0.6706  0.3584  0.3279
15535TIP3    H168096   2.153   4.719  11.476  0.4503 -0.1149  0.7975
15535TIP3    H268097   2.259   4.824  11.504  1.5158 -0.9666  0.0326
15536TIP3   OH268098   5.669   1.943   1.566 -0.0113  0.0978  0.2264
15536TIP3    H168099   5.603   1.877   1.588 -0.7515  0.4872 -0.7751
15536TIP3    H268100   5.634   2.025   1.600  1.5605 -0.2019  2.7210
15537TIP3   OH268101   4.277   4.882  13.870 -0.0306 -0.0566  0.1504
15537TIP3    H168102   4.334   4.909  13.942  0.1012  1.4142 -0.4954
15537TIP3    H268103   4.238   4.799  13.900 -0.0699  0.5930  1.9584
15538TIP3   OH268104   6.416   0.578  12.492 -0.1648 -0.3502 -0.0704
15538TIP3    H168105   6.463   0.596  12.573  1.2713 -2.2119 -0.4613
15538TIP3    H268106   6.473   0.611  12.423 -0.7475 -0.0265 -0.4044
15539TIP3   OH268107   1.248   3.654  16.773  0.4257  0.0404 -0.8109
15539TIP3    H168108   1.236   3.707  16.852  0.1048 -0.6762 -0.3815
15539TIP3    H268109   1.265   3.719  16.704  0.0873  0.7025 -0.2802
15540TIP3   OH268110   2.524   5.641   1.822 -0.6294  0.2742 -0.3943
15540TIP3    H168111   2.482   5.561   1.791 -0.5385  0.1999 -0.3256
15540TIP3    H268112   2.458   5.683   1.877 -0.5631  0.0835 -0.1654
15541TIP3   OH268113   4.654   4.728  16.234 -0.2992 -0.2359  0.0684
15541TIP3    H168114   4.617   4.683  16.309 -2.7978  1.5853 -0.0072
15541TIP3    H268115   4.619   4.681  16.158 -0.8412  0.2348  0.0198
15542TIP3   OH268116   3.627   6.231   1.668  0.3299  0.3198 -0.0490
15542TIP3    H168117   3.645   6.137   1.664  2.3729  0.5379  2.5209
15542TIP3    H268118   3.573   6.248   1.591  0.3868 -2.8447 -0.8795
15543TIP3   OH268119   4.315   6.698   5.720  0.6065 -0.2904 -0.0168
15543TIP3    H168120   4.267   6.627   5.761  0.4253  0.0698  0.3942
15543TIP3    H268121   4.277   6.778   5.757  0.8024  0.0213 -0.4779
15544TIP3   OH268122   6.610   5.984   1.480  0.5673 -0.9314 -0.8153
15544TIP3    H168123   6.519   6.014   1.479  1.0132  0.4153 -2.2950
15544TIP3    H268124   6.633   5.984   1.573 -0.1025  1.3532 -0.6124
15545TIP3   OH268125   5.905   1.028  15.635  0.0904 -0.5571 -0.1811
15545TIP3    H168126   5.936   1.104  15.685  0.3108 -1.3395  0.8849
15545TIP3    H268127   5.983   0.998  15.588  0.0015 -0.1276 -0.6087
15546TIP3   OH268128   3.178   1.476   0.156 -0.0985 -0.0590 -0.7476
15546TIP3    H168129   3.128   1.486   0.076  1.1031  0.3730 -1.4550
15546TIP3    H268130   3.265   1.510   0.135  0.2528 -0.0035  0.7082
15547TIP3   OH268131   2.264   5.007   4.959  0.0792  0.5880  0.2095
15547TIP3    H168132   2.306   4.922   4.973  0.5949 -0.0417 -4.5818
15547TIP3    H268133   2.172   4.985   4.943 -0.5529  1.3190  2.5574
15548TIP3   OH268134   2.039   6.681   5.664 -0.5041  0.3934 -0.2130
15548TIP3    H168135   1.956   6.708   5.704  0.3427  0.1275  1.7709
15548TIP3    H268136   2.053   6.744   5.593 -0.8562  2.3724  1.4133
15549TIP3   OH268137   1.158   5.215   1.854 -0.3316  0.0925 -0.3102
15549TIP3    H168138   1.111   5.248   1.930  1.2459  2.1287 -0.1722
15549TIP3    H268139   1.219   5.151   1.889 -0.7171 -0.1489 -0.0759
15550TIP3   OH268140   2.686   5.822   1.178  0.3843  0.2439  0.1563
15550TIP3    H168141   2.593   5.828   1.197  0.3198  0.5182 -0.2530
15550TIP3    H268142   2.727   5.884   1.239  0.4049 -0.6597  1.0818
15551TIP3   OH268143   1.440   0.388   4.311 -0.0726  0.0027  0.7117
15551TIP3    H168144   1.394   0.469   4.333 -1.1329 -0.6959  1.0971
15551TIP3    H268145   1.477   0.359   4.394  0.5370  0.2267  0.5220
15552TIP3   OH268146   0.111   3.753   5.639 -0.2917 -0.0899  0.1442
15552TIP3    H168147   0.082   3.746   5.730 -4.0395  2.6778 -0.7371
15552TIP3    H268148   0.150   3.840   5.632  1.9560 -1.0969 -0.4581
15553TIP3   OH268149   5.000   1.719   5.512 -0.1565  0.4361  0.0055
15553TIP3    H168150   4.914   1.685   5.488 -0.7310  1.9973 -0.1813
15553TIP3    H268151   5.053   1.708   5.433 -0.4341  0.2909 -0.1615
15554TIP3   OH268152   2.313   3.304   1.385 -0.0109 -0.5313 -0.2063
15554TIP3    H168153   2.366   3.234   1.423  1.4708  1.3290  1.2694
15554TIP3    H268154   2.332   3.300   1.291  2.4274 -0.1761  0.2367
15555TIP3   OH268155   1.134   4.348   3.273 -0.5665 -0.5150  0.3704
15555TIP3    H168156   1.220   4.358   3.232  0.4369  1.7635  2.8683
15555TIP3    H268157   1.080   4.416   3.232 -0.6904 -0.8215  0.0239
15556TIP3   OH268158   4.945   0.008  16.022 -0.1976 -0.4113 -0.1332
15556TIP3    H168159   4.994  -0.014  16.101 -0.4237 -1.1510 -0.1903
15556TIP3    H268160   5.007   0.057  15.968  0.2148 -0.6106  0.1551
15557TIP3   OH268161   1.815   4.117   1.083 -0.1608 -0.3426  0.4386
15557TIP3    H168162   1.782   4.071   1.160 -0.4046  1.1350  1.2320
15557TIP3    H268163   1.737   4.154   1.042  0.3180  2.1274  1.6412
15558TIP3   OH268164   3.558   1.483  15.644 -0.2442 -0.1626  0.1539
15558TIP3    H168165   3.596   1.462  15.559  0.2545 -0.4840  0.4535
15558TIP3    H268166   3.577   1.407  15.699 -2.1844 -0.7730  0.0460
15559TIP3   OH268167   6.557   6.537   5.833  0.0694 -0.1463  0.0355
15559TIP3    H168168   6.612   6.551   5.756 -0.9070 -1.2334 -0.8872
15559TIP3    H268169   6.525   6.624   5.855  1.6044  0.3991  0.1756
15560TIP3   OH268170   5.726   0.935  16.241 -0.1891 -0.1328 -0.4619
15560TIP3    H168171   5.729   0.963  16.149 -0.7965 -0.4864 -0.5899
15560TIP3    H268172   5.813   0.956  16.275  0.0245  0.0415 -1.1080
15561TIP3   OH268173   2.590   0.250  13.194  0.6324  0.0032 -0.2882
15561TIP3    H168174   2.653   0.186  13.160  1.2006  0.1319  0.5156
15561TIP3    H268175   2.553   0.291  13.115  0.6511 -0.9342 -0.7993
15562TIP3   OH268176   4.667   4.654  17.213  0.2500  0.0038 -0.0349
15562TIP3    H168177   4.616   4.724  17.172  0.2250 -0.7285 -1.2617
15562TIP3    H268178   4.613   4.576  17.205  1.1799 -0.5931 -0.5706
15563TIP3   OH268179   2.365   6.322   5.375 -0.1661  0.3643  0.0567
15563TIP3    H168180   2.315   6.367   5.443  1.5664  3.2552 -0.4806
15563TIP3    H268181   2.335   6.361   5.293  0.5849 -0.2483 -0.5263
15564TIP3   OH268182   0.983   3.951   3.931 -0.0951 -0.0082 -0.4991
15564TIP3    H168183   0.975   3.856   3.921 -0.0154 -0.0070 -0.5783
15564TIP3    H268184   0.914   3.987   3.875 -1.4154 -0.0623  1.0498
15565TIP3   OH268185   4.152   4.456  12.043 -0.4797 -0.0123 -0.2954
15565TIP3    H168186   4.146   4.373  11.995  1.3899 -0.7845  0.7309
15565TIP3    H268187   4.117   4.522  11.983 -2.0349 -1.5383 -1.1119
15566TIP3   OH268188   0.738   0.059  12.582  0.1531 -0.0477 -0.3100
15566TIP3    H168189   0.777   0.096  12.661  2.7036 -1.9390 -0.6142
15566TIP3    H268190   0.693  -0.020  12.611 -1.9097  1.0916 -0.2685
15567TIP3   OH268191   1.821   6.094  14.307  0.0189  0.2267  0.3910
15567TIP3    H168192   1.794   6.162  14.369 -1.2390 -0.6286  0.8104
15567TIP3    H268193   1.867   6.030  14.361  0.5762  0.3991  0.1206
15568TIP3   OH268194   1.067   4.186   4.300  0.3088  0.1156 -0.1995
15568TIP3    H168195   0.988   4.218   4.342 -0.4097 -1.5422 -0.2446
15568TIP3    H268196   1.103   4.263   4.254 -0.6606  1.1326  0.7222
15569TIP3   OH268197   3.340   0.337  13.248 -0.1912 -0.2378  0.1222
15569TIP3    H168198   3.431   0.310  13.235  0.5547  2.6861 -1.2229
15569TIP3    H268199   3.333   0.356  13.341  0.3918 -1.1234  0.3489
15570TIP3   OH268200   0.832   3.788   3.589  0.4161 -0.4995 -0.2967
15570TIP3    H168201   0.912   3.842   3.589  0.9896 -1.3357 -0.9817
15570TIP3    H268202   0.860   3.703   3.554  0.1685 -2.2372  3.4965
15571TIP3   OH268203   1.819   6.060   2.806  0.1910  0.3079 -0.0244
15571TIP3    H168204   1.864   5.993   2.857 -0.5138 -0.9900 -1.0913
15571TIP3    H268205   1.744   6.015   2.767 -0.1871  1.6621 -0.9061
15572TIP3   OH268206   1.986   4.799  17.285 -0.0283  0.4570  0.4964
15572TIP3    H168207   1.997   4.893  17.275  1.2133  0.4516  1.5840
15572TIP3    H268208   1.909   4.789  17.340 -0.9304  0.7872 -0.6920
15573TIP3   OH268209   2.343   0.651  14.904 -0.0302  0.0573  0.2850
15573TIP3    H168210   2.284   0.581  14.931  1.4902 -0.9976  0.9787
15573TIP3    H268211   2.299   0.693  14.830 -1.7066 -0.5823  0.8916
15574TIP3   OH268212   1.836   6.604  14.660 -0.0062  0.1734  0.1959
15574TIP3    H168213   1.842   6.696  14.633  1.1327 -0.3946 -1.5663
15574TIP3    H268214   1.927   6.575  14.667 -0.3602 -0.9633  0.2220
15575TIP3   OH268215   5.818   0.472   1.859 -0.2083 -0.4618  0.1461
15575TIP3    H168216   5.888   0.525   1.898 -0.5367  0.1890 -0.1333
15575TIP3    H268217   5.861   0.421   1.791 -0.1970  0.7822 -0.7984
15576TIP3   OH268218   3.138   0.774   2.091 -0.1659 -0.3170  0.5170
15576TIP3    H168219   3.189   0.783   2.172 -0.0356 -3.2105  0.8005
15576TIP3    H268220   3.202   0.792   2.021  0.5372 -1.0341  0.9663
15577TIP3   OH268221   1.026   6.653   1.168  0.1353  0.2352  0.3340
15577TIP3    H168222   0.961   6.599   1.215  0.0906  1.2584  1.4772
15577TIP3    H268223   1.110   6.619   1.199  0.1414 -0.3107 -0.2589
15578TIP3   OH268224   3.768   3.779   4.031 -0.4758  0.2995 -0.0718
15578TIP3    H168225   3.729   3.827   4.105  0.0181 -1.3497  1.2932
15578TIP3    H268226   3.700   3.717   4.004 -0.3365  0.3023 -0.4267
15579TIP3   OH268227   1.394   1.511  10.868 -0.4945 -0.4909 -0.3995
15579TIP3    H168228   1.465   1.573  10.853  2.1939 -3.0633  1.0353
15579TIP3    H268229   1.402   1.488  10.961 -3.9009 -0.0634  0.0574
15580TIP3   OH268230   2.250   4.276   0.926 -0.1404 -0.2433 -0.3115
15580TIP3    H168231   2.221   4.270   1.018  0.5927  0.7704 -0.0044
15580TIP3    H268232   2.211   4.200   0.884 -3.5984  1.2368 -0.0010
15581TIP3   OH268233   1.226   1.427  13.131  0.4284  0.1039 -0.1447
15581TIP3    H168234   1.161   1.393  13.192  0.0749  0.9306 -0.0524
15581TIP3    H268235   1.308   1.386  13.157  0.3653  0.7880  1.1630
15582TIP3   OH268236   0.157   6.249  15.851 -0.3010  0.0208  0.1798
15582TIP3    H168237   0.210   6.245  15.931  0.3565 -2.3154 -0.3378
15582TIP3    H268238   0.215   6.285  15.785 -0.5338  0.9804  0.4807
15583TIP3   OH268239   4.967   4.761  12.608 -0.2624 -0.5952  0.0899
15583TIP3    H168240   5.026   4.695  12.642 -1.8277 -0.6924  2.7775
15583TIP3    H268241   5.007   4.845  12.631 -0.2677 -0.6514  0.3049
15584TIP3   OH268242   0.097   4.351  13.949 -0.1928 -0.0395  0.3958
15584TIP3    H168243   0.179   4.301  13.948 -0.7544 -0.9589  0.0039
15584TIP3    H268244   0.034   4.294  13.993 -1.6360 -0.9847 -2.7212
15585TIP3   OH268245   3.975   5.333  14.573 -0.3695  0.1308  0.1505
15585TIP3    H168246   3.895   5.372  14.538 -1.8935 -2.0853  0.9696
15585TIP3    H268247   3.983   5.369  14.661 -1.7825 -1.3231  0.9123
15586TIP3   OH268248   4.909   2.921  16.518  0.2879 -0.7446 -0.1411
15586TIP3    H168249   4.921   2.827  16.533 -1.5001 -1.1833 -1.2877
15586TIP3    H268250   4.814   2.934  16.518  0.5022  0.9936 -0.4293
15587TIP3   OH268251   0.065   1.311   3.473  0.1627  0.0583 -0.1057
15587TIP3    H168252   0.025   1.376   3.531 -1.3916 -0.9949  0.0581
15587TIP3    H268253   0.159   1.321   3.486 -0.1154  1.1283  1.1702
15588TIP3   OH268254   4.793   5.759  10.661  0.0629 -0.1986  0.6827
15588TIP3    H168255   4.749   5.704  10.726  1.0372  0.9832  2.3791
15588TIP3    H268256   4.886   5.747  10.678  0.3147  0.5098 -0.1615
15589TIP3   OH268257   2.375   1.351   4.450  0.3372  0.0915  0.0902
15589TIP3    H168258   2.313   1.319   4.516  0.3062  0.4281  0.2286
15589TIP3    H268259   2.460   1.351   4.494  0.3325  0.2243  0.1009
15590TIP3   OH268260   1.158   4.011   6.247 -0.3976 -0.2599  0.8266
15590TIP3    H168261   1.098   3.957   6.299  0.5944 -2.3560 -0.1389
15590TIP3    H268262   1.207   4.062   6.312  0.5612 -2.5596  1.9565
15591TIP3   OH268263   5.204   3.152   5.577  0.3630 -0.5064 -0.3055
15591TIP3    H168264   5.120   3.193   5.554  1.8582  2.2279 -1.1450
15591TIP3    H268265   5.230   3.196   5.658  0.9680 -1.4188  0.0007
15592TIP3   OH268266   3.667   6.333   0.956  0.0865 -0.1684 -0.4397
15592TIP3    H168267   3.726   6.292   1.019 -0.1281 -2.3003 -1.6024
15592TIP3    H268268   3.580   6.300   0.978 -0.5985  2.3460  0.7662
15593TIP3   OH268269   0.492   4.820  16.730  0.8326 -0.0205  0.0072
15593TIP3    H168270   0.414   4.842  16.678  1.1410 -1.0952 -0.9196
15593TIP3    H268271   0.477   4.864  16.814 -0.6164  0.0712 -0.2803
15594TIP3   OH268272   1.046   4.088  15.176  0.3846  0.3055  0.1179
15594TIP3    H168273   0.969   4.069  15.229 -0.0592  2.8123  0.4437
15594TIP3    H268274   1.022   4.166  15.127  2.0355 -0.0089 -1.2254
15595TIP3   OH268275   1.966   2.107   3.180 -0.3230  0.5723  0.1928
15595TIP3    H168276   1.871   2.112   3.186 -0.3032 -0.4096  1.3940
15595TIP3    H268277   1.997   2.156   3.256  0.1120 -0.0981  0.4497
15596TIP3   OH268278   0.669   2.452  15.083 -0.8524  0.4414 -0.2383
15596TIP3    H168279   0.715   2.507  15.019 -1.8403  1.4233 -0.1119
15596TIP3    H268280   0.693   2.489  15.168  0.6962 -1.0461 -0.0015
15597TIP3   OH268281   4.151   4.659   0.365 -0.0994 -0.0017  0.0507
15597TIP3    H168282   4.146   4.721   0.438 -2.5178 -0.0674 -0.0176
15597TIP3    H268283   4.157   4.714   0.287 -1.2715  0.1457  0.0572
15598TIP3   OH268284   0.432   0.856  13.410 -0.2369  0.4328 -0.0353
15598TIP3    H168285   0.373   0.837  13.483  0.6386  0.7943  0.7749
15598TIP3    H268286   0.520   0.847  13.447  0.2099  2.1268 -0.6414
15599TIP3   OH268287   5.441   0.229  14.226  0.4225 -0.2784  0.6129
15599TIP3    H168288   5.519   0.224  14.282 -1.1436 -0.0523  2.8547
15599TIP3    H268289   5.477   0.238  14.137  2.9564 -0.9719  1.5057
15600TIP3   OH268290   3.355   6.726   5.880 -0.1506 -0.2550 -0.4233
15600TIP3    H168291   3.440   6.694   5.850  0.7535 -2.1279  3.7026
15600TIP3    H268292   3.376   6.791   5.947 -1.9543 -0.5004  0.4103
15601TIP3   OH268293   5.265   1.279   0.527 -0.0543  0.5105  0.0293
15601TIP3    H168294   5.306   1.193   0.540 -0.6985 -0.1377 -2.0602
15601TIP3    H268295   5.193   1.280   0.589 -0.1943 -0.5688 -0.0980
15602TIP3   OH268296   0.805   2.955  14.764 -0.3467 -0.2188 -0.2011
15602TIP3    H168297   0.834   2.998  14.844  0.4900 -0.2132 -0.5031
15602TIP3    H268298   0.727   3.005  14.737  0.9826  1.5371 -0.8949
15603TIP3   OH268299   3.033   2.191  14.423  0.0191  0.4835 -0.0162
15603TIP3    H168300   2.950   2.155  14.455 -0.2593  0.6481 -0.5392
15603TIP3    H268301   3.091   2.115  14.415  0.1091  0.4539  0.9331
15604TIP3   OH268302   4.705   6.713  12.879 -0.5187 -0.5295 -0.4778
15604TIP3    H168303   4.696   6.778  12.948 -0.2134 -0.9732 -0.0115
15604TIP3    H268304   4.645   6.643  12.904 -1.8779  0.1926 -1.7149
15605TIP3   OH268305   2.876   0.230  13.703  0.0602 -0.0017 -0.5108
15605TIP3    H168306   2.858   0.162  13.638 -0.6282  3.2029 -3.8511
15605TIP3    H268307   2.969   0.251  13.690  0.7717 -1.4879  1.7942
15606TIP3   OH268308   2.636   1.582  16.826 -0.2775  0.1681 -0.1927
15606TIP3    H168309   2.696   1.520  16.868  0.3067 -0.1630 -1.5000
15606TIP3    H268310   2.661   1.581  16.734 -1.9580  0.4296 -0.6615
15607TIP3   OH268311   2.106   3.188   2.848 -0.1179  0.3540 -0.6511
15607TIP3    H168312   2.090   3.281   2.867  3.1017  0.9012 -0.3054
15607TIP3    H268313   2.146   3.189   2.761 -3.3966 -1.0794 -2.2505
15608TIP3   OH268314   4.765   0.719   1.797 -0.1275  0.0869 -0.2476
15608TIP3    H168315   4.807   0.798   1.831  0.3782 -1.6273  3.4157
15608TIP3    H268316   4.837   0.664   1.767 -0.3634  0.3408 -1.3001
15609TIP3   OH268317   1.924   0.865   1.013  0.2842  0.0099 -0.3025
15609TIP3    H168318   1.881   0.951   1.007  0.6576  0.1706 -0.7354
15609TIP3    H268319   2.005   0.876   0.964  0.5111 -0.4847 -0.0404
15610TIP3   OH268320   1.877   3.632   0.421 -0.1287 -0.0073  0.1408
15610TIP3    H168321   1.964   3.647   0.384 -0.0100 -0.0178  0.4184
15610TIP3    H268322   1.893   3.610   0.512 -0.3083 -1.6532 -0.2145
15611TIP3   OH268323   3.924   1.098   1.574  0.1801  0.3789 -0.2055
15611TIP3    H168324   3.907   1.012   1.614 -1.2851  1.3197  1.2459
15611TIP3    H268325   3.917   1.082   1.480  0.4507 -1.2031  0.0233
15612TIP3   OH268326   0.823   0.116  14.711 -0.5620  0.5124 -0.1894
15612TIP3    H168327   0.731   0.116  14.687 -0.2801 -0.3764 -1.3001
15612TIP3    H268328   0.831   0.185  14.777 -1.8757  1.0964 -0.6368
15613TIP3   OH268329   4.058   6.696  17.200 -0.3374 -0.5109  0.2863
15613TIP3    H168330   4.046   6.606  17.169  0.2900 -0.1019 -1.2050
15613TIP3    H268331   3.969   6.725  17.223 -1.0792 -0.3252 -2.6161
15614TIP3   OH268332   2.537   4.661   4.085 -0.2715  0.1200  0.2606
15614TIP3    H168333   2.543   4.591   4.020 -0.6946 -0.2385  0.6062
15614TIP3    H268334   2.614   4.715   4.069 -0.5917  0.2687 -0.8110
15615TIP3   OH268335   5.416   6.815  12.789 -0.6022  0.2308 -0.3097
15615TIP3    H168336   5.372   6.731  12.805  0.5032 -0.1735  0.6873
15615TIP3    H268337   5.505   6.790  12.763  0.1804  1.1255  1.4503
15616TIP3   OH268338   5.147   4.410   2.710 -0.6584  0.6073 -0.6934
15616TIP3    H168339   5.104   4.325   2.721 -0.2646  0.4817 -0.1128
15616TIP3    H268340   5.090   4.471   2.755 -0.4508  0.5077 -0.2988
15617TIP3   OH268341   5.863   2.348   0.314  0.0696  0.7679 -0.0931
15617TIP3    H168342   5.946   2.396   0.312 -0.4917  1.8913  2.4081
15617TIP3    H268343   5.861   2.307   0.400 -1.0783 -0.9257 -0.8849
15618TIP3   OH268344   1.050   1.707   0.030 -0.2491  0.2398 -0.2427
15618TIP3    H168345   1.119   1.766   0.059 -0.6989 -0.0830  1.4981
15618TIP3    H268346   0.991   1.764  -0.021  1.4781  0.4271 -2.0828
15619TIP3   OH268347   6.706   5.938  10.838  0.0454  0.1178  0.3278
15619TIP3    H168348   6.746   5.861  10.878 -0.3707  0.2142  0.9332
15619TIP3    H268349   6.651   5.902  10.768  0.4916 -0.0731  0.0729
15620TIP3   OH268350   3.966   4.412   5.775 -0.1067  0.4626  0.1656
15620TIP3    H168351   4.021   4.432   5.699 -0.8827 -1.7868 -1.0593
15620TIP3    H268352   4.004   4.332   5.811  0.3135  1.5848  2.2389
15621TIP3   OH268353   0.206   3.831  16.246 -0.7775  0.0619 -0.3980
15621TIP3    H168354   0.120   3.827  16.288 -0.7018 -0.0448 -0.2512
15621TIP3    H268355   0.201   3.770  16.174  0.3299 -2.6702  1.7503
15622TIP3   OH268356   1.689   1.668   2.174 -0.3104 -0.0112  0.0657
15622TIP3    H168357   1.689   1.731   2.101  0.6373 -0.5553 -0.4088
15622TIP3    H268358   1.737   1.712   2.244 -1.1424  0.4765  0.3336
15623TIP3   OH268359   3.950   6.126  14.981 -0.0603  0.3596 -0.0146
15623TIP3    H168360   4.009   6.071  15.033 -0.4308 -0.1448 -0.1296
15623TIP3    H268361   3.875   6.142  15.037  0.3364  1.2895  0.2571
15624TIP3   OH268362   4.475   6.529   3.904 -0.4483 -0.0984 -0.2568
15624TIP3    H168363   4.422   6.480   3.842 -0.0603  0.5601 -1.1333
15624TIP3    H268364   4.466   6.620   3.876  0.9707  0.0496 -0.3059
15625TIP3   OH268365   5.757   1.628   4.612  0.1556  0.0297  0.2951
15625TIP3    H168366   5.719   1.569   4.677 -0.1089 -1.6216 -1.2871
15625TIP3    H268367   5.716   1.712   4.628 -2.4510 -1.1606  0.1113
15626TIP3   OH268368   4.782   0.617  15.126 -0.4181  0.3736 -0.2571
15626TIP3    H168369   4.854   0.606  15.188 -0.6912 -0.1971 -0.0363
15626TIP3    H268370   4.752   0.527  15.108 -0.6597  0.5696 -0.8284
15627TIP3   OH268371   5.681   2.456  15.925 -0.9228 -0.0711 -0.1664
15627TIP3    H168372   5.649   2.506  16.000 -0.1253 -1.0818  0.8549
15627TIP3    H268373   5.602   2.417  15.887 -1.1443 -0.9626  1.1860
15628TIP3   OH268374   6.763   4.771   2.725 -0.1160  0.6796  0.0895
15628TIP3    H168375   6.768   4.678   2.748 -1.5232  0.1122 -1.7876
15628TIP3    H268376   6.809   4.815   2.796  0.8014 -1.4677  0.8806
15629TIP3   OH268377   2.386   1.482   3.720 -0.1057  0.3107 -0.0646
15629TIP3    H168378   2.291   1.491   3.722 -0.1623 -0.4886  2.6696
15629TIP3    H268379   2.414   1.497   3.811  2.5623  2.2287 -1.1294
15630TIP3   OH268380   5.020   4.722  13.605  0.1093  0.0860  0.1225
15630TIP3    H168381   5.014   4.803  13.554  0.1950  1.0306  1.5592
15630TIP3    H268382   4.981   4.655  13.549 -0.5789  1.2539 -0.8271
15631TIP3   OH268383   1.726   3.991  15.052 -0.0188 -0.5764  0.7192
15631TIP3    H168384   1.757   4.072  15.013 -3.5700 -0.3132 -1.8014
15631TIP3    H268385   1.671   4.018  15.126 -0.8307 -0.6692  0.1600
15632TIP3   OH268386   1.661   4.285  14.254  0.4458  0.3863 -0.0065
15632TIP3    H168387   1.622   4.370  14.234 -0.6600 -0.4022 -1.2385
15632TIP3    H268388   1.754   4.297  14.234  0.2245  1.1864 -0.5851
15633TIP3   OH268389   6.448   0.285  11.994  0.0556  0.3249  0.0371
15633TIP3    H168390   6.498   0.337  12.057 -0.9616 -0.5637  1.6052
15633TIP3    H268391   6.458   0.195  12.023 -1.0857 -0.0232 -0.5992
15634TIP3   OH268392   4.067   3.053   1.240  0.0934 -0.2327  0.3547
15634TIP3    H168393   4.082   3.029   1.331 -0.1295 -1.1598  0.1548
15634TIP3    H268394   4.081   2.972   1.191  1.3718  0.5301 -0.5722
15635TIP3   OH268395   5.325   1.794   4.598 -0.6526  0.7456  0.6934
15635TIP3    H168396   5.261   1.845   4.547  0.5713  0.4663 -1.1448
15635TIP3    H268397   5.368   1.859   4.653  0.4708  1.6357 -1.1994
15636TIP3   OH268398   2.274   1.304  15.537  0.3150 -0.0103 -0.6253
15636TIP3    H168399   2.208   1.295  15.606 -0.5157 -0.8422 -1.5067
15636TIP3    H268400   2.339   1.364  15.573 -0.8062  0.6322  0.3444
15637TIP3   OH268401   0.225   1.028  15.184 -0.3014 -0.1920  0.0320
15637TIP3    H168402   0.285   1.069  15.247  0.7346 -2.0789  0.3106
15637TIP3    H268403   0.166   1.099  15.158  1.1675  1.3659  0.8165
15638TIP3   OH268404   1.307   2.876  11.249  0.4029  0.5005 -0.0296
15638TIP3    H168405   1.228   2.917  11.284 -1.0492 -2.2479  0.0255
15638TIP3    H268406   1.281   2.847  11.161  2.3256  2.3331 -1.2576
15639TIP3   OH268407   2.998   2.806   4.480  0.0028  0.1486 -0.3828
15639TIP3    H168408   2.989   2.864   4.404 -1.5006  0.4098 -0.0119
15639TIP3    H268409   2.927   2.832   4.539  0.2490 -1.0532  0.4595
15640TIP3   OH268410   5.145   5.665   3.676  0.1882  0.4202  0.1656
15640TIP3    H168411   5.160   5.679   3.583  0.3377  1.8629  0.3894
15640TIP3    H268412   5.233   5.650   3.712  0.1051 -0.3785  0.0395
15641TIP3   OH268413   2.149   6.598  12.977 -0.1176 -0.1878  0.5514
15641TIP3    H168414   2.204   6.656  13.030  0.7820 -1.6557  1.2654
15641TIP3    H268415   2.118   6.653  12.905  1.0573  1.0639  0.9829
15642TIP3   OH268416   3.678   0.593  17.062 -0.6144  0.0323 -0.2564
15642TIP3    H168417   3.731   0.577  16.984  0.2245 -0.6049  0.4267
15642TIP3    H268418   3.630   0.511  17.076 -0.4767  0.0156  0.1148
15643TIP3   OH268419   0.613   3.964   1.603  0.0060  0.2978 -0.0279
15643TIP3    H168420   0.589   4.056   1.595 -1.9362 -0.0322  1.6011
15643TIP3    H268421   0.546   3.917   1.552 -0.1758 -0.3386  0.7867
15644TIP3   OH268422   0.468   2.514  11.190 -1.0939 -0.1541 -0.0828
15644TIP3    H168423   0.482   2.513  11.095 -0.5746 -1.5287 -0.0035
15644TIP3    H268424   0.552   2.541  11.226 -1.3971  0.7241 -0.0254
15645TIP3   OH268425   5.174   1.321  11.186 -0.2566 -0.3094 -0.1561
15645TIP3    H168426   5.117   1.245  11.173 -0.4482  0.1617 -2.1428
15645TIP3    H268427   5.114   1.396  11.186  0.0966 -0.0186  0.3702
15646TIP3   OH268428   2.765   3.512  14.684 -0.6153 -0.0332  0.0147
15646TIP3    H168429   2.735   3.437  14.735 -0.1261  0.4186  0.9660
15646TIP3    H268430   2.797   3.575  14.749  1.1397  0.0470 -0.8984
15647TIP3   OH268431   3.628   3.722  15.789 -0.9318 -0.1012  0.8791
15647TIP3    H168432   3.534   3.737  15.792 -1.6800 -1.9724 -5.1778
15647TIP3    H268433   3.637   3.632  15.757  2.8113  0.7472 -0.8493
15648TIP3   OH268434   2.918   2.150   0.920  0.1642  0.2262  0.1136
15648TIP3    H168435   2.996   2.094   0.918  0.2383  0.2852  1.1227
15648TIP3    H268436   2.953   2.239   0.924  0.0522  0.2252  1.2456
15649TIP3   OH268437   0.850   1.667  14.331  0.5061 -0.4038 -0.2310
15649TIP3    H168438   0.922   1.629  14.380 -1.1823 -0.7289  2.0804
15649TIP3    H268439   0.860   1.761  14.342  0.3231 -0.4645  0.5054
15650TIP3   OH268440   0.179   4.341  14.290  0.0234  0.0686  0.0116
15650TIP3    H168441   0.211   4.344  14.380 -0.1256  1.1161  0.0406
15650TIP3    H268442   0.242   4.395  14.241  1.4671 -2.3872 -0.9569
15651TIP3   OH268443   3.814   5.206  16.776 -0.2701  0.3283  0.1575
15651TIP3    H168444   3.794   5.252  16.858 -0.6744 -1.1713  0.9336
15651TIP3    H268445   3.908   5.187  16.781 -0.3423  0.0265  0.3954
15652TIP3   OH268446   1.834   6.663   4.893 -0.0109 -0.5247  0.0925
15652TIP3    H168447   1.915   6.711   4.905  0.3938 -0.8219 -1.3075
15652TIP3    H268448   1.812   6.675   4.800 -0.0637 -2.7400 -0.2133
15653TIP3   OH268449   6.224   0.912  15.208  0.2558  0.0708  0.1783
15653TIP3    H168450   6.303   0.930  15.157  0.4506 -0.8347  0.1485
15653TIP3    H268451   6.155   0.960  15.164  1.1046  2.2887  1.2134
15654TIP3   OH268452   5.431   1.760   1.610  0.0295 -0.1771  0.2427
15654TIP3    H168453   5.397   1.680   1.649  0.4575  0.0442  1.0778
15654TIP3    H268454   5.356   1.819   1.605 -0.4756 -0.9176 -1.1488
15655TIP3   OH268455   1.933   0.463  14.842  0.2642 -0.0140 -0.0796
15655TIP3    H168456   1.912   0.369  14.849 -1.2630  0.1454 -2.0357
15655TIP3    H268457   2.021   0.465  14.805 -0.0066 -0.6985 -0.7890
15656TIP3   OH268458   4.699   5.935  12.929 -0.3763 -0.0699  0.5999
15656TIP3    H168459   4.632   5.892  12.876  0.3470 -0.4598 -0.0067
15656TIP3    H268460   4.652   6.005  12.975 -1.0331  0.2142 -0.4758
15657TIP3   OH268461   2.823   2.320  11.706 -0.1742 -0.1738 -0.2177
15657TIP3    H168462   2.852   2.249  11.763 -1.8635 -0.3403  0.4467
15657TIP3    H268463   2.855   2.400  11.749 -1.5430 -0.2906  1.0324
15658TIP3   OH268464   2.441   4.867   2.528  0.3984 -0.1315  0.1193
15658TIP3    H168465   2.462   4.821   2.446  1.6914 -0.5993  0.7020
15658TIP3    H268466   2.347   4.886   2.521  0.4286 -0.4337 -1.3382
15659TIP3   OH268467   6.769   2.436   4.758  0.1161  0.1206 -0.1877
15659TIP3    H168468   6.860   2.435   4.787  0.3184  0.1929 -0.8095
15659TIP3    H268469   6.760   2.359   4.703 -0.4209 -0.3371  0.5260
15660TIP3   OH268470   1.842   6.610  11.491  0.0383 -0.0012  0.3414
15660TIP3    H168471   1.932   6.643  11.492  0.0626 -0.0027 -0.9315
15660TIP3    H268472   1.851   6.515  11.496  0.0962  0.0147  0.5384
15661TIP3   OH268473   5.076   3.164  10.539 -0.3082 -0.3202  0.2824
15661TIP3    H168474   5.062   3.225  10.465  0.0136 -1.2752 -0.5776
15661TIP3    H268475   5.017   3.196  10.607 -3.4978 -1.6445 -1.7356
15662TIP3   OH268476   0.652   6.547  12.944 -0.8312 -0.1427  0.1022
15662TIP3    H168477   0.732   6.551  12.996 -0.8851 -1.6275  0.3022
15662TIP3    H268478   0.680   6.512  12.860 -0.9523  1.1330 -0.4780
15663TIP3   OH268479   4.231   1.962   4.836  0.6559  0.3482  0.1009
15663TIP3    H168480   4.288   1.903   4.786  0.0543  0.0372 -0.2337
15663TIP3    H268481   4.145   1.920   4.831  0.5315  0.4748  1.1450
15664TIP3   OH268482   1.375   4.515  16.060  0.0249 -0.0502 -0.5592
15664TIP3    H168483   1.294   4.552  16.024  1.0133  1.4148 -1.2946
15664TIP3    H268484   1.384   4.431  16.014 -1.7074 -0.8128  0.4206
15665TIP3   OH268485   1.930   1.064   2.238 -0.2961  0.5101  0.2949
15665TIP3    H168486   1.892   0.980   2.264  0.8495 -0.0024  0.3571
15665TIP3    H268487   2.016   1.066   2.281 -0.8346  2.2953  1.3267
15666TIP3   OH268488   3.206   4.396  12.993 -0.0524  0.0754  0.1508
15666TIP3    H168489   3.122   4.420  13.032 -0.7926 -0.5857 -1.0209
15666TIP3    H268490   3.200   4.302  12.976  0.6565  0.1497 -0.5707
15667TIP3   OH268491   2.265   1.452   0.936 -0.3801 -0.2456  0.4878
15667TIP3    H168492   2.230   1.509   0.868 -1.1021  0.4017  1.3865
15667TIP3    H268493   2.345   1.417   0.899 -0.8635 -0.0456 -0.7697
15668TIP3   OH268494   3.822   1.531   4.388 -0.1395 -0.7766 -0.0117
15668TIP3    H168495   3.802   1.455   4.441 -0.4734  0.0664  1.0942
15668TIP3    H268496   3.836   1.602   4.451 -0.4429  0.2166 -1.0308
15669TIP3   OH268497   3.321   4.183   4.582 -0.5302  0.2744  0.2211
15669TIP3    H168498   3.285   4.242   4.516 -1.2648  0.8579  1.1240
15669TIP3    H268499   3.393   4.233   4.622 -0.7339  0.3091  0.5461
15670TIP3   OH268500   2.603   5.187  17.247 -0.1469 -0.1458 -0.0681
15670TIP3    H168501   2.530   5.144  17.290 -0.1267 -0.2323 -0.1188
15670TIP3    H268502   2.680   5.161  17.298 -0.1411 -0.1301 -0.0694
15671TIP3   OH268503   4.159   1.689  16.209  0.0604  0.2060  0.0939
15671TIP3    H168504   4.174   1.738  16.128 -1.1273 -0.0900 -0.3108
15671TIP3    H268505   4.243   1.645  16.226  0.1082 -0.2722 -1.3485
15672TIP3   OH268506   6.798   6.814   1.734 -0.5642  0.1410 -0.7655
15672TIP3    H168507   6.748   6.890   1.765  1.7365  1.0901  0.8041
15672TIP3    H268508   6.825   6.837   1.646 -1.0772  0.5409 -0.8187
15673TIP3   OH268509   6.344   1.597  10.560  0.5222 -0.7284 -0.0682
15673TIP3    H168510   6.313   1.609  10.470  0.4496  2.7444  0.3664
15673TIP3    H268511   6.439   1.592  10.552  0.5539  0.1327 -0.3053
15674TIP3   OH268512   1.143   2.492   4.629  0.3494  0.4202 -0.2999
15674TIP3    H168513   1.217   2.496   4.569  0.3727  0.0144 -0.3024
15674TIP3    H268514   1.101   2.408   4.609  0.2951  0.3310  0.1765
15675TIP3   OH268515   1.374   4.072  12.340  0.7712 -0.0702 -0.3347
15675TIP3    H168516   1.354   4.083  12.247  0.4259  2.9004  0.0358
15675TIP3    H268517   1.456   4.022  12.341 -0.7744 -2.7010 -2.1373
15676TIP3   OH268518   5.843   6.728  15.771 -0.3231 -0.7596  0.3603
15676TIP3    H168519   5.770   6.753  15.714  0.2902 -0.5545 -0.3421
15676TIP3    H268520   5.904   6.682  15.713  0.4855 -0.2111  0.7639
15677TIP3   OH268521   6.461   6.724  13.545 -0.4727 -0.3950  0.4821
15677TIP3    H168522   6.411   6.643  13.552 -1.8547  0.5225  1.5447
15677TIP3    H268523   6.527   6.718  13.614  0.2282 -1.1490 -0.2445
15678TIP3   OH268524   1.247   2.189  16.600  0.7184  0.0859 -0.2188
15678TIP3    H168525   1.254   2.200  16.505  1.9708 -1.7936 -0.3599
15678TIP3    H268526   1.306   2.117  16.621 -1.0548 -0.8724  1.7206
15679TIP3   OH268527   5.941   3.269  15.991 -0.1476 -0.2971  0.1072
15679TIP3    H168528   5.944   3.211  16.066  2.0190 -0.0925  0.2061
15679TIP3    H268529   5.867   3.238  15.939 -0.9605 -1.1351  1.7496
15680TIP3   OH268530   2.995   3.258  13.650 -0.4673 -0.7729  0.0893
15680TIP3    H168531   2.961   3.341  13.618 -0.4881 -1.4875 -1.8344
15680TIP3    H268532   2.932   3.231  13.717 -0.3077  0.8803  0.9319
15681TIP3   OH268533   4.254   2.088  13.950 -0.6060  0.1170 -0.2858
15681TIP3    H168534   4.290   2.136  14.025 -0.7367  0.7613 -0.6333
15681TIP3    H268535   4.251   1.997  13.979 -0.4166  0.3277  0.4026
15682TIP3   OH268536   6.289   6.005  17.290 -0.4433  0.7393  0.1456
15682TIP3    H168537   6.346   6.082  17.292  0.0225  0.4852 -2.0124
15682TIP3    H268538   6.202   6.040  17.275 -0.5942  0.9950  1.5487
15683TIP3   OH268539   1.283   1.086  11.570 -0.2014  0.1055 -0.1419
15683TIP3    H168540   1.196   1.046  11.565 -2.2980  4.3405  0.6107
15683TIP3    H268541   1.320   1.051  11.651 -1.8948 -0.4507  0.4190
15684TIP3   OH268542   0.884   5.050  11.112  0.2476 -0.2511  0.0339
15684TIP3    H168543   0.926   4.969  11.084  0.6569 -0.2868  0.7344
15684TIP3    H268544   0.790   5.034  11.104  0.3704  0.1788 -2.5435
15685TIP3   OH268545   3.685   4.992  11.910 -0.6195 -0.5070  0.0330
15685TIP3    H168546   3.770   4.956  11.933 -0.5502  0.0110  0.6023
15685TIP3    H268547   3.640   4.920  11.865 -0.3047 -1.1518  0.7357
15686TIP3   OH268548   2.716   6.444  17.235  0.3692 -0.4241  0.2938
15686TIP3    H168549   2.640   6.437  17.292  1.0358 -3.9931  0.8734
15686TIP3    H268550   2.774   6.373  17.263  2.7565  0.5772 -1.8494
15687TIP3   OH268551   2.674   4.275   4.738  0.2752  0.1069 -0.3467
15687TIP3    H168552   2.716   4.344   4.686  0.1646 -0.2888 -0.9696
15687TIP3    H268553   2.683   4.196   4.684  0.4628 -0.3762  0.3922
15688TIP3   OH268554   0.865   6.714  15.263 -0.3181  0.1186 -0.2003
15688TIP3    H168555   0.785   6.669  15.290 -0.4268  0.0716 -0.6068
15688TIP3    H268556   0.857   6.801  15.302 -0.2048 -0.1400  0.4094
15689TIP3   OH268557   2.193   1.556   4.323  0.4646 -0.1176 -0.0547
15689TIP3    H168558   2.228   1.509   4.247 -1.0446 -0.9500 -0.2441
15689TIP3    H268559   2.236   1.516   4.398 -0.1186 -1.1838 -0.2800
15690TIP3   OH268560   1.665   2.805   2.408 -0.0650  0.1449 -0.4124
15690TIP3    H168561   1.591   2.809   2.347 -2.1489 -0.1607  1.9783
15690TIP3    H268562   1.658   2.885   2.459 -0.4122 -1.1681  1.6478
15691TIP3   OH268563   4.057   0.674   5.636  0.3409 -0.8401  0.2875
15691TIP3    H168564   4.033   0.763   5.661 -0.5052 -1.1403  0.5690
15691TIP3    H268565   4.083   0.632   5.718  0.8918 -0.8014  0.1289
15692TIP3   OH268566   4.081   2.402  12.638  0.2235 -0.1526 -0.0910
15692TIP3    H168567   4.064   2.440  12.551  1.2952 -0.5964 -0.4991
15692TIP3    H268568   4.141   2.464  12.679 -1.8354  1.1010  1.1214
15693TIP3   OH268569   0.744   6.019   5.922  0.3830 -0.3711  0.1398
15693TIP3    H168570   0.769   5.964   5.997  0.8374  0.4707  0.6069
15693TIP3    H268571   0.820   6.017   5.864 -0.6329 -2.5146 -1.2017
15694TIP3   OH268572   4.637   3.472   0.318 -0.1656  0.2003  0.4737
15694TIP3    H168573   4.642   3.416   0.396 -1.0479  0.3938  0.6736
15694TIP3    H268574   4.569   3.432   0.263  0.3338  0.1624 -0.1187
15695TIP3   OH268575   2.049   1.103  14.660  0.4672  0.1560 -0.4868
15695TIP3    H168576   2.063   1.015  14.693  0.1567  0.2548 -0.0858
15695TIP3    H268577   1.990   1.092  14.586 -0.8996  0.1824  0.5744
15696TIP3   OH268578   0.149   1.873  15.422  0.1545  0.6394  0.2457
15696TIP3    H168579   0.128   1.926  15.499 -2.4799  0.3056 -0.2327
15696TIP3    H268580   0.148   1.935  15.349 -0.3419  0.4127  0.0571
15697TIP3   OH268581   3.029   3.689   2.665  0.1783  0.2600 -0.3715
15697TIP3    H168582   3.069   3.750   2.728 -0.4178  0.1487  0.1187
15697TIP3    H268583   3.099   3.671   2.603  0.5474  0.9750 -0.1784
15698TIP3   OH268584   4.472   5.964  14.708  0.0810 -0.2242 -0.0882
15698TIP3    H168585   4.407   5.992  14.644  1.9778  0.4285 -1.7946
15698TIP3    H268586   4.426   5.963  14.791 -2.1405  0.0313 -1.2911
15699TIP3   OH268587   3.309   5.510   0.798 -0.0380  0.1976  0.0977
15699TIP3    H168588   3.305   5.603   0.774 -1.3023 -0.0720 -0.7385
15699TIP3    H268589   3.312   5.463   0.715  0.6938 -0.5282  0.5213
15700TIP3   OH268590   3.838   6.415  11.528  0.1714  0.4311  0.2607
15700TIP3    H168591   3.781   6.426  11.603 -0.2239 -0.1957  0.0572
15700TIP3    H268592   3.925   6.401  11.566  0.0501  0.5648  0.5882
15701TIP3   OH268593   3.023   5.536   2.507  0.0437  0.1148 -0.1544
15701TIP3    H168594   3.106   5.510   2.546 -0.4292 -1.6891 -0.3456
15701TIP3    H268595   3.047   5.597   2.437  1.3284 -1.7446 -1.3586
15702TIP3   OH268596   5.212   6.768  15.247 -0.3708  0.0032  0.2512
15702TIP3    H168597   5.126   6.801  15.273  0.2485  1.1080  0.9471
15702TIP3    H268598   5.209   6.769  15.151 -0.9906  0.4211  0.2685
15703TIP3   OH268599   0.696   1.267   4.182  0.0942 -0.0853  0.1996
15703TIP3    H168600   0.788   1.252   4.202  0.2909  0.6330 -0.1290
15703TIP3    H268601   0.660   1.180   4.165  0.5764 -0.4202  0.8926
15704TIP3   OH268602   5.395   3.322   1.287  0.2871 -0.1693  0.1350
15704TIP3    H168603   5.405   3.319   1.192 -0.9452 -0.0062 -0.0036
15704TIP3    H268604   5.305   3.294   1.303  0.5322 -0.3407  1.2669
15705TIP3   OH268605   4.914   4.613   1.664 -0.5174  0.0997 -0.2186
15705TIP3    H168606   4.870   4.689   1.704  1.5978  0.2650  1.8849
15705TIP3    H268607   4.886   4.616   1.572 -1.1883  2.9187  0.0109
15706TIP3   OH268608   0.786   1.465  14.668  0.1623 -0.6165 -0.4034
15706TIP3    H168609   0.854   1.520  14.707 -0.3314 -0.1875 -0.1486
15706TIP3    H268610   0.834   1.393  14.628  0.7916 -0.1772 -0.4486
15707TIP3   OH268611   2.073   4.206   1.123 -0.4481  0.0455 -0.3099
15707TIP3    H168612   2.068   4.265   1.198  0.6077 -0.4590  0.1705
15707TIP3    H268613   1.982   4.188   1.101 -0.8245 -1.4103  2.1490
15708TIP3   OH268614   5.752   3.473  13.669 -0.4380 -0.6604 -0.1253
15708TIP3    H168615   5.673   3.524  13.650 -0.6197 -0.6412  0.6580
15708TIP3    H268616   5.772   3.494  13.760  0.1645 -1.0828 -0.1606
15709TIP3   OH268617   0.896   2.586  14.966 -0.0722 -0.5790  0.4172
15709TIP3    H168618   0.819   2.639  14.988 -0.1783 -1.2683  1.7499
15709TIP3    H268619   0.965   2.651  14.948 -0.9874  0.0403 -0.9350
15710TIP3   OH268620   5.628   1.342  11.714 -0.4359 -0.4370  0.1503
15710TIP3    H168621   5.566   1.353  11.642 -0.5496  0.1908  0.3429
15710TIP3    H268622   5.574   1.345  11.793 -0.2854 -0.9166  0.2758
15711TIP3   OH268623   3.098   2.226   1.832  0.2649 -0.4550 -0.5190
15711TIP3    H168624   3.088   2.319   1.809 -0.2716 -0.5755 -0.7902
15711TIP3    H268625   3.102   2.181   1.748  1.3767 -0.5982 -0.3911
15712TIP3   OH268626   0.998   2.032   3.797  0.2691  0.7186 -0.0655
15712TIP3    H168627   0.932   1.971   3.831  0.4917 -0.0337 -0.9840
15712TIP3    H268628   1.010   2.096   3.868 -0.4950  0.1150  0.6139
15713TIP3   OH268629   0.476   4.422   3.641 -0.0495  0.4539 -0.1649
15713TIP3    H168630   0.571   4.419   3.634 -0.0660  1.2077 -0.8615
15713TIP3    H268631   0.460   4.484   3.712 -0.0123 -0.0534  0.2854
15714TIP3   OH268632   5.608   0.240   3.814  0.1426  0.3490 -0.4245
15714TIP3    H168633   5.607   0.188   3.734 -0.7067  0.5983 -0.5901
15714TIP3    H268634   5.515   0.261   3.830  0.2777  0.0585  0.7826
15715TIP3   OH268635   2.268   4.943  14.801  0.2757  0.7225  0.4769
15715TIP3    H168636   2.314   4.863  14.776 -1.3635 -0.8483  2.3451
15715TIP3    H268637   2.318   4.978  14.875  0.5428  1.0304  0.1563
15716TIP3   OH268638   0.557   3.226  14.424  0.4178 -0.5304 -0.1588
15716TIP3    H168639   0.585   3.144  14.384 -0.0967 -1.3150  1.0641
15716TIP3    H268640   0.474   3.205  14.467  0.8149  0.3475  1.0743
15717TIP3   OH268641   4.732   6.322   5.490 -0.2745 -0.3978  0.4921
15717TIP3    H168642   4.670   6.260   5.529  0.9482 -2.0561 -0.1201
15717TIP3    H268643   4.801   6.267   5.453  0.0170  1.2641 -1.5461
15718TIP3   OH268644   4.264   0.945  15.573  0.3536  0.4922 -0.5267
15718TIP3    H168645   4.293   0.965  15.484  0.6371 -0.5296 -0.6762
15718TIP3    H268646   4.331   0.984  15.630  0.3830  0.8012 -0.7720
15719TIP3   OH268647   5.733   2.066   5.716 -0.1807  0.0979 -0.3350
15719TIP3    H168648   5.703   2.022   5.637 -1.0403 -1.9535  1.1065
15719TIP3    H268649   5.660   2.121   5.743 -0.5802 -0.6550  0.1007
15720TIP3   OH268650   0.039   0.202  13.137  0.3862 -0.2594  0.0028
15720TIP3    H168651   0.092   0.128  13.166  0.8538 -0.1116 -0.4728
15720TIP3    H268652   0.051   0.204  13.042  1.1892  1.0386  0.1206
15721TIP3   OH268653   1.971   4.644  15.653 -0.1723  0.2276 -0.4170
15721TIP3    H168654   2.022   4.724  15.661 -0.4158  0.3226  0.2772
15721TIP3    H268655   2.029   4.575  15.685 -0.6372  0.4030  0.8393
15722TIP3   OH268656   1.575   5.973   1.011  0.0405 -0.8646 -0.1865
15722TIP3    H168657   1.506   6.026   0.971 -0.6358 -1.7917 -0.2721
15722TIP3    H268658   1.604   6.024   1.086 -0.7031 -0.4401 -0.1792
15723TIP3   OH268659   3.711   3.601  12.374 -0.0914 -0.2906  0.0269
15723TIP3    H168660   3.635   3.654  12.396 -0.2926  0.3629 -2.0764
15723TIP3    H268661   3.697   3.577  12.282  1.6553 -1.1666 -0.0305
15724TIP3   OH268662   3.360   0.412   6.058 -0.3964  0.3741  0.0020
15724TIP3    H168663   3.392   0.342   6.001  0.2491  0.5586  0.1347
15724TIP3    H268664   3.438   0.462   6.081 -0.3755 -0.7338  2.4725
15725TIP3   OH268665   5.835   6.358  14.658  0.3827  0.2310 -0.1200
15725TIP3    H168666   5.902   6.332  14.595 -2.1091 -1.7844 -2.0477
15725TIP3    H268667   5.798   6.438  14.621 -0.3924 -0.3912 -0.6988
15726TIP3   OH268668   2.722   0.727   0.204  0.4198 -0.0545 -0.2715
15726TIP3    H168669   2.675   0.647   0.182 -0.4252  0.6175 -0.9733
15726TIP3    H268670   2.703   0.741   0.297  1.2483 -1.0987  0.0670
15727TIP3   OH268671   2.444   4.337   2.422 -0.1942 -0.0855  0.4229
15727TIP3    H168672   2.359   4.301   2.395 -0.1028  0.5213 -0.6929
15727TIP3    H268673   2.467   4.287   2.501 -2.3478  0.8123  1.6810
15728TIP3   OH268674   0.737   5.634  14.962  0.7455 -0.4092 -0.0993
15728TIP3    H168675   0.774   5.588  15.038  1.1716  2.0261  1.2042
15728TIP3    H268676   0.654   5.588  14.945  1.4911 -2.1030  0.7017
15729TIP3   OH268677   0.593   0.830   4.093  0.0999  0.0323 -0.0314
15729TIP3    H168678   0.553   0.916   4.083 -0.0038  0.1610  1.3697
15729TIP3    H268679   0.668   0.831   4.034 -0.4594  0.7287 -0.7373
15730TIP3   OH268680   3.776   6.809  16.683 -0.0671 -0.2953 -0.0919
15730TIP3    H168681   3.791   6.758  16.603  1.3770 -0.1958  0.1023
15730TIP3    H268682   3.833   6.768  16.748 -2.6523 -1.5917  1.4247
15731TIP3   OH268683   2.106   2.627   5.304  0.3341  0.1481  0.3810
15731TIP3    H168684   2.070   2.592   5.222  1.5424  0.7962 -0.4489
15731TIP3    H268685   2.101   2.722   5.293  0.3619  0.2377  1.1327
15732TIP3   OH268686   3.882   4.671   0.170 -0.2463  0.1397 -0.4344
15732TIP3    H168687   3.794   4.653   0.137 -0.0332 -0.5096 -0.6505
15732TIP3    H268688   3.889   4.619   0.250 -1.0210  2.2590  1.0661
15733TIP3   OH268689   2.853   2.479   3.259  0.2316 -0.3550 -0.1803
15733TIP3    H168690   2.908   2.478   3.180 -0.0444  0.3983 -0.3846
15733TIP3    H268691   2.910   2.446   3.328  0.4500 -1.0990 -0.7145
15734TIP3   OH268692   3.285   6.654   0.645 -0.4886  0.8339  0.6693
15734TIP3    H168693   3.377   6.664   0.622  0.0044 -0.5612  1.9427
15734TIP3    H268694   3.248   6.601   0.574  0.3850 -1.0909  1.6070
15735TIP3   OH268695   5.530   2.917   0.583 -0.5743 -0.4038  0.1047
15735TIP3    H168696   5.620   2.890   0.566 -0.7322 -0.6926 -0.2631
15735TIP3    H268697   5.537   2.975   0.660 -0.2618 -1.5724  0.9620
15736TIP3   OH268698   5.273   2.865  16.051  0.4600 -0.2560 -0.0960
15736TIP3    H168699   5.354   2.896  16.010 -0.7328  1.9797 -0.8283
15736TIP3    H268700   5.203   2.902  15.997 -1.0900 -0.3926  1.7633
15737TIP3   OH268701   5.196   4.500  14.688 -0.0912  0.0331 -0.6061
15737TIP3    H168702   5.167   4.539  14.770  0.5084 -0.8283  0.0287
15737TIP3    H268703   5.116   4.485  14.638 -0.3893  1.2651 -0.4943
15738TIP3   OH268704   6.499   4.679   1.978 -0.2893  0.3100 -0.2188
15738TIP3    H168705   6.479   4.680   1.885  3.3426  2.8437 -1.0962
15738TIP3    H268706   6.566   4.611   1.988  0.9656  1.5460  0.0687
15739TIP3   OH268707   5.426   2.912  13.752  0.0159  0.2318 -0.5087
15739TIP3    H168708   5.508   2.957  13.774  0.1036  0.0756 -0.5145
15739TIP3    H268709   5.421   2.914  13.657 -1.2617  2.4932 -0.4147
15740TIP3   OH268710   5.324   5.981   1.324 -0.4728  0.1921 -0.5618
15740TIP3    H168711   5.242   6.028   1.336 -0.5026 -0.0514  0.2657
15740TIP3    H268712   5.322   5.950   1.234  0.2248  3.0744 -1.6258
15741TIP3   OH268713   0.610   2.299  16.534 -0.1064  0.2896  0.0124
15741TIP3    H168714   0.519   2.312  16.505  0.2604 -0.8882 -1.7735
15741TIP3    H268715   0.627   2.207  16.516  1.5086  0.5528  0.1788
15742TIP3   OH268716   3.283   5.663   2.573  0.1750 -0.3297 -0.2675
15742TIP3    H168717   3.257   5.589   2.518 -0.1306 -0.8065  0.5011
15742TIP3    H268718   3.378   5.669   2.562  0.3099 -1.3409  0.2678
15743TIP3   OH268719   1.354   5.982  13.464 -0.5369 -0.0022 -0.2006
15743TIP3    H168720   1.393   5.917  13.405 -0.0170  1.5041 -1.5608
15743TIP3    H268721   1.326   5.932  13.540  0.3160 -1.7407 -1.0062
15744TIP3   OH268722   3.015   2.557   2.050  0.1119 -0.6007  0.1247
15744TIP3    H168723   3.105   2.590   2.055 -0.7389  1.7104  0.7794
15744TIP3    H268724   3.018   2.473   2.095  1.8476 -0.3184  0.5800
15745TIP3   OH268725   1.595   1.127   1.582 -0.2347  0.0113  0.1863
15745TIP3    H168726   1.626   1.218   1.578  1.1238 -0.4040  1.1312
15745TIP3    H268727   1.534   1.126   1.656  0.2521  0.0076  0.5901
15746TIP3   OH268728   2.351   6.269  15.608 -0.3930 -0.1923 -0.1864
15746TIP3    H168729   2.381   6.338  15.668 -3.3444  1.6770 -0.7618
15746TIP3    H268730   2.368   6.304  15.521  1.9170 -2.0088 -0.5135
15747TIP3   OH268731   6.399   5.724  12.412  0.4501  0.0362 -0.0897
15747TIP3    H168732   6.335   5.729  12.341 -1.9196 -3.4555  1.6627
15747TIP3    H268733   6.378   5.798  12.468 -1.0582 -0.1521 -0.3778
15748TIP3   OH268734   3.716   5.048  12.361  0.0578  0.6245 -0.3668
15748TIP3    H168735   3.724   5.000  12.278 -0.8256  0.7777 -0.5459
15748TIP3    H268736   3.801   5.037  12.403  0.3739  0.1853 -1.1024
15749TIP3   OH268737   5.276   6.147  16.575 -0.3325 -0.2689  0.4114
15749TIP3    H168738   5.270   6.067  16.522 -2.1788  0.1742 -0.1055
15749TIP3    H268739   5.267   6.116  16.665 -0.0584 -0.7470  0.2783
15750TIP3   OH268740   0.743   4.632  15.482 -0.1105  0.5059 -0.1911
15750TIP3    H168741   0.796   4.553  15.469  1.8199  1.5659  1.0029
15750TIP3    H268742   0.761   4.686  15.405 -0.8498  0.1213 -0.6424
15751TIP3   OH268743   6.260   4.638   0.900 -0.6210  0.0379  0.0037
15751TIP3    H168744   6.226   4.549   0.888 -1.4109  0.5268 -1.5098
15751TIP3    H268745   6.335   4.627   0.958 -0.8875 -1.5791  0.0745
15752TIP3   OH268746   0.108   2.739  11.487  0.5577  0.1706 -0.2585
15752TIP3    H168747   0.135   2.650  11.463  0.8654  0.2233 -0.1057
15752TIP3    H268748   0.188   2.781  11.518  0.1722  0.1012  0.8668
15753TIP3   OH268749   5.520   2.364  12.925 -0.0546  0.4131 -0.0238
15753TIP3    H168750   5.525   2.345  13.019 -2.8130  0.8666  0.2456
15753TIP3    H268751   5.527   2.278  12.883 -5.2256 -0.6300  0.9160
15754TIP3   OH268752   5.814   4.400  14.396 -0.0561  0.6823 -0.0682
15754TIP3    H168753   5.818   4.360  14.483 -2.3077 -1.7306 -1.0172
15754TIP3    H268754   5.879   4.353  14.344  0.5380  1.4007  0.0141
15755TIP3   OH268755   3.942   6.506   6.254 -0.4531  0.1895  0.0132
15755TIP3    H168756   3.902   6.433   6.301  0.4716  1.3299  2.7028
15755TIP3    H268757   3.936   6.580   6.315 -0.6461  2.1727 -2.3218
15756TIP3   OH268758   1.899   0.972  16.985 -0.5184 -0.5061  0.2958
15756TIP3    H168759   1.908   1.032  17.059  0.9524 -1.6643  1.0921
15756TIP3    H268760   1.812   0.989  16.951  0.3996  3.2127 -0.4905
15757TIP3   OH268761   4.336   5.865   1.984  0.3325 -0.4835  0.3849
15757TIP3    H168762   4.359   5.916   1.907 -0.2782 -0.3758  0.2672
15757TIP3    H268763   4.242   5.879   1.995  0.2912 -1.0153  0.7692
15758TIP3   OH268764   4.737   2.140   2.485 -0.4602  0.4656  0.2004
15758TIP3    H168765   4.737   2.101   2.573  1.5412  0.0106  0.0055
15758TIP3    H268766   4.765   2.069   2.427 -4.3113 -0.0446 -1.2312
15759TIP3   OH268767   3.895   0.190  11.365 -0.7503 -0.0426 -0.0795
15759TIP3    H168768   3.977   0.239  11.351 -1.5500  1.6043  0.8043
15759TIP3    H268769   3.858   0.180  11.277 -1.0717  1.8805 -0.2035
15760TIP3   OH268770   2.411   2.023   1.893  0.5780  0.0097 -0.2549
15760TIP3    H168771   2.470   1.962   1.937  0.7121  0.3623  0.0621
15760TIP3    H268772   2.356   1.968   1.837 -0.2639 -0.5557  1.1009
15761TIP3   OH268773   2.930   5.254  14.538 -0.2543  0.2722 -0.2449
15761TIP3    H168774   3.012   5.274  14.492  0.8589 -1.3695  0.9787
15761TIP3    H268775   2.862   5.296  14.485  1.2059  0.2068 -2.2396
15762TIP3   OH268776   4.421   3.192  12.265 -0.1378 -0.1869 -0.1398
15762TIP3    H168777   4.422   3.245  12.345 -0.9862  0.2159 -0.3922
15762TIP3    H268778   4.476   3.240  12.204  0.2219 -0.3120  0.0846
15763TIP3   OH268779   2.649   6.569   1.306 -0.6783 -0.2606 -0.2513
15763TIP3    H168780   2.624   6.564   1.399 -0.5846  2.1261 -0.0761
15763TIP3    H268781   2.656   6.477   1.279  0.2520 -1.0214  2.3595
15764TIP3   OH268782   3.240   1.618   0.427 -0.0487 -0.2867  0.5179
15764TIP3    H168783   3.266   1.546   0.485 -1.2495  0.0194  1.4568
15764TIP3    H268784   3.179   1.579   0.365 -0.6030 -0.1104  0.9488
15765TIP3   OH268785   5.321   3.647   0.683 -0.5095 -0.0125 -0.0557
15765TIP3    H168786   5.395   3.593   0.657 -0.3103  0.1319  0.2137
15765TIP3    H268787   5.255   3.583   0.713 -0.2842 -0.1064  0.2376
15766TIP3   OH268788   2.753   5.356  11.840  0.1639 -0.5266 -0.0538
15766TIP3    H168789   2.689   5.400  11.895  2.6665  1.8887  1.0870
15766TIP3    H268790   2.707   5.280  11.805 -2.8060  0.2724  1.9124
15767TIP3   OH268791   0.433   2.788   4.902 -0.6264  0.3189 -0.2524
15767TIP3    H168792   0.388   2.868   4.875 -0.4899  0.3806 -0.2990
15767TIP3    H268793   0.523   2.816   4.919 -0.2177 -0.0804 -1.6467
15768TIP3   OH268794   5.440   1.088   3.165  0.1839 -0.5742 -0.3792
15768TIP3    H168795   5.452   0.994   3.171  0.1780 -0.5591 -0.1266
15768TIP3    H268796   5.400   1.102   3.079 -1.6044 -0.9920  0.3541
15769TIP3   OH268797   3.327   3.353  11.214 -0.2795 -0.2043  0.6305
15769TIP3    H168798   3.291   3.293  11.279 -2.5218  0.1036 -0.2614
15769TIP3    H268799   3.304   3.315  11.130  2.0537 -0.2791 -0.0030
15770TIP3   OH268800   5.416   0.296   2.134  0.1430  0.2598  0.5748
15770TIP3    H168801   5.492   0.352   2.150  0.7269 -0.7454  1.4271
15770TIP3    H268802   5.432   0.258   2.048  2.0033 -2.0395  1.8416
15771TIP3   OH268803   5.057   6.429   4.907  0.5498  0.6708  0.7596
15771TIP3    H168804   4.994   6.410   4.976  1.3349 -0.0812  1.2837
15771TIP3    H268805   5.044   6.359   4.843 -0.5321  1.6539 -0.1212
15772TIP3   OH268806   4.373   2.337  12.520  0.2689  0.3024 -0.7498
15772TIP3    H168807   4.452   2.386  12.498 -0.6222  2.4054  0.6495
15772TIP3    H268808   4.307   2.370  12.460 -0.2291  0.5066 -0.0884
15773TIP3   OH268809   6.711   2.713   0.098  0.4576 -0.2311  0.1411
15773TIP3    H168810   6.628   2.751   0.125 -0.2876 -1.3205 -0.5925
15773TIP3    H268811   6.750   2.679   0.178 -0.1794 -0.4439  0.3623
15774TIP3   OH268812   0.600   3.625  13.723  0.1178 -0.9032 -0.3119
15774TIP3    H168813   0.524   3.570  13.742  0.5102 -1.1486  0.5924
15774TIP3    H268814   0.671   3.564  13.704 -0.3622 -0.6558 -3.0950
15775TIP3   OH268815   4.982   4.874  15.426  0.1745 -0.0818  0.2026
15775TIP3    H168816   4.908   4.876  15.486  1.2310  0.5486  1.4966
15775TIP3    H268817   5.049   4.823  15.471 -0.2561 -2.6284 -1.9141
15776TIP3   OH268818   5.815   4.635  15.899  0.0649  0.1206 -0.3735
15776TIP3    H168819   5.860   4.717  15.879  1.8097 -0.7700 -0.2634
15776TIP3    H268820   5.833   4.579  15.824  1.7250 -1.2705  1.0016
15777TIP3   OH268821   3.818   2.769  10.406  0.0962 -0.0821 -0.1422
15777TIP3    H168822   3.731   2.807  10.415  0.0729  0.2355 -1.5635
15777TIP3    H268823   3.805   2.675  10.417 -0.3108  0.0420  0.4058
15778TIP3   OH268824   4.984   5.079  13.826  0.2591 -0.1080  0.0869
15778TIP3    H168825   4.934   5.136  13.767 -0.7778 -1.6336 -0.5307
15778TIP3    H268826   5.063   5.130  13.846 -1.2241  2.0755  0.6035
15779TIP3   OH268827   6.492   1.305  10.572  0.1865 -0.4039  0.2586
15779TIP3    H168828   6.536   1.376  10.525  1.2285 -1.4830 -0.4313
15779TIP3    H268829   6.563   1.246  10.597 -0.7944 -1.8750 -0.3383
15780TIP3   OH268830   4.284   4.681   5.093  0.1032  0.0524  0.5162
15780TIP3    H168831   4.239   4.605   5.054  0.6681  1.1759 -2.4849
15780TIP3    H268832   4.371   4.679   5.053  1.4201  0.1324  3.3254
15781TIP3   OH268833   2.231   6.554   4.059  0.5014  0.1459 -0.1719
15781TIP3    H168834   2.192   6.607   4.129  0.1314 -0.0875 -0.2029
15781TIP3    H268835   2.257   6.472   4.102  0.6054  0.1463 -0.2339
15782TIP3   OH268836   1.541   0.699  10.381 -0.3102  0.4795 -0.1030
15782TIP3    H168837   1.610   0.737  10.435  0.7830  0.7383 -1.6489
15782TIP3    H268838   1.588   0.652  10.312 -1.6765 -0.5850 -0.3257
15783TIP3   OH268839   6.024   3.133   4.234  0.5511  0.0946 -0.3713
15783TIP3    H168840   5.928   3.144   4.229  0.5207  0.8715  1.4681
15783TIP3    H268841   6.038   3.039   4.227 -0.5113 -0.2130  1.3056
15784TIP3   OH268842   4.595   2.492   1.248  0.7450  0.3606  0.8386
15784TIP3    H168843   4.585   2.550   1.172 -1.6824  2.0320  2.3722
15784TIP3    H268844   4.537   2.419   1.231  0.5807  0.4916  0.8287
15785TIP3   OH268845   6.333   5.762  14.804  0.5056 -0.2017 -0.3801
15785TIP3    H168846   6.420   5.724  14.788  0.7680 -0.7160  2.0775
15785TIP3    H268847   6.341   5.806  14.889 -1.2648  0.9013 -0.7683
15786TIP3   OH268848   6.470   3.123  11.478 -0.2911 -0.1567 -0.1653
15786TIP3    H168849   6.500   3.045  11.525 -1.1934  0.7470  1.9971
15786TIP3    H268850   6.527   3.130  11.402  0.0204 -2.7197 -0.1860
15787TIP3   OH268851   6.205   6.240  13.445 -0.3749 -0.6860 -0.5784
15787TIP3    H168852   6.258   6.237  13.365  1.1598  1.0269  0.3349
15787TIP3    H268853   6.261   6.200  13.512  0.1636  1.9539  0.5949
15788TIP3   OH268854   0.016   1.500  12.638  0.7113  0.2964  0.0773
15788TIP3    H168855   0.094   1.486  12.583  1.2292  2.1113  0.3211
15788TIP3    H268856   0.046   1.481  12.727  0.3139 -1.0148 -0.0593
15789TIP3   OH268857   6.060   1.069   0.005 -0.6362  0.6630  0.3955
15789TIP3    H168858   6.142   1.027  -0.021 -1.2047  0.9354 -1.9536
15789TIP3    H268859   6.086   1.135   0.069  0.9353  0.5414 -0.0973
15790TIP3   OH268860   4.905   1.777  14.139 -0.0751 -0.4369  0.2425
15790TIP3    H168861   4.858   1.794  14.057  1.6491 -1.4490 -0.9822
15790TIP3    H268862   4.920   1.864  14.177 -2.0907 -0.0510  0.1906
15791TIP3   OH268863   2.782   1.789   2.208  0.2607 -0.0425 -0.5879
15791TIP3    H168864   2.797   1.718   2.271  0.1086  0.0315 -0.4695
15791TIP3    H268865   2.815   1.867   2.252 -1.8586  0.3900  0.2970
15792TIP3   OH268866   0.381   1.190   5.271  0.1237 -0.4603  0.4618
15792TIP3    H168867   0.301   1.221   5.313  1.0481 -0.6586  2.4133
15792TIP3    H268868   0.445   1.259   5.287  0.9552 -1.3157  0.8601
15793TIP3   OH268869   0.751   3.161   1.644  0.0283  0.0647  0.3251
15793TIP3    H168870   0.662   3.187   1.669 -1.1302 -2.6230 -0.8595
15793TIP3    H268871   0.808   3.220   1.694 -2.4068  2.6229  0.2238
15794TIP3   OH268872   1.471   5.686   1.018 -0.6557  0.5797 -0.1931
15794TIP3    H168873   1.464   5.780   1.037 -2.7755  0.3092  0.3917
15794TIP3    H268874   1.387   5.649   1.045  0.8151 -1.7999  1.2973
15795TIP3   OH268875   2.482   5.737  14.258 -0.0672 -0.1710 -0.2162
15795TIP3    H168876   2.537   5.791  14.202 -1.2026  0.4800 -0.7308
15795TIP3    H268877   2.471   5.655  14.210 -0.7120  0.2386 -0.7864
15796TIP3   OH268878   4.168   5.275   1.043  0.0408 -0.4794 -0.1395
15796TIP3    H168879   4.073   5.265   1.052  0.1774 -1.1356  0.7611
15796TIP3    H268880   4.191   5.223   0.966 -0.3119 -0.4325 -0.2764
15797TIP3   OH268881   6.724   1.178  10.665 -0.0673 -0.2075  0.3216
15797TIP3    H168882   6.730   1.130  10.582  1.5569  0.2597  0.1516
15797TIP3    H268883   6.774   1.125  10.727 -0.9146 -0.3294  0.9185
15798TIP3   OH268884   5.001   1.482  12.049  0.2329 -0.6605  0.5110
15798TIP3    H168885   4.943   1.534  11.992 -0.9712  0.8620  3.0253
15798TIP3    H268886   5.070   1.451  11.991 -1.1519  0.5291 -1.8556
15799TIP3   OH268887   4.277   4.764  11.915  0.6019 -0.1927  0.0464
15799TIP3    H168888   4.340   4.701  11.951 -0.1590  0.3298  2.3454
15799TIP3    H268889   4.306   4.777  11.825  0.5336 -4.1581 -0.6375
15800TIP3   OH268890   2.370   6.055   4.890 -0.2311  0.0081  0.1326
15800TIP3    H168891   2.304   6.011   4.943  0.4252 -0.5314  0.5128
15800TIP3    H268892   2.378   6.142   4.929 -0.8773  0.1551 -0.0563
15801TIP3   OH268893   2.427   1.977  15.476 -0.2756 -0.2944 -0.1030
15801TIP3    H168894   2.459   1.890  15.453 -1.3930 -0.4111 -1.2729
15801TIP3    H268895   2.492   2.037  15.440  1.0639 -0.6565  1.6418
15802TIP3   OH268896   6.119   0.492  14.345  0.0295 -0.1836  0.0121
15802TIP3    H168897   6.077   0.533  14.269 -0.9947  0.0514  0.6898
15802TIP3    H268898   6.072   0.529  14.420  0.1521 -1.4197  0.6967
15803TIP3   OH268899   2.630   1.803   1.654 -0.3783 -0.2039  0.2795
15803TIP3    H168900   2.565   1.780   1.721  0.3331  0.7588  1.3329
15803TIP3    H268901   2.711   1.816   1.703  0.4438 -0.6966 -0.9364
15804TIP3   OH268902   3.765   5.588   0.409 -0.3938 -0.0264 -0.0883
15804TIP3    H168903   3.799   5.542   0.486  0.2126  1.4534  0.5629
15804TIP3    H268904   3.828   5.568   0.340 -0.4745 -0.6754  0.0249
15805TIP3   OH268905   2.115   2.337   5.050  0.1982  0.5707  0.2641
15805TIP3    H168906   2.142   2.263   5.104  1.9554 -0.9793 -2.6274
15805TIP3    H268907   2.191   2.395   5.047  0.0018  0.8084 -0.2436
15806TIP3   OH268908   2.778   2.563   5.714 -0.1819 -0.1329  0.2142
15806TIP3    H168909   2.691   2.554   5.674 -0.0820 -0.5735  0.0889
15806TIP3    H268910   2.807   2.473   5.727 -0.2418  0.0073  1.3574
15807TIP3   OH268911   6.177   2.728  11.687  0.1656  0.2454  0.2362
15807TIP3    H168912   6.272   2.718  11.693  0.2431 -0.2782 -1.5999
15807TIP3    H268913   6.145   2.641  11.665 -0.6015  0.7128 -0.5410
15808TIP3   OH268914   5.106   2.367  13.325 -0.1990  0.1336 -0.5652
15808TIP3    H168915   5.164   2.429  13.369  0.0650 -0.2147 -0.4095
15808TIP3    H268916   5.020   2.384  13.363  0.1972 -0.8265  0.8316
15809TIP3   OH268917   3.608   2.279  14.861 -0.0919 -0.5139 -0.4525
15809TIP3    H168918   3.640   2.342  14.797  2.5117 -1.4020 -0.0844
15809TIP3    H268919   3.567   2.210  14.808  2.1847 -1.3236 -1.2167
15810TIP3   OH268920   2.178   5.476  15.558  0.0472 -0.0331  0.2973
15810TIP3    H168921   2.234   5.398  15.560 -0.1502 -0.1535  1.1675
15810TIP3    H268922   2.177   5.501  15.466  1.4548 -0.0938  0.2431
15811TIP3   OH268923   2.093   5.474   5.375 -1.2327 -0.1200 -0.6582
15811TIP3    H168924   2.062   5.531   5.446  4.2462  1.4202  0.7298
15811TIP3    H268925   2.123   5.395   5.419 -0.5333 -0.3925 -1.6037
15812TIP3   OH268926   2.635   4.108  14.989 -0.0080 -0.2226  0.5729
15812TIP3    H168927   2.727   4.082  14.981  0.5656  0.7138  3.4771
15812TIP3    H268928   2.636   4.177  15.055 -2.4039  2.1626 -1.7627
15813TIP3   OH268929   0.067   0.815  17.220  0.7651  0.2250 -0.0547
15813TIP3    H168930   0.115   0.742  17.258 -0.4123 -1.6764 -2.0739
15813TIP3    H268931  -0.009   0.826  17.277  0.5615 -0.6498 -0.1471
15814TIP3   OH268932   1.221   4.677  16.611 -0.7264 -0.2862  0.0596
15814TIP3    H168933   1.193   4.596  16.568 -0.1781  1.1854 -3.2384
15814TIP3    H268934   1.316   4.675  16.606 -0.7304  0.8189 -0.5446
15815TIP3   OH268935   2.703   2.001   4.016  0.6266  0.4959  0.2826
15815TIP3    H168936   2.681   1.994   3.923 -0.8271  1.0795  0.5872
15815TIP3    H268937   2.672   1.919   4.054  0.8410  0.4406  0.3422
15816TIP3   OH268938   4.707   4.700   2.800  0.3525 -0.5002 -0.7828
15816TIP3    H168939   4.773   4.768   2.785 -0.2649  0.3556  0.2926
15816TIP3    H268940   4.626   4.737   2.767 -0.3073 -0.0235  1.2618
15817TIP3   OH268941   5.634   3.582   0.688 -1.1053 -0.0834 -0.3307
15817TIP3    H168942   5.651   3.554   0.598 -1.9129  0.6184 -0.7052
15817TIP3    H268943   5.693   3.656   0.701  0.6935 -1.6113  0.5049
15818TIP3   OH268944   4.170   3.704  16.011 -1.0125  0.1224  0.0313
15818TIP3    H168945   4.114   3.645  16.062  0.6764 -2.3993 -0.9507
15818TIP3    H268946   4.115   3.731  15.937 -2.0966  0.5104  0.9645
15819TIP3   OH268947   0.290   4.364   5.576 -0.0032  0.1288  0.2455
15819TIP3    H168948   0.234   4.286   5.568  0.2796 -0.0018 -0.4910
15819TIP3    H268949   0.324   4.377   5.488  0.2150  0.8944  0.4474
15820TIP3   OH268950   1.084   5.954  11.664  0.1875  0.2959  1.0163
15820TIP3    H168951   1.010   5.924  11.717  0.6813 -1.5300  0.7265
15820TIP3    H268952   1.051   5.954  11.574  0.4005 -0.0937  0.9352
15821TIP3   OH268953   5.539   1.339  15.981  0.3252  0.1489  0.0185
15821TIP3    H168954   5.524   1.328  15.887 -0.6508 -0.9790  0.2879
15821TIP3    H268955   5.462   1.387  16.012  1.1747  1.5057  0.0644
15822TIP3   OH268956   3.763   0.281   2.051  0.5023  0.0193 -0.1667
15822TIP3    H168957   3.733   0.190   2.038  2.4887 -1.0886  2.5221
15822TIP3    H268958   3.851   0.282   2.014  0.8514  0.5805  0.6751
15823TIP3   OH268959   3.109   2.384   3.156  0.8388  0.0670  0.3660
15823TIP3    H168960   3.149   2.320   3.098  0.0509  0.4053 -0.5773
15823TIP3    H268961   3.179   2.412   3.214  1.1046 -1.9172  1.0368
15824TIP3   OH268962   4.381   5.446  15.928  0.1787  0.1646 -0.5397
15824TIP3    H168963   4.370   5.482  15.840  0.5324  1.9569  0.1293
15824TIP3    H268964   4.420   5.517  15.978 -0.3546 -0.7221  1.1683
15825TIP3   OH268965   0.921   2.913   6.034  0.4557 -0.5935 -0.2026
15825TIP3    H168966   0.945   2.912   6.127 -1.0445 -2.3811  0.1951
15825TIP3    H268967   0.836   2.868   6.031  1.2454 -1.9951 -2.6358
15826TIP3   OH268968   5.735   1.781   2.719 -0.8950  0.4983 -0.0156
15826TIP3    H168969   5.790   1.828   2.782 -1.2649  0.6313  0.2130
15826TIP3    H268970   5.795   1.751   2.651 -0.8871  2.8002 -1.0761
15827TIP3   OH268971   3.908   6.451   3.089 -0.4449 -0.0348 -0.1168
15827TIP3    H168972   3.868   6.527   3.046 -1.0358  0.3937  1.1481
15827TIP3    H268973   3.987   6.486   3.131 -0.4704 -0.2051  0.0762
15828TIP3   OH268974   6.278   2.654   5.089  0.3362  0.5587 -0.3304
15828TIP3    H168975   6.259   2.565   5.061 -0.5423  0.1456  1.5291
15828TIP3    H268976   6.275   2.705   5.008  1.1795 -1.1311 -1.4652
15829TIP3   OH268977   6.199   5.559   1.887  0.4233  0.6385  0.5997
15829TIP3    H168978   6.292   5.554   1.907  0.6574  0.7399 -0.4265
15829TIP3    H268979   6.184   5.490   1.822 -0.4549 -0.1436  1.6010
15830TIP3   OH268980   0.460   3.338   5.864 -0.3069  0.2127 -0.4010
15830TIP3    H168981   0.411   3.326   5.946  1.0522  0.1684  0.4095
15830TIP3    H268982   0.420   3.415   5.824 -0.3732  0.7945  0.7573
15831TIP3   OH268983   1.892   4.983  16.658  0.6702  0.3160 -0.4575
15831TIP3    H168984   1.895   4.911  16.720 -0.2610 -0.1034 -0.8880
15831TIP3    H268985   1.802   4.983  16.625  0.7766  1.3942 -0.7828
15832TIP3   OH268986   1.954   0.250   3.677  0.6190 -0.6042 -0.0224
15832TIP3    H168987   1.933   0.267   3.585  1.6809  0.3850 -0.0917
15832TIP3    H268988   1.970   0.156   3.681  3.6183 -0.2175 -1.5070
15833TIP3   OH268989   3.924   3.673  11.756  0.4870  0.0098 -0.0665
15833TIP3    H168990   3.997   3.663  11.816 -0.0508 -1.6317  0.3348
15833TIP3    H268991   3.957   3.730  11.686  2.2373 -1.0178 -0.0829
15834TIP3   OH268992   1.072   1.311  11.681  0.3846 -0.0871 -0.2409
15834TIP3    H168993   1.042   1.261  11.605  1.7223  0.3004 -1.0434
15834TIP3    H268994   1.145   1.260  11.717  0.1615  0.0455  0.4190
15835TIP3   OH268995   6.759   6.796  15.157 -0.4127 -0.0914 -0.2833
15835TIP3    H168996   6.759   6.879  15.110  1.9337  0.7137  1.0430
15835TIP3    H268997   6.852   6.775  15.168 -0.8730 -0.4998  3.4606
15836TIP3   OH268998   1.910   5.458  15.164  0.6333 -0.3629 -0.4369
15836TIP3    H168999   1.903   5.543  15.119  0.7431  0.8121  1.6866
15836TIP3    H269000   1.969   5.407  15.108 -0.4586  0.4721 -2.4340
15837TIP3   OH269001   6.584   2.525  16.687 -0.1938 -0.6115 -0.2621
15837TIP3    H169002   6.560   2.445  16.733  1.4757  0.5579  2.7395
15837TIP3    H269003   6.539   2.595  16.734  1.2975  0.5774 -0.5695
15838TIP3   OH269004   1.815   0.830   5.185  0.2598 -0.7458  0.2600
15838TIP3    H169005   1.786   0.739   5.179 -2.6303  0.1681 -0.3215
15838TIP3    H269006   1.745   0.875   5.231  1.4134  1.2907  0.0756
15839TIP3   OH269007   6.163   0.235  10.962  0.1407 -0.2557  0.0937
15839TIP3    H169008   6.179   0.161  10.904  1.1326 -0.0707  0.1195
15839TIP3    H269009   6.248   0.255  11.000 -0.9344 -2.0240  3.6363
15840TIP3   OH269010   2.498   3.384   1.981 -0.2848 -0.2596 -0.4424
15840TIP3    H169011   2.518   3.478   1.975  0.5781 -0.4709 -1.0243
15840TIP3    H269012   2.408   3.380   2.012 -0.4065  0.7688 -0.6505
15841TIP3   OH269013   2.120   6.520  12.100 -0.1731 -0.0244  0.1481
15841TIP3    H169014   2.087   6.432  12.081 -0.6709 -0.2709  2.0121
15841TIP3    H269015   2.158   6.550  12.017 -1.4499 -1.3449 -0.9488
15842TIP3   OH269016   4.064   2.956  12.448 -0.3009  0.0489 -0.5302
15842TIP3    H169017   4.058   2.947  12.543  1.6862  3.4237  0.0042
15842TIP3    H269018   4.149   2.918  12.426 -0.1847  0.4718 -0.7979
15843TIP3   OH269019   4.018   4.016  11.963  0.0192  0.1503 -0.2899
15843TIP3    H169020   3.961   3.954  12.009  1.8724 -1.4082 -0.0060
15843TIP3    H269021   3.958   4.074  11.917 -1.8019 -2.4827 -1.3641
15844TIP3   OH269022   4.358   1.530  11.423 -0.4184 -0.1332  0.3983
15844TIP3    H169023   4.401   1.549  11.341  1.5089  0.9351  1.6343
15844TIP3    H269024   4.300   1.605  11.438  0.8319  0.7241  1.0515
15845TIP3   OH269025   0.126   6.004  11.093 -0.3257 -0.1735  0.2729
15845TIP3    H169026   0.203   5.956  11.062  0.8659  0.6831  1.8293
15845TIP3    H269027   0.130   6.088  11.046 -1.3135 -0.8007 -0.9696
15846TIP3   OH269028   4.568   3.153  10.323  0.1562 -0.7127  0.2036
15846TIP3    H169029   4.579   3.177  10.231 -1.1371 -0.4351  0.1072
15846TIP3    H269030   4.638   3.090  10.340  2.1652  1.3384 -0.1676
15847TIP3   OH269031   0.347   6.558  15.127  0.0713 -0.6590  0.0336
15847TIP3    H169032   0.296   6.621  15.178  0.2486  0.2218 -0.8560
15847TIP3    H269033   0.377   6.493  15.191 -2.1166 -1.1755  0.5848
15848TIP3   OH269034   1.779   2.184   0.718 -0.3851  0.2266 -0.0216
15848TIP3    H169035   1.772   2.218   0.628 -0.3666 -1.1264 -0.5499
15848TIP3    H269036   1.696   2.139   0.732 -0.5242  0.7321  0.7713
15849TIP3   OH269037   5.408   6.682   2.963  0.0120 -0.7419  0.0482
15849TIP3    H169038   5.447   6.634   2.890  2.2725  0.9209  0.1115
15849TIP3    H269039   5.426   6.627   3.040  2.0454 -0.1807  0.0273
15850TIP3   OH269040   2.755   0.359   0.595  0.0970  0.1463  0.2790
15850TIP3    H169041   2.739   0.453   0.605 -0.7879  0.1254 -0.8967
15850TIP3    H269042   2.848   0.353   0.573  0.1227  0.7559  0.2065
15851TIP3   OH269043   1.411   1.407   5.766  0.5797 -0.0888 -0.1757
15851TIP3    H169044   1.319   1.384   5.753  0.4735  1.2163 -1.9192
15851TIP3    H269045   1.417   1.499   5.742  2.2223  0.0177  0.5526
15852TIP3   OH269046   0.141   5.722  16.430 -0.3058  0.0967 -0.3446
15852TIP3    H169047   0.099   5.712  16.515 -2.1562  0.3758 -1.2082
15852TIP3    H269048   0.094   5.794  16.388  0.2966 -0.3284 -1.7791
15853TIP3   OH269049   6.578   5.967  17.095 -0.0998  0.0993  0.5745
15853TIP3    H169050   6.515   5.935  17.031  0.1493 -0.5140  0.6396
15853TIP3    H269051   6.632   6.030  17.047  1.9723 -2.4889 -0.6002
15854TIP3   OH269052   2.396   4.942  16.801 -0.1187  0.7166 -0.4295
15854TIP3    H169053   2.352   5.027  16.798 -1.5751  0.0174  1.0001
15854TIP3    H269054   2.462   4.952  16.870 -0.6336  0.5120  0.0875
15855TIP3   OH269055   4.842   1.053  12.377 -0.2190 -0.6998  0.0766
15855TIP3    H169056   4.864   1.126  12.435 -0.9535 -1.4599  1.3411
15855TIP3    H269057   4.750   1.035  12.395  0.0399 -2.1241 -0.0112
15856TIP3   OH269058   5.126   3.283  16.540  0.2697  0.2741  0.2843
15856TIP3    H169059   5.077   3.338  16.479  0.3986  0.2210  0.1321
15856TIP3    H269060   5.130   3.334  16.621  0.9115  0.7505 -0.0432
15857TIP3   OH269061   4.194   0.276  12.136  0.6884  0.1929 -0.2847
15857TIP3    H169062   4.267   0.250  12.192  0.1062  0.1537  0.4700
15857TIP3    H269063   4.151   0.347  12.185  0.7216  0.7893 -1.1100
15858TIP3   OH269064   6.533   4.876  10.316  0.9513 -0.3981 -0.0376
15858TIP3    H169065   6.557   4.932  10.242  0.0725 -0.1394 -0.1277
15858TIP3    H269066   6.446   4.842  10.294  0.1124  0.7149  1.4728
15859TIP3   OH269067   6.269   3.868   5.113 -0.6270 -0.3229  0.6873
15859TIP3    H169068   6.227   3.908   5.189 -0.4355 -0.0114  0.6276
15859TIP3    H269069   6.363   3.876   5.131 -0.5818 -0.2051  0.3905
15860TIP3   OH269070   2.511   0.763   2.560 -0.2376 -0.3416 -0.1990
15860TIP3    H169071   2.486   0.683   2.606 -0.1035  0.7641  1.8428
15860TIP3    H269072   2.496   0.833   2.623  0.2954  1.1836 -1.7225
15861TIP3   OH269073   1.498   5.979  11.432  0.1909 -0.1292  0.2791
15861TIP3    H169074   1.420   5.951  11.481 -0.4893  0.8467 -0.2396
15861TIP3    H269075   1.571   5.935  11.477 -0.6881 -1.3875  0.5118
15862TIP3   OH269076   3.508   3.402  16.500  0.1933  0.3143  0.3340
15862TIP3    H169077   3.502   3.498  16.507  0.5229  0.3779 -0.2822
15862TIP3    H269078   3.597   3.382  16.528  0.2001  0.2050  0.2293
15863TIP3   OH269079   4.991   3.860   3.594  0.4001 -0.0319  0.4458
15863TIP3    H169080   4.986   3.765   3.601  0.2778 -0.1230 -0.7396
15863TIP3    H269081   4.936   3.893   3.665  2.2981 -0.8092  2.3484
15864TIP3   OH269082   1.236   3.196   3.888 -0.2726 -0.2800  0.1868
15864TIP3    H169083   1.287   3.179   3.967  0.8244 -2.3884 -0.9571
15864TIP3    H269084   1.153   3.150   3.903  0.2596 -1.3756 -0.2504
15865TIP3   OH269085   3.820   3.286  14.843 -0.5887  0.1929 -0.1004
15865TIP3    H169086   3.770   3.267  14.923 -1.4116 -1.3949 -0.9590
15865TIP3    H269087   3.787   3.371  14.814  0.0053  0.9726  1.4584
15866TIP3   OH269088   2.197   4.867  11.812 -0.4605 -0.3937  0.0989
15866TIP3    H169089   2.182   4.844  11.721 -0.3951  1.0591 -0.2945
15866TIP3    H269090   2.188   4.962  11.814 -0.4490 -0.4151  1.6036
15867TIP3   OH269091   5.146   5.839   0.391 -0.1524 -0.1729  0.4648
15867TIP3    H169092   5.162   5.879   0.305  0.8906  0.6853  1.0457
15867TIP3    H269093   5.233   5.820   0.425 -0.6227 -2.3622  0.4851
15868TIP3   OH269094   3.015   2.515  13.413 -0.0825  0.5390  0.7466
15868TIP3    H169095   3.061   2.485  13.492 -0.2705  1.1378  1.0886
15868TIP3    H269096   3.082   2.561  13.363 -0.4164  1.8549  1.4860
15869TIP3   OH269097   6.623   6.379  14.979 -0.4632  0.5116 -0.0931
15869TIP3    H169098   6.699   6.424  15.015 -1.0617  0.9155  0.6744
15869TIP3    H269099   6.658   6.299  14.939  0.4664  1.1245 -0.5027
15870TIP3   OH269100   2.225   0.014   5.949 -0.7640  0.1869 -0.4224
15870TIP3    H169101   2.202   0.081   6.014  0.4669 -1.2309  1.5111
15870TIP3    H269102   2.140  -0.019   5.919 -1.3516  0.8052  0.5009
15871TIP3   OH269103   1.608   3.520   0.935  0.0088 -0.0730 -0.6758
15871TIP3    H169104   1.673   3.451   0.945 -0.0266  0.1983  1.5301
15871TIP3    H269105   1.597   3.557   1.022 -2.1423  0.7767 -1.2613
15872TIP3   OH269106   2.922   1.224  15.013  0.0145 -0.4550  0.2629
15872TIP3    H169107   3.004   1.261  15.046 -0.5043  0.8035  0.1846
15872TIP3    H269108   2.948   1.145  14.966  1.2399  0.1742 -0.1470
15873TIP3   OH269109   6.075   1.867   3.045  0.7141 -0.3739  0.6938
15873TIP3    H169110   5.982   1.850   3.027  0.3615  1.4738  0.7534
15873TIP3    H269111   6.121   1.804   2.989 -0.5379 -0.1799 -0.5884
15874TIP3   OH269112   2.792   3.033  13.615 -0.1478 -0.3463  0.1771
15874TIP3    H169113   2.724   2.967  13.629 -0.6127 -0.0160 -0.4972
15874TIP3    H269114   2.792   3.085  13.695 -3.8427  2.4948 -1.5240
15875TIP3   OH269115   5.210   3.781   0.455 -0.0655  0.1532 -0.4024
15875TIP3    H169116   5.140   3.838   0.486 -0.7110 -1.7240  1.8064
15875TIP3    H269117   5.255   3.753   0.535  2.5231  0.4373 -1.7016
15876TIP3   OH269118   2.712   3.346   3.035  0.0590 -0.1286 -0.2217
15876TIP3    H169119   2.734   3.370   2.945 -0.5480 -0.8432 -0.5638
15876TIP3    H269120   2.742   3.256   3.044  1.6096  0.4687  0.8182
15877TIP3   OH269121   6.380   3.224   4.742  0.1086  0.5012 -0.1984
15877TIP3    H169122   6.439   3.240   4.668 -0.5203  0.9574 -0.6054
15877TIP3    H269123   6.437   3.227   4.819  0.4808  1.7990 -0.5128
15878TIP3   OH269124   2.642   5.199  12.243 -0.4978  0.2816 -0.0828
15878TIP3    H169125   2.588   5.231  12.316 -1.0046  0.0369 -0.3476
15878TIP3    H269126   2.732   5.213  12.272 -0.7022  0.6261  0.3959
15879TIP3   OH269127   1.321   2.789  12.709 -0.1969 -0.4302  0.0026
15879TIP3    H169128   1.351   2.814  12.621  0.9316 -1.8488 -0.0291
15879TIP3    H269129   1.235   2.748  12.694 -0.8601  1.0058 -0.2185
15880TIP3   OH269130   0.380   1.616   5.966  0.3485  0.9424  0.2899
15880TIP3    H169131   0.312   1.552   5.946  0.5372  1.2636 -1.4697
15880TIP3    H269132   0.419   1.585   6.048  0.8935 -1.5638 -0.8753
15881TIP3   OH269133   5.503   5.424  13.997 -0.5390  0.0558 -0.0735
15881TIP3    H169134   5.497   5.366  13.922  0.5657 -1.3582  0.9224
15881TIP3    H269135   5.596   5.445  14.004 -0.6264  0.1340  0.9302
15882TIP3   OH269136   1.231   4.647   4.160  0.3225 -0.5182 -0.5339
15882TIP3    H169137   1.309   4.686   4.120  0.6886 -1.4381 -0.7401
15882TIP3    H269138   1.227   4.559   4.123  0.1018 -1.0406  0.7013
15883TIP3   OH269139   0.472   3.525   5.435  0.1775 -0.1684  0.1314
15883TIP3    H169140   0.401   3.463   5.421  1.0445 -1.9753  3.2418
15883TIP3    H269141   0.456   3.561   5.523  1.8668  1.0944 -0.0358
15884TIP3   OH269142   5.644   1.820  12.509  0.4977  0.3179 -0.0683
15884TIP3    H169143   5.569   1.880  12.511  0.4525  0.2701 -0.4807
15884TIP3    H269144   5.720   1.878  12.516  0.4080  0.3226  1.0948
15885TIP3   OH269145   1.022   2.231   2.898  0.0492  0.2296 -0.0164
15885TIP3    H169146   1.098   2.176   2.881  0.8402  1.7080 -1.3906
15885TIP3    H269147   1.058   2.309   2.939 -0.6118  1.2918 -1.4101
15886TIP3   OH269148   6.050   3.734   3.175 -1.0894  0.3349  0.0427
15886TIP3    H169149   6.041   3.765   3.085  0.7618  1.0741  0.0878
15886TIP3    H269150   6.094   3.806   3.221 -2.3629  0.1241  1.6336
15887TIP3   OH269151   3.345   3.891   3.013  0.2710  0.9280 -0.6595
15887TIP3    H169152   3.311   3.845   3.091  0.2627 -1.8558 -2.2290
15887TIP3    H269153   3.372   3.977   3.046  0.4858 -0.2508  2.4612
15888TIP3   OH269154   4.742   6.564   0.147 -0.7429  0.2170 -0.4396
15888TIP3    H169155   4.697   6.648   0.156 -1.4115 -0.1716 -0.1244
15888TIP3    H269156   4.706   6.509   0.217  0.0509 -0.1761 -0.3302
15889TIP3   OH269157   5.646   1.101  13.722 -0.0592  0.0951 -0.0603
15889TIP3    H169158   5.576   1.080  13.784 -0.6883  1.7068 -0.1911
15889TIP3    H269159   5.701   1.023  13.720 -0.0231  0.0008  2.5345
15890TIP3   OH269160   0.391   1.880   5.660  0.2355  0.2790 -0.6153
15890TIP3    H169161   0.333   1.956   5.657  2.1260  1.8227  0.7521
15890TIP3    H269162   0.350   1.821   5.723 -1.2444  0.1151 -1.6857
15891TIP3   OH269163   0.765   5.344  15.888 -0.2729 -0.5401 -0.9421
15891TIP3    H169164   0.790   5.262  15.931 -0.2575 -0.3261 -0.5370
15891TIP3    H269165   0.847   5.391  15.876 -0.4694  0.1472  0.3610
15892TIP3   OH269166   3.804   2.863  14.461  0.1586 -0.3318 -0.2917
15892TIP3    H169167   3.869   2.921  14.502  1.0056 -1.6694  0.2969
15892TIP3    H269168   3.822   2.871  14.367  0.6714 -0.1154 -0.1781
15893TIP3   OH269169   2.614   2.841   2.709  0.0044 -0.3479 -0.9150
15893TIP3    H169170   2.703   2.874   2.700 -0.0497  0.1136  0.0841
15893TIP3    H269171   2.624   2.753   2.745  0.0225  0.5303  1.3438
15894TIP3   OH269172   1.397   6.025  15.798 -0.1173 -0.4839 -0.2222
15894TIP3    H169173   1.391   5.931  15.779 -0.0704 -0.7831  1.1586
15894TIP3    H269174   1.325   6.064  15.749 -0.3656 -1.2971 -0.5136
15895TIP3   OH269175   5.675   4.283  11.199 -0.0116 -0.2381 -0.2232
15895TIP3    H169176   5.749   4.324  11.244 -0.0876  0.8099 -1.0260
15895TIP3    H269177   5.715   4.211  11.150  0.8034  1.3755 -2.0400
15896TIP3   OH269178   1.639   5.242  14.905 -0.1611 -0.2595 -1.2311
15896TIP3    H169179   1.688   5.259  14.825  0.7544  0.9367 -0.4369
15896TIP3    H269180   1.686   5.170  14.947  1.7333  1.6993  0.1486
15897TIP3   OH269181   2.374   4.776  17.075  0.6165  0.1148 -0.6355
15897TIP3    H169182   2.462   4.807  17.053  0.3455  0.6936 -0.9103
15897TIP3    H269183   2.388   4.695  17.124  1.3969  1.3474  1.2625
15898TIP3   OH269184   4.524   0.053  13.712  0.0740  0.6131 -0.0953
15898TIP3    H169185   4.431   0.075  13.712 -0.0318  0.2146  1.1261
15898TIP3    H269186   4.569   0.137  13.720 -0.0557  1.1313 -4.1452
15899TIP3   OH269187   1.053   1.714   2.160 -0.2866  0.1184  0.2232
15899TIP3    H169188   1.104   1.696   2.081 -0.5226 -0.7235  0.2560
15899TIP3    H269189   0.967   1.742   2.127  0.0982  1.2639  0.1715
15900TIP3   OH269190   2.001   5.380  12.720  0.0749 -0.1440 -0.6426
15900TIP3    H169191   1.948   5.300  12.720  0.8483 -0.6552 -1.2671
15900TIP3    H269192   2.071   5.363  12.783 -0.0819  0.2558 -0.3580
15901TIP3   OH269193   6.388   4.131   4.679  0.1223 -0.3175 -0.5783
15901TIP3    H169194   6.473   4.088   4.690  0.1935  0.4458  2.3081
15901TIP3    H269195   6.352   4.136   4.767 -2.0216  1.2249 -1.4885
15902TIP3   OH269196   6.070   2.130   1.800  0.5017 -0.4779  0.5685
15902TIP3    H169197   6.063   2.094   1.888 -3.8277 -0.4175  0.3953
15902TIP3    H269198   6.034   2.061   1.743  0.0746  0.7716 -0.7125
15903TIP3   OH269199   4.706   2.946   0.502 -0.3823  0.7464  0.4146
15903TIP3    H169200   4.750   2.869   0.538 -0.3885  0.7683  0.4703
15903TIP3    H269201   4.704   3.009   0.575  0.6563  1.2314  0.0312
15904TIP3   OH269202   3.952   4.471  13.593  0.3595  0.0114  0.0602
15904TIP3    H169203   3.882   4.507  13.647 -0.2719 -2.1509  0.7176
15904TIP3    H269204   3.921   4.384  13.568  1.8200 -0.0631 -1.5574
15905TIP3   OH269205   1.394   6.182  14.108  0.3181  0.3007 -0.7670
15905TIP3    H169206   1.377   6.123  14.182 -4.5406  1.5710 -0.6879
15905TIP3    H269207   1.389   6.269  14.146 -0.1747  0.9338 -2.2633
15906TIP3   OH269208   2.117   4.842  16.558 -0.0093 -0.3084  0.1533
15906TIP3    H169209   2.107   4.814  16.649 -1.9306  0.8864  0.3356
15906TIP3    H269210   2.168   4.923  16.564 -0.0928 -0.2570  0.1586
15907TIP3   OH269211   1.552   4.966   1.744  0.1863 -0.2073  0.0844
15907TIP3    H169212   1.594   5.016   1.674  0.2582 -0.1434  0.1712
15907TIP3    H269213   1.606   4.887   1.753  1.5137  0.8250  1.5700
15908TIP3   OH269214   5.244   3.650   1.766  0.3866 -0.1550  0.0217
15908TIP3    H169215   5.331   3.640   1.807 -0.6200  0.3940  2.3629
15908TIP3    H269216   5.243   3.740   1.734  0.0591  0.3813  1.5151
15909TIP3   OH269217   6.709   2.404  14.568  0.2331 -0.2021  0.3091
15909TIP3    H169218   6.744   2.331  14.518 -0.0186  1.0177 -1.6942
15909TIP3    H269219   6.785   2.457  14.591  0.2307 -0.1847  0.2761
15910TIP3   OH269220   2.141   6.516   6.185 -0.1199  0.5265  0.1850
15910TIP3    H169221   2.085   6.593   6.194  1.2410  1.4198  1.2622
15910TIP3    H269222   2.211   6.530   6.249  2.0807  0.0905 -2.0686
15911TIP3   OH269223   1.153   2.785   4.619 -0.1855  0.4617  0.4732
15911TIP3    H169224   1.161   2.692   4.639  0.8597  0.4819  0.1535
15911TIP3    H269225   1.136   2.826   4.704 -0.4691  0.0040  0.6392
15912TIP3   OH269226   1.712   5.193  12.435  0.9131 -0.2172 -0.3029
15912TIP3    H169227   1.746   5.146  12.511 -1.0896  0.3346  0.9788
15912TIP3    H269228   1.716   5.285  12.459 -1.7717 -0.1496  0.0654
15913TIP3   OH269229   2.271   2.861   3.745 -0.3411  0.2210 -0.1249
15913TIP3    H169230   2.195   2.879   3.689  0.3500  0.5335 -0.9791
15913TIP3    H269231   2.342   2.912   3.706  0.3752 -0.2753  0.5092
15914TIP3   OH269232   1.956   4.791  15.248  0.4861  0.6527  0.3805
15914TIP3    H169233   1.943   4.729  15.320  1.3548  1.1532  0.9835
15914TIP3    H269234   1.872   4.837  15.241 -0.2075 -0.6595 -0.1562
15915TIP3   OH269235   5.720   4.726   5.470 -0.2855 -0.1130 -0.1151
15915TIP3    H169236   5.712   4.741   5.564  0.5029 -2.3162  0.3173
15915TIP3    H269237   5.660   4.789   5.431  1.4913  2.8608  1.7040
15916TIP3   OH269238   3.207   2.284  11.506  0.2798 -0.1001 -0.2934
15916TIP3    H169239   3.140   2.216  11.501  0.4051 -0.1642 -1.0635
15916TIP3    H269240   3.231   2.302  11.415  0.8192  0.4081 -0.0563
15917TIP3   OH269241   2.916   0.799   5.879 -0.8589  0.1435 -0.1225
15917TIP3    H169242   3.001   0.833   5.906 -0.7175 -0.1271 -0.2247
15917TIP3    H269243   2.862   0.801   5.958 -0.1018 -1.7334  0.4768
15918TIP3   OH269244   0.717   5.298   2.723 -0.2786 -0.0539 -0.3590
15918TIP3    H169245   0.660   5.319   2.649 -0.1350  0.8719 -0.2079
15918TIP3    H269246   0.799   5.343   2.705 -0.0735 -0.2317  0.1198
15919TIP3   OH269247   5.929   1.513  13.618  0.3155  0.2401 -0.0274
15919TIP3    H169248   5.850   1.521  13.564 -1.5888 -1.2848  2.4148
15919TIP3    H269249   5.978   1.441  13.578  0.0019  0.5385 -0.9763
15920TIP3   OH269250   6.676   4.792   4.443  0.3319  0.6064  0.0738
15920TIP3    H169251   6.759   4.757   4.474  0.2878  0.8222  0.4413
15920TIP3    H269252   6.615   4.718   4.449 -0.0502  1.0669  2.0037
15921TIP3   OH269253   5.987   3.813   1.290  0.2549  0.6984  0.2183
15921TIP3    H169254   5.933   3.887   1.317  0.2135  1.0886 -0.8817
15921TIP3    H269255   5.941   3.775   1.215  1.4661  1.0338 -0.7312
15922TIP3   OH269256   0.013   4.189   4.881 -0.2760  0.4561 -0.3761
15922TIP3    H169257   0.034   4.230   4.796  0.1258 -0.2284 -0.6087
15922TIP3    H269258  -0.026   4.105   4.858 -1.6028  0.9410  0.0977
15923TIP3   OH269259   2.369   1.531  11.011 -0.0365  0.1447  0.2046
15923TIP3    H169260   2.418   1.613  11.001 -1.7643  0.8618 -3.4316
15923TIP3    H269261   2.290   1.557  11.059  0.4903  0.1110  1.1062
15924TIP3   OH269262   5.067   2.511   0.889  0.2093 -0.6192 -0.2524
15924TIP3    H169263   5.043   2.602   0.871  1.6643  0.1942  1.7724
15924TIP3    H269264   5.140   2.494   0.830  0.1198 -0.3738 -0.4358
15925TIP3   OH269265   4.592   0.027  16.493 -1.0175  0.0577 -0.4561
15925TIP3    H169266   4.523   0.088  16.467  1.7167  3.3039 -0.3983
15925TIP3    H269267   4.611   0.049  16.585  0.4249 -0.4578 -0.6146
15926TIP3   OH269268   3.027   0.089   4.509 -0.0894  0.0830  0.0716
15926TIP3    H169269   3.011   0.034   4.433 -1.3379 -0.1682  0.4973
15926TIP3    H269270   3.028   0.178   4.475 -2.1625  0.0885 -0.0448
15927TIP3   OH269271   5.117   0.951   5.297  0.1681 -0.6756  0.6504
15927TIP3    H169272   5.094   0.861   5.274 -0.7348 -0.4354  0.5947
15927TIP3    H269273   5.203   0.965   5.257 -0.4382 -0.9542 -0.7684
15928TIP3   OH269274   2.662   0.422  13.666 -0.1073 -0.0886  0.8467
15928TIP3    H169275   2.749   0.382  13.668  1.7187  3.4098 -2.6663
15928TIP3    H269276   2.629   0.402  13.579 -1.3380  1.6404  0.9125
15929TIP3   OH269277   1.572   0.687   4.379  0.1919 -0.2275 -0.4174
15929TIP3    H169278   1.547   0.779   4.384 -2.1001 -0.8298 -0.3561
15929TIP3    H269279   1.494   0.642   4.346  0.3894 -2.5131  2.0429
15930TIP3   OH269280   0.750   0.551   5.129 -0.3952 -0.1369 -0.8819
15930TIP3    H169281   0.686   0.521   5.065 -0.6447 -1.9036  0.1583
15930TIP3    H269282   0.749   0.484   5.197  2.9921 -0.5069 -1.1100
15931TIP3   OH269283   3.208   1.759  11.752  0.5194 -0.5316  0.0975
15931TIP3    H169284   3.113   1.762  11.751  0.5407  0.1351  0.0109
15931TIP3    H269285   3.229   1.667  11.737 -0.0611 -0.1869 -3.2242
15932TIP3   OH269286   4.166   4.412  11.353 -0.8831 -0.0618 -0.0444
15932TIP3    H169287   4.222   4.399  11.429 -0.4388  0.2643 -0.3118
15932TIP3    H269288   4.098   4.346  11.361 -0.1890 -0.7758  0.0350
15933TIP3   OH269289   2.022   2.538   2.796 -0.5329  0.5317  0.1459
15933TIP3    H169290   2.076   2.609   2.834 -1.0775  0.4011  1.1878
15933TIP3    H269291   2.063   2.458   2.827  0.1740  0.3733 -1.1633
15934TIP3   OH269292   1.790   3.916  13.409  0.5759  0.6622 -0.5029
15934TIP3    H169293   1.749   3.843  13.363 -0.2845  0.6707  0.2407
15934TIP3    H269294   1.733   3.991  13.392 -0.9708  0.2078  2.3152
15935TIP3   OH269295   0.572   4.271   2.674  0.1040 -0.3568 -0.3183
15935TIP3    H169296   0.525   4.220   2.740 -0.6791  0.7344 -0.0158
15935TIP3    H269297   0.508   4.335   2.643  1.2396  0.8425 -0.2454
15936TIP3   OH269298   5.916   1.356  12.817  0.0267  0.1964 -0.3620
15936TIP3    H169299   5.830   1.363  12.775  0.5762 -1.6333 -1.8587
15936TIP3    H269300   5.898   1.363  12.910 -1.4252  2.6430 -0.7940
15937TIP3   OH269301   2.849   0.060   5.589 -0.0306  0.8794  0.2739
15937TIP3    H169302   2.826   0.020   5.673  1.4267  0.2161  0.3671
15937TIP3    H269303   2.823   0.152   5.599 -0.6392  0.6219  1.1381
15938TIP3   OH269304   1.796   0.736   0.384 -0.2110  0.2122  0.0658
15938TIP3    H169305   1.775   0.651   0.346  1.0378 -0.1341  0.1620
15938TIP3    H269306   1.888   0.750   0.363  0.2925  0.3734  2.2932
15939TIP3   OH269307   2.709   1.753   1.084 -0.2991 -0.5603 -0.1584
15939TIP3    H169308   2.704   1.792   0.997 -0.7466  1.3694  0.7029
15939TIP3    H269309   2.800   1.769   1.111 -0.1679 -1.1347 -0.2594
15940TIP3   OH269310   4.871   6.784  11.469 -0.5424  0.0413  0.9288
15940TIP3    H169311   4.959   6.763  11.502 -0.1042 -0.1793 -0.3273
15940TIP3    H269312   4.884   6.863  11.416 -0.5984 -1.4763 -1.4132
15941TIP3   OH269313   6.501   6.591   1.453 -0.4527  0.3042  0.0882
15941TIP3    H169314   6.568   6.528   1.427 -0.4560 -0.1136  1.0873
15941TIP3    H269315   6.525   6.617   1.541 -1.3532  0.4950  0.2854
15942TIP3   OH269316   2.958   4.673  15.245 -0.4816  0.7169  0.1357
15942TIP3    H169317   3.001   4.712  15.169  1.8031  0.4351  1.2470
15942TIP3    H269318   2.890   4.617  15.208  0.6664  0.4947 -1.7099
15943TIP3   OH269319   5.323   6.788   4.447 -0.2364 -0.1795 -0.8212
15943TIP3    H169320   5.320   6.694   4.465  0.5885  0.3598  2.5362
15943TIP3    H269321   5.243   6.823   4.486  0.8243  0.8648  0.4535
15944TIP3   OH269322   4.880   4.165   6.286 -0.5704  0.1145 -0.1621
15944TIP3    H169323   4.960   4.132   6.244  1.4051  2.3179  1.7324
15944TIP3    H269324   4.845   4.089   6.333  0.2179 -0.9768 -1.2953
15945TIP3   OH269325   5.233   5.222   2.868  0.5367  0.3149 -0.0716
15945TIP3    H169326   5.287   5.222   2.947  2.6992  0.9290 -1.5338
15945TIP3    H269327   5.264   5.146   2.818  0.5504  1.1184 -1.2827
15946TIP3   OH269328   1.200   0.174  13.071 -0.1381  0.1800 -0.3284
15946TIP3    H169329   1.140   0.100  13.058  1.6397 -1.0487 -1.7649
15946TIP3    H269330   1.223   0.201  12.982  0.1391  1.7357  0.2054
15947TIP3   OH269331   3.905   4.373  13.031  0.1391 -0.0685  0.0130
15947TIP3    H169332   3.839   4.442  13.024 -0.4532 -0.6212  0.0531
15947TIP3    H269333   3.970   4.408  13.092 -1.1473 -0.3225  1.5723
15948TIP3   OH269334   4.703   5.714  15.037 -0.2251 -0.2016 -0.2025
15948TIP3    H169335   4.775   5.655  15.058  1.7068  2.0958 -0.2874
15948TIP3    H269336   4.677   5.751  15.121 -0.1311  0.3070 -0.3953
15949TIP3   OH269337   6.675   0.734  13.122 -0.8022 -0.5088  0.5894
15949TIP3    H169338   6.724   0.653  13.133  3.2982  1.6483 -0.7180
15949TIP3    H269339   6.691   0.760  13.031 -0.8140  2.4978  1.3819
15950TIP3   OH269340   2.346   3.542   4.891  0.4589  0.2824  0.3485
15950TIP3    H169341   2.275   3.571   4.834  0.2744 -1.2601 -0.2374
15950TIP3    H269342   2.402   3.489   4.834  0.7088 -0.6018  1.4132
15951TIP3   OH269343   6.207   5.245   5.637  0.3645  0.1812 -0.1629
15951TIP3    H169344   6.114   5.233   5.618  0.1478  1.3400  0.1224
15951TIP3    H269345   6.208   5.297   5.718  1.2584  0.6487 -0.4687
15952TIP3   OH269346   6.350   4.822  11.362  0.0580 -0.0297  0.2143
15952TIP3    H169347   6.352   4.861  11.449  0.8023 -2.0218  1.1295
15952TIP3    H269348   6.328   4.730  11.377 -4.8762  0.5954 -2.1415
15953TIP3   OH269349   3.464   4.319  10.774 -0.0663 -0.5116 -0.6945
15953TIP3    H169350   3.397   4.368  10.820 -0.4942 -1.8785  0.1700
15953TIP3    H269351   3.546   4.363  10.796 -0.1810 -1.5283  1.9561
15954TIP3   OH269352   2.055   3.660  13.338  0.1203 -0.5883 -0.7173
15954TIP3    H169353   1.981   3.721  13.333  0.7907  0.3319  0.4031
15954TIP3    H269354   2.027   3.592  13.398  0.4672  0.1709  0.3124
15955TIP3   OH269355   4.397   1.779  15.617 -0.1092 -0.3089  0.3391
15955TIP3    H169356   4.452   1.723  15.673  1.4690 -1.2184 -2.0461
15955TIP3    H269357   4.447   1.860  15.609  0.4394 -0.7598 -0.9890
15956TIP3   OH269358   1.577   1.544   5.085  0.2374  0.0199 -0.6644
15956TIP3    H169359   1.501   1.529   5.028  0.3564 -0.7886 -0.6175
15956TIP3    H269360   1.549   1.512   5.171 -0.4326  2.5037  0.0778
15957TIP3   OH269361   0.443   3.443  15.386 -0.3301  0.2449  0.1734
15957TIP3    H169362   0.418   3.470  15.297  0.0912  0.4386  0.1115
15957TIP3    H269363   0.384   3.492  15.443  0.6615  1.5734  0.0749
15958TIP3   OH269364   2.085   0.016   3.719  0.2168  0.1902  0.2736
15958TIP3    H169365   2.082   0.048   3.809  1.0853  1.2348 -0.0594
15958TIP3    H269366   2.124   0.088   3.669  0.5896 -0.7314 -0.7858
15959TIP3   OH269367   4.332   4.285   5.712  0.2116 -0.2538 -0.1322
15959TIP3    H169368   4.273   4.356   5.685 -0.1446 -1.0910 -1.6372
15959TIP3    H269369   4.321   4.280   5.807 -0.0249  1.4554 -0.0437
15960TIP3   OH269370   3.204   6.694  11.993 -0.5636  0.3188 -0.4549
15960TIP3    H169371   3.146   6.728  12.061  2.9082  0.1919  2.7377
15960TIP3    H269372   3.272   6.760  11.985  0.8895 -1.2644 -1.3950
15961TIP3   OH269373   5.287   3.319   0.159 -0.1920 -0.5219 -0.2238
15961TIP3    H169374   5.323   3.317   0.070 -0.2080  0.0995 -0.2513
15961TIP3    H269375   5.243   3.235   0.170  0.0756 -0.7228 -0.6953
15962TIP3   OH269376   6.561   0.057   3.134 -0.2582  0.0699 -0.4313
15962TIP3    H169377   6.620  -0.010   3.099  0.1498  0.2301 -0.0499
15962TIP3    H269378   6.615   0.136   3.140 -0.9358  0.6212 -1.5682
15963TIP3   OH269379   6.396   2.844  14.673 -0.4013 -1.2612  0.4869
15963TIP3    H169380   6.426   2.757  14.647  0.9424 -1.2337  1.8778
15963TIP3    H269381   6.407   2.846  14.768  2.3082  1.3651  0.2122
15964TIP3   OH269382   5.741   2.004  12.139  0.6979 -0.0622  0.0770
15964TIP3    H169383   5.677   2.073  12.121 -1.5712 -2.4698 -1.4244
15964TIP3    H269384   5.786   2.033  12.219 -0.3866  2.9803 -0.3610
15965TIP3   OH269385   2.349   1.830  12.487 -0.5433 -0.6091  0.2613
15965TIP3    H169386   2.405   1.803  12.414  3.5383  1.3524  2.4511
15965TIP3    H269387   2.339   1.751  12.540 -1.6539 -1.4996 -1.2534
15966TIP3   OH269388   3.687   2.401   4.604 -0.1367 -0.0491 -0.3444
15966TIP3    H169389   3.627   2.336   4.567 -0.3055 -0.8599  1.3145
15966TIP3    H269390   3.763   2.351   4.632 -0.0518  0.5370  0.4879
15967TIP3   OH269391   1.951   5.988  13.726  0.1548 -0.3246  0.7646
15967TIP3    H169392   1.923   6.012  13.638  2.9109  0.1612 -0.0232
15967TIP3    H269393   1.915   5.901  13.740 -1.2693  0.0585 -0.3803
15968TIP3   OH269394   4.261   3.548   5.250  0.8064 -0.5739  0.2212
15968TIP3    H169395   4.223   3.509   5.329  1.2207  1.8749  1.6640
15968TIP3    H269396   4.191   3.601   5.213  0.7454 -1.3940 -0.8684
15969TIP3   OH269397   0.207   2.373  10.470 -0.1634  0.0796  0.1007
15969TIP3    H169398   0.234   2.415  10.552 -0.2743 -0.8403  0.6079
15969TIP3    H269399   0.142   2.309  10.496  0.0923 -0.4990 -0.6687
15970TIP3   OH269400   4.784   1.219   0.063 -0.8349  0.0102  0.5712
15970TIP3    H169401   4.838   1.297   0.047 -1.8991  0.8258  0.8737
15970TIP3    H269402   4.714   1.225  -0.002 -0.2689 -1.3405 -0.1873
15971TIP3   OH269403   4.854   4.712   6.277 -0.1950 -0.2700  0.4825
15971TIP3    H169404   4.832   4.624   6.309  0.1178 -0.4227  0.2804
15971TIP3    H269405   4.795   4.770   6.324 -0.8649 -0.6544  0.1148
15972TIP3   OH269406   2.076   2.788   1.241 -0.0995  0.0783 -0.2311
15972TIP3    H169407   2.025   2.869   1.250 -0.3899 -0.1175 -0.0847
15972TIP3    H269408   2.143   2.794   1.309  1.3871  1.2999 -1.7800
15973TIP3   OH269409   4.579   2.393   2.842 -0.3976 -0.2897 -0.0208
15973TIP3    H169410   4.552   2.301   2.833 -2.9167  0.5401 -1.5246
15973TIP3    H269411   4.596   2.422   2.752  1.3488  0.4639  0.5320
15974TIP3   OH269412   3.792   4.748  11.215  0.7757 -0.4478 -0.2898
15974TIP3    H169413   3.860   4.801  11.174 -0.2572  0.2310 -1.1665
15974TIP3    H269414   3.740   4.811  11.264  1.0419 -1.0319  0.7439
15975TIP3   OH269415   1.908   2.179  15.841  0.0077 -0.1286 -0.3696
15975TIP3    H169416   1.984   2.141  15.797 -0.7347 -0.8717 -1.0372
15975TIP3    H269417   1.833   2.131  15.804 -0.7137  0.0579  0.8414
15976TIP3   OH269418   2.088   6.744   2.673  0.2483  0.5234  0.3394
15976TIP3    H169419   2.040   6.781   2.599  1.2751 -3.0619 -2.2702
15976TIP3    H269420   2.171   6.714   2.635  0.6047 -1.8080  2.8540
15977TIP3   OH269421   4.004   4.842  15.320  0.1425 -0.4879  0.5555
15977TIP3    H169422   4.095   4.871  15.310  0.0287 -0.4835 -0.4568
15977TIP3    H269423   3.953   4.906  15.271 -0.2955 -1.2354  0.0306
15978TIP3   OH269424   4.094   6.221   0.680  0.2979  0.0077  0.0987
15978TIP3    H169425   4.013   6.175   0.657  1.3419 -1.6607 -0.3559
15978TIP3    H269426   4.070   6.276   0.754 -1.2856 -0.3880 -0.0981
15979TIP3   OH269427   6.796   4.192   3.804  0.2671  0.4163 -0.2165
15979TIP3    H169428   6.761   4.104   3.792  2.3308 -0.8446  2.4325
15979TIP3    H269429   6.790   4.232   3.718 -0.6546 -2.3250 -1.4908
15980TIP3   OH269430   4.719   6.086   5.801  0.5887  0.0330 -0.3919
15980TIP3    H169431   4.763   6.171   5.802  2.3182 -0.8676  0.5844
15980TIP3    H269432   4.687   6.075   5.890  0.2680 -0.3001 -0.5486
15981TIP3   OH269433   1.082   0.956   0.919  0.2215  0.1874  0.1956
15981TIP3    H169434   1.156   0.911   0.880  0.1347  0.9899 -0.9121
15981TIP3    H269435   1.054   0.899   0.991  1.5585 -0.3795  0.2745
15982TIP3   OH269436   0.406   1.877  13.170 -0.4865  0.1878 -0.0609
15982TIP3    H169437   0.460   1.956  13.158 -0.0513 -0.2112 -0.7353
15982TIP3    H269438   0.466   1.804  13.152 -0.7320 -0.3166  1.1585
15983TIP3   OH269439   5.261   1.491  14.983 -0.3416 -0.2612 -0.2524
15983TIP3    H169440   5.246   1.503  14.889  2.1041  0.5730 -0.5685
15983TIP3    H269441   5.355   1.505  14.994 -0.6809  0.1512  2.4039
15984TIP3   OH269442   5.065   2.924   2.003  0.2337  1.0205  0.5028
15984TIP3    H169443   5.115   2.844   2.019 -1.6697 -0.6293 -1.4174
15984TIP3    H269444   5.063   2.932   1.907 -1.7152  1.9876  0.6026
15985TIP3   OH269445   5.818   2.756   0.810  0.0136  0.2209 -0.0244
15985TIP3    H169446   5.910   2.779   0.794 -0.3852  0.6331 -1.7767
15985TIP3    H269447   5.806   2.673   0.765 -0.1248 -0.5018  1.3392
15986TIP3   OH269448   5.041   4.720  16.678  0.1705 -0.6374  0.5123
15986TIP3    H169449   5.010   4.629  16.684 -1.7993  0.0559  1.0325
15986TIP3    H269450   5.018   4.759  16.763 -0.6962  0.8681 -0.3992
15987TIP3   OH269451   5.919   0.656  14.509  0.4026 -0.3622 -0.2522
15987TIP3    H169452   5.840   0.626  14.554  0.5296 -1.2258 -0.6058
15987TIP3    H269453   5.887   0.723  14.449 -0.4129 -2.2832 -2.0223
15988TIP3   OH269454   1.041   0.550  13.754 -0.1844  0.5310 -0.2901
15988TIP3    H169455   0.963   0.495  13.743  0.6218 -0.6380 -0.2760
15988TIP3    H269456   1.014   0.617  13.816 -1.8224  1.3899 -1.8584
15989TIP3   OH269457   2.198   6.651  11.840 -0.1109  0.2963  0.3974
15989TIP3    H169458   2.258   6.708  11.793  0.6845 -1.8812 -1.3099
15989TIP3    H269459   2.114   6.662  11.795  0.3392 -0.7742 -0.7551
15990TIP3   OH269460   1.381   2.365   1.765  0.2061  0.6124 -0.1951
15990TIP3    H169461   1.291   2.359   1.732 -0.0320  2.3414  0.0989
15990TIP3    H269462   1.373   2.352   1.860  0.4681 -0.7357 -0.3379
15991TIP3   OH269463   0.991   1.156  12.384  0.7801 -0.4924  0.8517
15991TIP3    H169464   0.977   1.064  12.410 -0.1872 -0.5836  0.0328
15991TIP3    H269465   0.944   1.206  12.451 -1.5087 -0.7192 -0.5492
15992TIP3   OH269466   6.339   0.982  14.060  0.1752 -0.4309 -0.5247
15992TIP3    H169467   6.317   0.914  13.996 -0.8438 -1.2303  0.6506
15992TIP3    H269468   6.254   1.020  14.083  0.7050  1.0041 -0.8942
15993TIP3   OH269469   6.249   1.604  17.219  0.4277 -0.0904  0.5185
15993TIP3    H169470   6.322   1.665  17.207  1.5049 -1.9218 -2.7853
15993TIP3    H269471   6.265   1.566  17.306  1.1702  2.4040  1.5134
15994TIP3   OH269472   0.054   2.498  14.051  0.1031 -0.2046 -0.1596
15994TIP3    H169473   0.026   2.509  14.142 -0.1548 -0.9628 -0.1431
15994TIP3    H269474   0.046   2.404  14.035 -0.6729  0.0358 -1.2367
15995TIP3   OH269475   2.032   1.080   4.824 -0.1207 -0.3008  0.2610
15995TIP3    H169476   2.017   1.165   4.867  1.1961  0.4085 -0.6463
15995TIP3    H269477   2.024   1.016   4.895 -1.5791  0.5273  0.8753
15996TIP3   OH269478   4.895   5.698   1.408 -0.6161  0.1586  0.0371
15996TIP3    H169479   4.940   5.714   1.325  1.0238 -2.4549  0.3524
15996TIP3    H269480   4.947   5.629   1.450 -1.9699  0.7643  2.8107
15997TIP3   OH269481   3.706   0.976   2.602 -1.0628 -0.0481 -0.5501
15997TIP3    H169482   3.731   1.062   2.568 -1.0255 -0.1627 -0.8091
15997TIP3    H269483   3.784   0.922   2.591 -0.5052  0.3490  1.1995
15998TIP3   OH269484   5.078   0.457  13.076 -0.0119 -0.8063 -0.1721
15998TIP3    H169485   5.071   0.519  13.149  1.8945 -0.1115 -0.5473
15998TIP3    H269486   5.050   0.374  13.113  2.1652 -0.7302  1.7376
15999TIP3   OH269487   3.141   0.277  17.177 -0.2155  0.0205  0.3058
15999TIP3    H169488   3.069   0.222  17.210 -1.1598  2.0947  1.8238
15999TIP3    H269489   3.213   0.215  17.163 -1.8290 -1.8909  0.1156
16000TIP3   OH269490   3.185   3.886  10.729 -0.1583  0.0369 -0.3450
16000TIP3    H169491   3.235   3.929  10.659  0.7326  2.3305  1.6144
16000TIP3    H269492   3.098   3.927  10.724 -0.3321 -0.3630 -0.6017
16001TIP3   OH269493   4.469   6.207  13.900 -0.1776 -0.1282 -0.1701
16001TIP3    H169494   4.418   6.126  13.898 -0.4304  0.0342 -0.2924
16001TIP3    H269495   4.467   6.239  13.810  0.8407 -0.5568 -0.3532
16002TIP3   OH269496   6.779   4.775   3.023 -0.1551  0.5834  0.2610
16002TIP3    H169497   6.683   4.778   3.023 -0.1338  1.9700 -0.6740
16002TIP3    H269498   6.805   4.863   3.052  0.8333  0.1086  0.8052
16003TIP3   OH269499   0.817   3.104   3.028 -0.1843 -0.2437  0.0199
16003TIP3    H169500   0.816   3.183   3.082 -2.0105 -0.1610 -0.1318
16003TIP3    H269501   0.860   3.039   3.084  1.4122  0.8485  0.1114
16004TIP3   OH269502   0.526   6.200   2.702 -0.3302 -0.2552 -0.2931
16004TIP3    H169503   0.484   6.115   2.716 -0.2726 -0.1697  0.4028
16004TIP3    H269504   0.578   6.214   2.781 -1.0234  0.8231 -0.0159
16005TIP3   OH269505   5.934   5.095   3.480  0.1263  0.1697 -0.6088
16005TIP3    H169506   5.847   5.108   3.441 -0.1542 -0.0694 -0.0786
16005TIP3    H269507   5.985   5.170   3.451 -0.1457  0.1032 -1.2554
16006TIP3   OH269508   5.223   0.723  15.796  0.0679  0.6386 -0.5524
16006TIP3    H169509   5.139   0.751  15.831  0.5096 -1.1490  2.0895
16006TIP3    H269510   5.287   0.777  15.842  0.3767  2.1600 -2.7266
16007TIP3   OH269511   6.779   1.591  12.963  0.3570  0.1479  0.6585
16007TIP3    H169512   6.804   1.668  13.014  1.9610 -0.8251  1.3986
16007TIP3    H269513   6.837   1.521  12.995  0.6143 -0.7792 -1.7045
16008TIP3   OH269514   0.421   5.141  13.826 -0.0205 -0.0726  0.3522
16008TIP3    H169515   0.439   5.133  13.920 -1.0657  0.7291  0.6366
16008TIP3    H269516   0.450   5.058  13.789  2.2516  0.3834  1.0741
16009TIP3   OH269517   2.241   6.629  15.602 -0.0042  0.5812 -0.5294
16009TIP3    H169518   2.326   6.651  15.565 -0.1813  0.9199 -0.7468
16009TIP3    H269519   2.259   6.567  15.672  0.5528  1.7842  0.4098
16010TIP3   OH269520   6.614   0.732   1.669  0.4044 -0.1352 -0.2518
16010TIP3    H169521   6.607   0.664   1.736  1.2643 -0.3120 -0.3297
16010TIP3    H269522   6.613   0.685   1.586 -0.5282  0.0748 -0.3636
16011TIP3   OH269523   0.825   6.179  15.671  0.4837  0.1942 -0.1510
16011TIP3    H169524   0.867   6.101  15.633  2.5357  1.2453 -0.0644
16011TIP3    H269525   0.848   6.176  15.763 -1.2596 -0.2332  0.2957
16012TIP3   OH269526   5.265   4.130  12.866 -0.1329 -0.4966 -0.3069
16012TIP3    H169527   5.344   4.151  12.817 -0.1604 -0.4485 -0.3297
16012TIP3    H269528   5.194   4.166  12.814 -0.1706 -0.5424 -0.2860
16013TIP3   OH269529   1.330   2.076  13.552 -0.3781  1.0094  0.5638
16013TIP3    H169530   1.349   2.111  13.465  1.0593 -0.4059  0.2745
16013TIP3    H269531   1.235   2.070  13.556 -0.3926 -1.4288 -1.9623
16014TIP3   OH269532   4.078   4.104  14.466  0.4416  0.2341 -0.4470
16014TIP3    H169533   4.090   4.107  14.371 -0.4322  1.1881 -0.5419
16014TIP3    H269534   4.153   4.152  14.501  1.2991 -0.9843 -0.5989
16015TIP3   OH269535   2.359   4.640  14.121  0.3566  0.4014  0.3311
16015TIP3    H169536   2.387   4.581  14.052  1.3403  0.4174  0.6977
16015TIP3    H269537   2.288   4.594  14.165 -0.6973  0.6665 -1.0781
16016TIP3   OH269538   3.613   6.668   2.545  0.5439 -0.3268 -0.1116
16016TIP3    H169539   3.566   6.742   2.508  2.0143  1.5482  1.6464
16016TIP3    H269540   3.565   6.646   2.625 -0.6525 -2.1381 -1.3169
16017TIP3   OH269541   4.078   5.791  12.385  0.3172  1.0209  0.4929
16017TIP3    H169542   4.114   5.862  12.438  1.0606  0.8882  0.1779
16017TIP3    H269543   4.023   5.836  12.320 -0.1740  1.2193  1.0503
16018TIP3   OH269544   0.970   5.389  13.587 -0.1804 -0.2303 -0.1871
16018TIP3    H169545   0.949   5.332  13.514  0.3175 -0.1077 -0.4244
16018TIP3    H269546   0.961   5.333  13.665  1.9900 -1.0944 -0.5357
16019TIP3   OH269547   0.934   1.696   4.335 -0.3321  0.0054  0.2299
16019TIP3    H169548   0.910   1.783   4.305 -0.3674 -0.2658 -0.5533
16019TIP3    H269549   0.868   1.638   4.297 -0.0902 -0.4083  0.4312
16020TIP3   OH269550   5.685   5.057  16.359  0.0742  0.2513 -0.0017
16020TIP3    H169551   5.662   5.149  16.373  0.1025  0.1007  1.1496
16020TIP3    H269552   5.607   5.019  16.318 -0.5761  0.4452  1.0029
16021TIP3   OH269553   0.991   1.205   5.296  0.0461 -0.0964  0.3851
16021TIP3    H169554   0.972   1.295   5.320  1.4383  0.2032  0.3580
16021TIP3    H269555   1.017   1.209   5.204  0.7408 -0.4304  0.5619
16022TIP3   OH269556   0.732   2.397  17.217  0.2897 -0.1696  0.4267
16022TIP3    H169557   0.777   2.423  17.298 -0.0999  1.8929  0.0251
16022TIP3    H269558   0.646   2.439  17.223  0.0877 -0.3790 -0.8371
16023TIP3   OH269559   0.999   4.583   4.306  0.1106  0.0294  0.2292
16023TIP3    H169560   1.079   4.620   4.268 -0.4251 -0.7244 -1.6640
16023TIP3    H269561   1.030   4.533   4.382  1.1726  1.6155  0.8781
16024TIP3   OH269562   3.667   6.770  14.781 -0.1271 -0.6385 -0.7370
16024TIP3    H169563   3.695   6.833  14.716 -1.9107  1.1116  0.1512
16024TIP3    H269564   3.638   6.694  14.730 -1.7376  0.7958 -2.0317
16025TIP3   OH269565   0.014   6.730   0.346  0.6697  0.1822 -0.1964
16025TIP3    H169566  -0.002   6.748   0.253  2.6654 -3.2401 -1.3167
16025TIP3    H269567  -0.032   6.647   0.362  1.3861  0.1099  1.5578
16026TIP3   OH269568   4.203   5.107   3.141  0.1325 -0.8446 -0.1767
16026TIP3    H169569   4.207   5.193   3.099  2.4041 -2.2273 -2.9182
16026TIP3    H269570   4.223   5.124   3.233  0.7502  1.5240 -0.7175
16027TIP3   OH269571   1.639   6.258   6.803  0.3773 -0.6754  0.5596
16027TIP3    H169572   1.653   6.176   6.849 -0.1986  0.1794  2.3122
16027TIP3    H269573   1.721   6.306   6.814  0.2566 -0.4876  0.6397
16028TIP3   OH269574   4.063   4.384  12.308 -0.4145  0.0376 -0.3105
16028TIP3    H169575   4.106   4.420  12.231 -0.9746  0.3799 -0.4641
16028TIP3    H269576   4.076   4.289  12.301  0.9523  0.1885  0.0358
16029TIP3   OH269577   1.238   6.065   0.072 -0.7934 -0.1024 -0.2680
16029TIP3    H169578   1.297   6.046  -0.001  0.0361 -0.3609  0.4501
16029TIP3    H269579   1.288   6.038   0.149 -0.7598  2.2374  0.5557
16030TIP3   OH269580   2.407   3.807   2.742 -0.2528 -0.0644  0.2775
16030TIP3    H169581   2.399   3.872   2.812  0.3192  0.5238 -0.2058
16030TIP3    H269582   2.413   3.858   2.662 -0.2354 -0.7248 -0.1440
16031TIP3   OH269583   3.984   1.556  16.705  0.4933  0.0400  0.4534
16031TIP3    H169584   3.937   1.473  16.709  0.3235  0.1975  2.2212
16031TIP3    H269585   4.068   1.534  16.664  0.1517 -0.8595  0.2192
16032TIP3   OH269586   0.282   4.885   2.785  0.0046 -0.0058  0.1789
16032TIP3    H169587   0.227   4.878   2.707  0.0243 -2.0378  0.3155
16032TIP3    H269588   0.369   4.860   2.754 -0.1930 -1.8693  1.0390
16033TIP3   OH269589   6.030   1.413   1.442  0.1243  0.5025 -0.6018
16033TIP3    H169590   6.021   1.318   1.433 -2.0404  0.5283  0.9592
16033TIP3    H269591   5.991   1.449   1.362 -1.3262  0.1419 -0.0677
16034TIP3   OH269592   4.751   4.345   1.249 -0.0767 -1.0718  0.2036
16034TIP3    H169593   4.756   4.330   1.154 -0.1354 -0.6676  0.1323
16034TIP3    H269594   4.840   4.367   1.274  0.1643 -2.3000  0.4454
16035TIP3   OH269595   4.259   4.263   4.446 -0.2587 -0.5070 -0.0666
16035TIP3    H169596   4.260   4.240   4.539 -1.8673 -0.4196 -0.0153
16035TIP3    H269597   4.173   4.301   4.431 -0.6417 -2.0114 -1.9549
16036TIP3   OH269598   6.654   4.752   4.157  0.2744 -0.2506  0.1660
16036TIP3    H169599   6.677   4.661   4.138 -1.8730 -0.7602 -0.0891
16036TIP3    H269600   6.651   4.756   4.253 -0.1499 -0.5835  0.1664
16037TIP3   OH269601   0.276   1.481  14.331 -0.4377  0.1884  0.5282
16037TIP3    H169602   0.261   1.514  14.242 -0.3472 -1.1712 -0.0048
16037TIP3    H269603   0.347   1.536  14.365 -1.8627  2.0799  0.5309
16038TIP3   OH269604   4.271   1.583   0.385 -0.4923  0.1227  0.1503
16038TIP3    H169605   4.341   1.622   0.334  0.1015 -0.9728  0.1212
16038TIP3    H269606   4.201   1.649   0.383  0.1866  0.8399 -0.5626
16039TIP3   OH269607   2.444   3.414  10.745  0.0231  0.4348  0.4943
16039TIP3    H169608   2.413   3.324  10.744 -0.7673  0.7080 -2.0145
16039TIP3    H269609   2.399   3.457  10.672  2.0518  2.2815  0.2531
16040TIP3   OH269610   0.818   2.109   0.243  0.1340  0.3932  0.1398
16040TIP3    H169611   0.763   2.180   0.209  0.9153  0.9502  0.0486
16040TIP3    H269612   0.767   2.030   0.226 -1.3782  1.0273  1.4933
16041TIP3   OH269613   0.975   1.469  13.508  0.6465 -0.1428  0.5916
16041TIP3    H169614   1.008   1.403  13.447  0.0020  2.5325 -2.8473
16041TIP3    H269615   0.997   1.553  13.466 -4.9170  1.7945  1.1801
16042TIP3   OH269616   3.818   0.860  15.659 -0.1276 -0.4230 -0.1464
16042TIP3    H169617   3.852   0.848  15.747 -0.7197  1.0398  0.2882
16042TIP3    H269618   3.805   0.771  15.626  2.5193 -1.0202  0.2856
16043TIP3   OH269619   2.550   3.846   4.136  0.8416  0.3030 -0.0821
16043TIP3    H169620   2.627   3.903   4.140  2.2558 -1.5755 -0.0497
16043TIP3    H269621   2.574   3.777   4.074 -0.0071 -1.4861  1.5407
16044TIP3   OH269622   5.715   1.501  11.399  0.9033  0.0791 -0.1654
16044TIP3    H169623   5.770   1.540  11.467 -2.2668  0.5793  2.2370
16044TIP3    H269624   5.732   1.555  11.322  2.4212  1.3307  0.9979
16045TIP3   OH269625   3.730   1.565  14.404  0.1570  0.0391  0.0203
16045TIP3    H169626   3.707   1.569  14.497  0.8205 -0.5386  0.2096
16045TIP3    H269627   3.818   1.528  14.402 -0.0747 -0.4754 -0.8737
16046TIP3   OH269628   5.683   0.282  12.668 -0.8361  0.6636 -0.1268
16046TIP3    H169629   5.687   0.357  12.609 -0.2605  0.5492 -0.2449
16046TIP3    H269630   5.599   0.240  12.649 -1.2301  1.3686  0.0531
16047TIP3   OH269631   1.465   1.330  11.962  0.1115 -0.5271  0.1530
16047TIP3    H169632   1.532   1.307  11.898 -0.4861  0.4097 -0.8294
16047TIP3    H269633   1.504   1.400  12.014  0.1078 -0.3720 -0.0537
16048TIP3   OH269634   5.716   1.691  13.711  0.0326 -0.2418 -0.1616
16048TIP3    H169635   5.783   1.723  13.771 -0.9378  1.3883  0.0552
16048TIP3    H269636   5.766   1.646  13.643  1.3050  0.3216  0.3698
16049TIP3   OH269637   0.723   3.740   1.299 -0.2844 -0.7259  0.6032
16049TIP3    H169638   0.648   3.713   1.352 -0.2774 -0.5834  0.6868
16049TIP3    H269639   0.752   3.660   1.256 -0.4274 -0.7996  0.6431
16050TIP3   OH269640   1.697   3.102  13.281  0.1730 -0.3919  0.6261
16050TIP3    H169641   1.709   3.081  13.188 -0.4715  1.8606 -0.0009
16050TIP3    H269642   1.688   3.017  13.324  1.4906 -1.5059 -1.2230
16051TIP3   OH269643   0.447   6.187  11.178 -0.2203  0.4645 -0.3517
16051TIP3    H169644   0.420   6.123  11.244  0.2001  2.2218  1.6040
16051TIP3    H269645   0.529   6.152  11.143 -1.2450 -1.2583 -1.0564
16052TIP3   OH269646   3.817   2.389   2.902  0.3293  0.2655 -0.2659
16052TIP3    H169647   3.855   2.391   2.814  0.8695 -0.1847 -0.0449
16052TIP3    H269648   3.829   2.299   2.931 -2.5496 -0.3661 -0.9047
16053TIP3   OH269649   3.219   2.312  16.005 -0.5962  0.5689 -0.3886
16053TIP3    H169650   3.260   2.309  16.091 -0.2408  0.7278 -0.5537
16053TIP3    H269651   3.284   2.353  15.948 -0.6676  0.0860 -0.8217
16054TIP3   OH269652   3.666   0.984   2.914 -0.3039  0.4713  0.8497
16054TIP3    H169653   3.616   0.936   2.848 -0.5825  1.4809  0.3159
16054TIP3    H269654   3.752   0.998   2.875 -1.0836  2.8258 -0.1664
16055TIP3   OH269655   1.653   4.512   1.325  0.1871  0.1227 -0.4132
16055TIP3    H169656   1.692   4.536   1.240  2.6074 -0.2739  0.5485
16055TIP3    H269657   1.595   4.439   1.304  1.9473 -1.0099 -1.5355
16056TIP3   OH269658   4.557   0.364  16.477 -0.0145  0.0084  0.4174
16056TIP3    H169659   4.484   0.367  16.415 -1.5636 -0.8725  2.1469
16056TIP3    H269660   4.568   0.455  16.504  0.6350  0.3914 -1.0881
16057TIP3   OH269661   0.797   1.171  11.614 -0.2379  0.1823 -0.3731
16057TIP3    H169662   0.724   1.129  11.568  1.7942 -0.4908 -3.0829
16057TIP3    H269663   0.772   1.263  11.619 -2.5710 -0.4653  1.4045
16058TIP3   OH269664   2.829   3.691   1.582  0.2263  0.2208 -0.3278
16058TIP3    H169665   2.769   3.650   1.520  1.4974 -1.5321 -0.4484
16058TIP3    H269666   2.787   3.680   1.668  0.1961 -0.7092 -0.4520
16059TIP3   OH269667   6.296   1.847  11.734 -0.1110 -0.4813 -0.5995
16059TIP3    H169668   6.300   1.752  11.745 -1.5791 -0.4504  0.4460
16059TIP3    H269669   6.384   1.877  11.755  0.3897 -1.6141 -1.0177
16060TIP3   OH269670   1.804   2.376   1.883  0.5779 -0.1971  0.1759
16060TIP3    H169671   1.750   2.444   1.922  1.3831  0.2987  0.4427
16060TIP3    H269672   1.761   2.294   1.907 -0.6394  0.2260 -0.5136
16061TIP3   OH269673   5.451   1.999  12.436 -0.3310  0.2272 -0.3724
16061TIP3    H169674   5.493   2.073  12.392  0.6464 -0.3396 -0.4177
16061TIP3    H269675   5.412   2.037  12.515  1.1917  0.6103  0.2213
16062TIP3   OH269676   5.241   3.045   3.341 -0.0933  0.4412  1.1498
16062TIP3    H169677   5.332   3.027   3.320 -0.2597  0.7343  0.1655
16062TIP3    H269678   5.193   3.027   3.260 -0.9770 -0.2043  1.8020
16063TIP3   OH269679   3.108   3.817  11.298  0.2289 -0.1780 -0.8205
16063TIP3    H169680   3.143   3.733  11.327 -0.8933 -0.3766  0.0303
16063TIP3    H269681   3.138   3.826  11.208 -1.3889 -2.5177 -1.6581
16064TIP3   OH269682   0.132   6.157   6.348  0.4575 -0.1908 -0.3983
16064TIP3    H169683   0.087   6.200   6.421 -1.3292 -2.2452 -0.2410
16064TIP3    H269684   0.223   6.148   6.378  0.3181  1.3414  0.4999
16065TIP3   OH269685   4.323   0.851  13.589 -0.0615  0.3751  0.4696
16065TIP3    H169686   4.339   0.870  13.497  1.2740  0.4417  0.6981
16065TIP3    H269687   4.234   0.880  13.605 -1.0307 -1.5255 -1.3010
16066TIP3   OH269688   3.801   3.235  16.263  0.1646  0.1042 -0.3468
16066TIP3    H169689   3.751   3.311  16.231  0.5397  0.2951 -0.4928
16066TIP3    H269690   3.849   3.205  16.186  2.2832  1.5178  0.3734
16067TIP3   OH269691   0.641   2.720  15.702 -0.1072 -0.7374 -0.4991
16067TIP3    H169692   0.690   2.641  15.725 -0.1578 -0.7000 -0.2605
16067TIP3    H269693   0.561   2.714  15.754 -0.6903 -1.1553 -1.4147
16068TIP3   OH269694   6.345   4.951  15.827 -0.3102 -0.0790  0.1769
16068TIP3    H169695   6.317   4.861  15.846  0.3232 -0.1055  1.0191
16068TIP3    H269696   6.411   4.942  15.759 -1.2002 -0.1400 -0.6901
16069TIP3   OH269697   4.472   6.353  14.335 -0.4939 -0.1066 -0.1121
16069TIP3    H169698   4.541   6.339  14.270 -1.6273 -0.7807 -1.1938
16069TIP3    H269699   4.479   6.446  14.357 -0.3356  0.2379 -1.5088
16070TIP3   OH269700   4.819   2.381  11.003 -0.2953  0.0120  0.1482
16070TIP3    H169701   4.902   2.404  10.961 -0.9837 -2.2223 -2.6401
16070TIP3    H269702   4.771   2.333  10.935 -4.0405  1.6021  1.5726
16071TIP3   OH269703   1.458   1.586   2.239  0.1095 -0.0095 -0.0976
16071TIP3    H169704   1.478   1.563   2.330  0.1628  0.2935 -0.0316
16071TIP3    H269705   1.543   1.613   2.202  0.1843 -0.6327 -0.3865
16072TIP3   OH269706   3.533   3.512  15.511  0.4571  0.2106  0.3265
16072TIP3    H169707   3.512   3.532  15.420 -2.4473 -0.1609  0.8830
16072TIP3    H269708   3.628   3.495  15.510  0.5665  0.7076 -2.5102
16073TIP3   OH269709   1.309   1.841   3.329 -0.1948  0.1497 -0.4445
16073TIP3    H169710   1.312   1.824   3.423  0.0659  1.3882 -0.2165
16073TIP3    H269711   1.327   1.756   3.288  0.0560 -0.3166  0.6170
16074TIP3   OH269712   3.320   4.327  11.147  0.6751 -0.1272 -0.0921
16074TIP3    H169713   3.271   4.309  11.067  0.5291  0.9287 -0.2396
16074TIP3    H269714   3.377   4.401  11.124  1.8686 -0.9169  0.2663
16075TIP3   OH269715   2.166   3.896  13.232 -0.4361 -0.1862  0.2594
16075TIP3    H169716   2.090   3.934  13.277 -0.0820  0.3219  0.4315
16075TIP3    H269717   2.144   3.803  13.223 -1.3044  0.0546 -0.1593
16076TIP3   OH269718   5.237   2.058   1.065 -0.0669 -0.1643  0.1679
16076TIP3    H169719   5.204   2.145   1.088  1.9893  1.4215 -2.5390
16076TIP3    H269720   5.227   2.052   0.970  0.0396 -2.8029  0.2856
16077TIP3   OH269721   0.152   5.554  11.876 -0.0322  0.5614 -0.1118
16077TIP3    H169722   0.144   5.480  11.816  0.0289  0.6192 -0.1926
16077TIP3    H269723   0.231   5.600  11.846  0.5744  0.0224  0.6344
16078TIP3   OH269724   4.815   3.361  13.843 -0.0590 -0.3764  0.4167
16078TIP3    H169725   4.736   3.414  13.839  1.1229  1.2353 -2.2736
16078TIP3    H269726   4.783   3.271  13.842 -1.9262  0.2373  1.6456
16079TIP3   OH269727   0.560   0.712  16.569  0.0573 -0.0427  0.6146
16079TIP3    H169728   0.499   0.690  16.499  0.8608 -0.2632 -0.0310
16079TIP3    H269729   0.516   0.684  16.649 -0.1989 -1.3244  0.0532
16080TIP3   OH269730   0.866   6.466  10.313 -0.2892  0.5609 -0.0310
16080TIP3    H169731   0.773   6.490  10.318 -0.4093 -0.1219  1.0669
16080TIP3    H269732   0.913   6.546  10.337 -0.6212  0.4968  0.8226
16081TIP3   OH269733   4.835   5.268  15.733  0.4976 -0.2508 -0.2924
16081TIP3    H169734   4.746   5.275  15.769  0.1985 -0.9682 -0.8528
16081TIP3    H269735   4.883   5.216  15.798  0.3766 -0.2504 -0.2015
16082TIP3   OH269736   5.961   4.808   4.520  0.2864  0.6651 -0.2781
16082TIP3    H169737   5.942   4.865   4.595 -0.2387  1.7156 -1.1969
16082TIP3    H269738   6.012   4.862   4.460  0.9638 -0.2633 -0.5568
16083TIP3   OH269739   5.355   0.579  14.112  0.4941 -0.6776  0.2602
16083TIP3    H169740   5.314   0.540  14.035  0.1970 -0.2457  0.1993
16083TIP3    H269741   5.314   0.665  14.120 -0.5582 -1.2992  1.7809
16084TIP3   OH269742   5.957   1.129   1.254 -0.1684  0.2694  0.5871
16084TIP3    H169743   5.980   1.099   1.342 -1.7380  2.2834  1.7312
16084TIP3    H269744   5.871   1.090   1.237  0.2490 -0.3320 -0.1789
16085TIP3   OH269745   5.730   0.681  16.950  0.6941 -0.0491 -0.3284
16085TIP3    H169746   5.737   0.731  17.031  0.3016  1.8279 -1.4311
16085TIP3    H269747   5.817   0.641  16.939  0.5205 -0.9807  1.4003
16086TIP3   OH269748   4.769   2.841   4.473 -0.6395  0.5483 -0.0965
16086TIP3    H169749   4.849   2.790   4.483 -0.9999 -0.0669 -0.3084
16086TIP3    H269750   4.699   2.779   4.496 -1.1400  0.6843 -1.2608
16087TIP3   OH269751   1.644   5.267   1.105  0.2342 -0.1142 -0.4751
16087TIP3    H169752   1.709   5.337   1.103 -1.3374  1.3646 -1.1265
16087TIP3    H269753   1.652   5.229   1.192  1.1486  0.8295 -0.1409
16088TIP3   OH269754   2.345   2.941   4.830 -0.3172  0.1139  0.2142
16088TIP3    H169755   2.392   3.019   4.861  0.8565 -1.0509  1.4427
16088TIP3    H269756   2.268   2.976   4.785  0.3077  1.9918  0.5369
16089TIP3   OH269757   3.831   5.442  14.344 -0.2195  0.1057  0.2410
16089TIP3    H169758   3.833   5.527  14.299 -1.5005 -0.1103 -0.2361
16089TIP3    H269759   3.905   5.394  14.306  1.4633  1.5266  1.5993
16090TIP3   OH269760   5.624   1.704   2.453 -0.4333  0.4593  0.3780
16090TIP3    H169761   5.688   1.643   2.489 -0.9351 -0.2055  0.1591
16090TIP3    H269762   5.556   1.648   2.416 -0.3870  1.1427 -0.7582
16091TIP3   OH269763   0.815   3.507  13.437  0.0181 -0.5093  0.6671
16091TIP3    H169764   0.763   3.430  13.415  0.1411 -0.7069  1.0471
16091TIP3    H269765   0.788   3.530  13.526  1.4408 -1.3551  1.3492
16092TIP3   OH269766   0.956   6.381  14.041 -0.6379 -0.0553 -0.4038
16092TIP3    H169767   1.002   6.439  14.102  0.8817  0.1308 -1.6782
16092TIP3    H269768   0.902   6.440  13.989 -1.5256 -0.1540  0.3974
16093TIP3   OH269769   0.849   3.916  10.556  0.0472  0.0547 -0.1244
16093TIP3    H169770   0.898   3.848  10.603 -0.1505 -0.6167 -0.8843
16093TIP3    H269771   0.819   3.975  10.624  1.7198  0.3505  0.3891
16094TIP3   OH269772   0.626   1.768  12.210 -0.1995  0.1703 -0.6590
16094TIP3    H169773   0.596   1.834  12.148 -0.7285 -0.5405 -1.1663
16094TIP3    H269774   0.584   1.791  12.293 -0.5381  0.3476 -0.8817
16095TIP3   OH269775   6.704   1.679   3.399  0.1893  0.5013 -0.0968
16095TIP3    H169776   6.658   1.758   3.427 -1.0259 -0.6473  1.2645
16095TIP3    H269777   6.666   1.609   3.453  1.2225 -1.0084 -1.2801
16096TIP3   OH269778   0.906   4.514  10.689  0.3477  0.4023  0.8123
16096TIP3    H169779   0.949   4.472  10.614 -0.8287 -0.4657  0.5942
16096TIP3    H269780   0.964   4.585  10.714  2.1747 -1.0955  0.8935
16097TIP3   OH269781   5.582   6.084  16.830 -0.0038  0.0092  0.3772
16097TIP3    H169782   5.602   6.168  16.790  0.7874 -0.5376 -0.3918
16097TIP3    H269783   5.650   6.073  16.897 -0.4446  0.2370  0.8645
16098TIP3   OH269784   1.918   0.055   2.496 -0.2098 -0.0671 -0.1941
16098TIP3    H169785   1.874   0.133   2.530  0.2644  0.2402 -0.2729
16098TIP3    H269786   1.848   0.003   2.458 -0.7297 -0.3654  1.1507
16099TIP3   OH269787   0.276   1.270  16.338 -0.0404 -0.4164  0.5906
16099TIP3    H169788   0.250   1.191  16.290  1.6162 -0.3176 -0.5242
16099TIP3    H269789   0.194   1.316  16.356 -0.9881 -2.1470  0.8332
16100TIP3   OH269790   3.006   4.720  17.011 -0.1262 -0.0606 -0.9042
16100TIP3    H169791   2.952   4.785  17.056 -1.1133  0.1120 -2.3133
16100TIP3    H269792   2.958   4.699  16.932  0.0143 -2.8161 -0.3096
16101TIP3   OH269793   3.394   4.141  12.680 -0.4063 -0.7774  0.2889
16101TIP3    H169794   3.396   4.230  12.715  1.3593 -0.3600 -0.7646
16101TIP3    H269795   3.306   4.131  12.645 -1.2640 -0.1733  2.2082
16102TIP3   OH269796   5.844   5.218  16.163  0.8382  0.2207  0.1154
16102TIP3    H169797   5.839   5.239  16.070  2.2744  1.8288  0.3636
16102TIP3    H269798   5.833   5.303  16.207  0.4990 -0.4778  1.3889
16103TIP3   OH269799   5.546   1.842  14.368 -0.0222  0.1142 -0.1589
16103TIP3    H169800   5.532   1.792  14.288  1.1447 -0.4572 -0.0073
16103TIP3    H269801   5.622   1.802  14.409  0.4671  1.5277  0.3444
16104TIP3   OH269802   6.484   6.467  11.209 -0.5340 -0.0483 -0.0434
16104TIP3    H169803   6.408   6.523  11.192 -0.5693  0.0362  0.4023
16104TIP3    H269804   6.504   6.428  11.124 -2.1608 -1.4677  0.2026
16105TIP3   OH269805   5.773   5.941   4.879  0.7137  0.0220  0.2637
16105TIP3    H169806   5.834   6.005   4.916 -0.2867 -0.1504  2.2260
16105TIP3    H269807   5.807   5.925   4.791  1.5731  2.4698  0.1055
16106TIP3   OH269808   3.509   4.507   5.515  0.0846 -0.2453  0.8066
16106TIP3    H169809   3.534   4.598   5.531  1.5386 -0.4608 -0.1869
16106TIP3    H269810   3.499   4.500   5.420 -1.5451 -0.7578  0.9844
16107TIP3   OH269811   0.958   1.741  15.193  0.3793  0.3486 -0.5568
16107TIP3    H169812   0.927   1.828  15.220  0.3754  0.6360 -1.4757
16107TIP3    H269813   0.878   1.692  15.172  0.2084 -0.7315  2.4393
16108TIP3   OH269814   1.187   2.278  16.295  0.1256 -0.1208 -0.3212
16108TIP3    H169815   1.147   2.195  16.322  0.1720 -0.7860 -2.1988
16108TIP3    H269816   1.113   2.334  16.273  0.0461  0.8092  2.1906
16109TIP3   OH269817   6.098   4.467  14.155  0.1178  0.2149 -0.3163
16109TIP3    H169818   6.070   4.388  14.201 -1.7309  0.9511 -0.1447
16109TIP3    H269819   6.127   4.526  14.225  0.4202  0.1165 -0.3576
16110TIP3   OH269820   4.031   4.735  14.981 -0.1384 -0.3667 -0.1631
16110TIP3    H169821   4.094   4.716  14.912  1.0596  0.0966  0.7968
16110TIP3    H269822   4.018   4.830  14.977  1.1760 -0.0933  1.2747
16111TIP3   OH269823   0.252   6.649   2.131 -0.2401 -0.0424 -0.0503
16111TIP3    H169824   0.205   6.648   2.048 -0.8349  0.1084  0.2778
16111TIP3    H269825   0.256   6.557   2.157  2.4662 -0.4200 -1.6269
16112TIP3   OH269826   4.143   0.675   4.237 -0.1554  0.1449 -0.5563
16112TIP3    H169827   4.190   0.596   4.265  0.3873  1.0516  1.1212
16112TIP3    H269828   4.171   0.689   4.147  1.1922 -0.5145 -0.2527
16113TIP3   OH269829   2.573   2.064  12.519  0.2389 -0.2733  0.2092
16113TIP3    H169830   2.578   2.144  12.571 -0.3033 -0.1509  0.0784
16113TIP3    H269831   2.502   2.014  12.559 -1.7455  0.8602 -1.8316
16114TIP3   OH269832   3.987   3.654  12.451  0.0352  0.2248 -0.2656
16114TIP3    H169833   3.987   3.685  12.542  0.2496 -0.5495  0.0036
16114TIP3    H269834   3.895   3.641  12.430  0.0088  0.0555 -0.0410
16115TIP3   OH269835   2.102   4.074  13.808 -0.2762 -0.2891 -0.2216
16115TIP3    H169836   2.160   4.110  13.741  1.3496  0.0011  1.2995
16115TIP3    H269837   2.053   4.006  13.763  1.1234 -0.4288 -1.5920
16116TIP3   OH269838   3.232   1.339   5.732 -0.3222  0.2730 -0.5695
16116TIP3    H169839   3.185   1.390   5.797 -0.7957 -1.4589  0.4784
16116TIP3    H269840   3.289   1.282   5.783  0.4127 -0.0373 -1.7229
16117TIP3   OH269841   2.976   4.940   1.152 -0.4279 -0.5752 -0.0895
16117TIP3    H169842   2.885   4.912   1.153 -0.4876 -0.3915 -0.2120
16117TIP3    H269843   3.007   4.916   1.065 -0.3588 -0.6415 -0.0461
16118TIP3   OH269844   2.509   3.414  12.711 -0.6400 -0.1191  0.0892
16118TIP3    H169845   2.479   3.446  12.796 -0.3468  0.9953 -0.2136
16118TIP3    H269846   2.515   3.319  12.721  2.0993  0.2084  2.1775
16119TIP3   OH269847   6.758   2.143   0.158 -0.8240  0.2624 -0.2631
16119TIP3    H169848   6.699   2.083   0.203  0.8745  0.2424  2.0287
16119TIP3    H269849   6.753   2.224   0.209  2.8361 -0.4638  1.3954
16120TIP3   OH269850   3.684   5.940  12.975 -0.0508 -0.8786 -0.5947
16120TIP3    H169851   3.594   5.972  12.980  0.5772  1.0974 -1.3555
16120TIP3    H269852   3.707   5.919  13.066 -0.7406  0.1559 -0.1684
16121TIP3   OH269853   2.015   3.051   1.241  0.1953 -0.3541  0.0753
16121TIP3    H169854   2.065   3.068   1.161 -0.2491 -1.4168 -0.4359
16121TIP3    H269855   1.936   3.106   1.232  1.8249  2.3302  1.4798
16122TIP3   OH269856   5.667   4.831   4.211  0.2570 -0.2480 -0.1082
16122TIP3    H169857   5.628   4.890   4.275 -0.3126 -0.3782 -0.3364
16122TIP3    H269858   5.704   4.889   4.144  2.6457 -0.0321  1.3419
16123TIP3   OH269859   2.341   2.990  12.786  0.2329 -0.7597 -0.2077
16123TIP3    H169860   2.262   3.031  12.750  0.3070 -0.4103  0.0216
16123TIP3    H269861   2.308   2.928  12.851  0.0656 -1.9403 -1.4107
16124TIP3   OH269862   4.184   6.668  16.706 -0.0343 -0.2355  0.0626
16124TIP3    H169863   4.165   6.748  16.656  0.0012 -1.2552 -1.5920
16124TIP3    H269864   4.155   6.597  16.650  0.8082 -1.4410  1.1361
16125TIP3   OH269865   5.740   4.280   3.571  0.9222 -0.4795  0.0971
16125TIP3    H169866   5.727   4.205   3.513  0.3468 -1.3262  1.3080
16125TIP3    H269867   5.771   4.242   3.653  2.8414  0.8160 -0.0133
16126TIP3   OH269868   6.768   3.826  16.313  0.2016  0.4529  0.5030
16126TIP3    H169869   6.760   3.841  16.407 -2.2521  1.5093  0.1509
16126TIP3    H269870   6.736   3.736  16.301  1.0770  0.1016  0.7323
16127TIP3   OH269871   4.219   3.501   2.744 -0.9979  0.5075 -0.5502
16127TIP3    H169872   4.301   3.523   2.788 -0.7245  0.8921 -1.2461
16127TIP3    H269873   4.232   3.528   2.653 -1.3580 -0.7708 -0.9968
16128TIP3   OH269874   2.577   1.807   4.161  0.6017 -0.2242 -0.3215
16128TIP3    H169875   2.556   1.840   4.248  0.3955 -0.7230 -0.1792
16128TIP3    H269876   2.571   1.712   4.170  0.2702 -0.2644 -0.9577
16129TIP3   OH269877   6.551   3.381  11.649 -0.1023  0.1434  0.4196
16129TIP3    H169878   6.587   3.313  11.592  0.3370  1.0947 -0.4549
16129TIP3    H269879   6.512   3.333  11.722  0.4112 -1.0354 -0.0662
16130TIP3   OH269880   3.728   6.179  14.023 -0.2806  0.5245  0.2379
16130TIP3    H169881   3.796   6.157  13.960  0.1416  1.2324  0.4410
16130TIP3    H269882   3.706   6.270  14.005  1.2576  1.3749  2.3719
16131TIP3   OH269883   4.698   1.855   2.000 -0.8432 -0.6565  0.5827
16131TIP3    H169884   4.784   1.813   2.006  0.4102  1.7737  0.2744
16131TIP3    H269885   4.665   1.856   2.090 -0.4213 -1.3244  0.7471
16132TIP3   OH269886   5.865   5.800   0.147 -0.0164 -0.4210  0.0657
16132TIP3    H169887   5.945   5.811   0.197 -0.1835 -1.6169  0.6240
16132TIP3    H269888   5.893   5.802   0.056  0.5292 -0.0264  0.2367
16133TIP3   OH269889   4.423   0.442   4.800 -0.3591  0.2257  0.6957
16133TIP3    H169890   4.447   0.505   4.868  2.1249 -1.8420  1.8160
16133TIP3    H269891   4.506   0.408   4.768 -1.5946 -1.1425 -1.2036
16134TIP3   OH269892   4.368   5.871  12.042 -0.4461  0.0285 -0.0777
16134TIP3    H169893   4.454   5.913  12.037 -0.5721  0.1996 -0.9215
16134TIP3    H269894   4.379   5.800  12.105 -0.4670  1.8742  2.0477
16135TIP3   OH269895   5.864   2.851  13.316  0.1021  0.2739 -0.6691
16135TIP3    H169896   5.886   2.777  13.373 -1.0645  0.2185 -0.2812
16135TIP3    H269897   5.914   2.835  13.236 -0.1105 -0.9238 -0.5779
16136TIP3   OH269898   3.725   1.635   5.559  0.1248  0.2390 -0.1420
16136TIP3    H169899   3.644   1.598   5.526 -0.1511  0.6639  0.0534
16136TIP3    H269900   3.787   1.628   5.486 -0.2859  0.5488 -0.5227
16137TIP3   OH269901   1.558   6.624   3.509  0.1908  0.3903 -0.0771
16137TIP3    H169902   1.583   6.682   3.581  1.0310 -0.0986  0.0359
16137TIP3    H269903   1.574   6.536   3.543  0.1256  0.1423 -0.6841
16138TIP3   OH269904   6.025   5.345   0.015  0.3956  0.2116 -0.6833
16138TIP3    H169905   5.944   5.324  -0.032 -1.4627 -1.5434  3.0594
16138TIP3    H269906   6.061   5.260   0.039  0.6026  1.0577  2.1045
16139TIP3   OH269907   0.857   0.767  13.584 -0.3515 -0.1492 -0.2249
16139TIP3    H169908   0.922   0.702  13.557  1.0326  1.5712 -1.1580
16139TIP3    H269909   0.774   0.719  13.585  0.6990 -2.0431 -0.3763
16140TIP3   OH269910   2.371   2.206   1.137  0.1049 -0.0250  0.0323
16140TIP3    H169911   2.281   2.180   1.120  0.5588 -1.8357  0.2969
16140TIP3    H269912   2.369   2.301   1.135 -1.7884 -0.0475 -0.0951
16141TIP3   OH269913   5.367   4.582  11.617  0.3145 -0.5852  0.1389
16141TIP3    H169914   5.443   4.610  11.566 -0.0453  0.9745  0.4099
16141TIP3    H269915   5.379   4.624  11.702 -0.7276 -0.4863  0.2495
16142TIP3   OH269916   6.633   5.074   1.679  0.5896  0.0487  0.0805
16142TIP3    H169917   6.648   4.989   1.720  0.4146 -0.0302 -0.0190
16142TIP3    H269918   6.630   5.056   1.585 -0.5000  0.0103  0.1257
16143TIP3   OH269919   1.710   5.654   4.608  0.3661  0.2230 -0.5565
16143TIP3    H169920   1.642   5.666   4.674 -0.2698 -1.2978 -0.9223
16143TIP3    H269921   1.777   5.718   4.631 -1.0729  1.5692 -0.0427
16144TIP3   OH269922   1.145   2.551  12.668 -0.5108  0.0509 -0.8129
16144TIP3    H169923   1.074   2.494  12.699 -1.4669  0.6965 -1.7742
16144TIP3    H269924   1.203   2.493  12.619  0.5261 -0.8026  1.3744
16145TIP3   OH269925   1.760   3.408  15.673 -0.0356  0.9639  0.1249
16145TIP3    H169926   1.738   3.465  15.747 -0.1423  1.2800 -0.1494
16145TIP3    H269927   1.770   3.468  15.599  1.0454  0.7549  0.0867
16146TIP3   OH269928   3.588   4.564   4.263 -0.1996  0.3709  0.2939
16146TIP3    H169929   3.546   4.478   4.264  1.9898 -0.7854 -1.4441
16146TIP3    H269930   3.640   4.565   4.344  1.1023 -0.6727 -0.5057
16147TIP3   OH269931   6.009   4.668   3.008 -0.8011  1.0128  0.4314
16147TIP3    H169932   6.042   4.581   3.032 -1.2386  0.8035  0.2771
16147TIP3    H269933   5.984   4.659   2.916 -1.7609  1.0243  0.6840
16148TIP3   OH269934   2.393   2.536   3.858 -0.1941 -0.6025 -0.1425
16148TIP3    H169935   2.377   2.605   3.793  2.7242 -0.1800 -0.5123
16148TIP3    H269936   2.397   2.456   3.806  1.9058 -0.2937 -0.5219
16149TIP3   OH269937   2.024   3.439   0.636  0.0880  0.0649 -0.2579
16149TIP3    H169938   2.068   3.365   0.679  1.4816  1.2399  0.4099
16149TIP3    H269939   2.095   3.487   0.593 -0.5454  1.9841  0.7890
16150TIP3   OH269940   0.570   4.042  15.365 -0.0214  0.6141  0.5714
16150TIP3    H169941   0.622   4.066  15.288  0.9225  0.5274  1.1720
16150TIP3    H269942   0.599   3.953  15.387  0.5485  1.0709  1.7099
16151TIP3   OH269943   0.824   0.924  13.329 -0.4785 -0.2680 -0.1202
16151TIP3    H169944   0.844   0.870  13.405 -1.1758 -1.1955 -0.5805
16151TIP3    H269945   0.906   0.926  13.279 -0.9526 -2.5088 -1.0641
16152TIP3   OH269946   0.267   2.995  11.190 -0.0671 -0.0947  0.1076
16152TIP3    H169947   0.353   2.953  11.186 -0.8151 -1.8534  1.3858
16152TIP3    H269948   0.253   3.011  11.284  0.7808  4.4067 -0.4149
16153TIP3   OH269949   3.335   3.495  12.251 -0.1877 -0.4259  0.0493
16153TIP3    H169950   3.414   3.440  12.256 -1.6763 -2.6822 -0.8419
16153TIP3    H269951   3.311   3.494  12.159 -0.4959  1.4200  0.0915
16154TIP3   OH269952   2.736   2.256   0.407  0.9467  0.4581 -0.1885
16154TIP3    H169953   2.703   2.227   0.322  1.1672 -0.1222 -0.0782
16154TIP3    H269954   2.704   2.346   0.416 -2.9487 -0.9702  1.1156
16155TIP3   OH269955   3.105   4.509  14.053  0.7287 -0.1547 -0.2230
16155TIP3    H169956   3.132   4.433  14.104 -1.1083 -0.3243  0.5329
16155TIP3    H269957   3.146   4.497  13.968  2.5018 -0.7087  0.6840
16156TIP3   OH269958   1.041   3.167   3.319 -0.0221 -0.5734 -0.6917
16156TIP3    H169959   0.977   3.216   3.268  0.6162 -0.9566 -1.8768
16156TIP3    H269960   1.049   3.084   3.273  1.6136 -0.3799 -0.7561
16157TIP3   OH269961   2.503   1.507   2.624 -0.3069 -0.0948 -0.6726
16157TIP3    H169962   2.424   1.454   2.620 -1.0279  0.8701  0.4035
16157TIP3    H269963   2.531   1.516   2.533 -0.9785 -1.1147 -0.9856
16158TIP3   OH269964   2.263   5.253   4.672 -0.1716  0.6418  0.1751
16158TIP3    H169965   2.283   5.270   4.764 -0.0659 -1.4529  0.5645
16158TIP3    H269966   2.348   5.256   4.628  0.0140 -0.2782  0.4706
16159TIP3   OH269967   3.503   0.285  15.264  0.4886  0.6395  0.0321
16159TIP3    H169968   3.455   0.288  15.181 -0.2773  0.6117  0.4616
16159TIP3    H269969   3.586   0.327  15.246  1.0278 -0.9134 -1.2125
16160TIP3   OH269970   3.044   6.115  12.743 -0.4613 -0.3717  0.5332
16160TIP3    H169971   3.102   6.186  12.715 -0.0423 -0.2220  1.7229
16160TIP3    H269972   3.039   6.057  12.668  0.7768 -0.0902  0.2159
16161TIP3   OH269973   3.147   0.026  12.253 -0.2431  0.2916 -0.3848
16161TIP3    H169974   3.123   0.094  12.315 -0.4425 -0.3255  0.2200
16161TIP3    H269975   3.241   0.012  12.268 -0.9362 -2.2216  2.1721
16162TIP3   OH269976   0.733   1.616   5.426 -0.4415  0.2096 -0.7346
16162TIP3    H169977   0.777   1.680   5.481  0.0405 -0.5899 -0.1985
16162TIP3    H269978   0.644   1.651   5.416 -1.1145 -0.5622  2.0724
16163TIP3   OH269979   1.601   3.231  13.792  0.3984 -0.7717 -0.0988
16163TIP3    H169980   1.620   3.284  13.870  1.3464 -0.9400 -0.2045
16163TIP3    H269981   1.513   3.257  13.766  1.0628  1.1879 -0.5045
16164TIP3   OH269982   1.804   4.855   1.654 -0.3099  0.2212 -0.1078
16164TIP3    H169983   1.842   4.776   1.691 -2.3013 -1.0647 -0.6902
16164TIP3    H269984   1.842   4.862   1.566 -1.7431 -1.3261 -0.8726
16165TIP3   OH269985   0.820   3.491   1.197 -0.0071  0.4008 -0.5267
16165TIP3    H169986   0.904   3.475   1.152 -0.1131 -1.0008 -0.2588
16165TIP3    H269987   0.833   3.454   1.284 -0.0740  2.4176  0.3645
16166TIP3   OH269988   2.987   0.547   2.126 -0.5321  0.0805  0.5089
16166TIP3    H169989   2.974   0.572   2.217  0.9604  0.5795  0.5999
16166TIP3    H269990   3.048   0.612   2.092 -0.6148 -0.4504 -0.6826
16167TIP3   OH269991   3.992   4.623   1.275 -0.1332  0.7583  0.7291
16167TIP3    H169992   3.930   4.566   1.229  0.5045  1.1086 -0.6069
16167TIP3    H269993   4.061   4.639   1.211 -0.4766  3.3588  0.9450
16168TIP3   OH269994   0.653   0.740  13.127  0.3981  0.2302 -0.3804
16168TIP3    H169995   0.665   0.800  13.200 -0.1310  1.6176 -1.4109
16168TIP3    H269996   0.585   0.679  13.157  1.9576 -0.7647  1.2080
16169TIP3   OH269997   3.229   4.623  11.291 -0.7524  0.6692 -0.1762
16169TIP3    H169998   3.316   4.593  11.265 -0.6087  0.1333  0.8844
16169TIP3    H269999   3.223   4.713  11.260 -0.3890  0.2267 -1.5698
16170TIP3   OH270000   2.430   6.130   4.623  0.6421  0.6187  0.3162
16170TIP3    H170001   2.377   6.208   4.609 -0.7947 -0.5078 -0.6073
16170TIP3    H270002   2.419   6.109   4.716 -0.1608  0.6566  0.2296
16171TIP3   OH270003   6.144   2.777  16.503 -0.4725  0.3608  0.1165
16171TIP3    H170004   6.087   2.754  16.430  0.3133  0.0617 -0.4104
16171TIP3    H270005   6.145   2.699  16.559 -1.5258  0.7894  0.7498
16172TIP3   OH270006   2.895   2.951   1.110  0.2745  0.3564  0.3094
16172TIP3    H170007   2.957   2.935   1.039  1.8595  0.9086  1.5510
16172TIP3    H270008   2.832   2.879   1.103  0.0319  0.7415 -2.0375
16173TIP3   OH270009   5.041   4.151   3.093 -0.0144  0.9650  0.8729
16173TIP3    H170010   5.024   4.087   3.025 -0.9033  0.4778  1.5449
16173TIP3    H270011   5.083   4.224   3.048 -1.0191  0.8449 -0.2632
16174TIP3   OH270012   2.512   3.650   4.363 -0.0790  0.1168 -0.2040
16174TIP3    H170013   2.480   3.737   4.338  0.0551  0.3183  0.3223
16174TIP3    H270014   2.605   3.651   4.339  0.1547  0.4638  0.6752
16175TIP3   OH270015   3.991   6.459  17.080 -0.1278 -0.2826 -0.5832
16175TIP3    H170016   4.032   6.381  17.042  2.1104 -0.5028  2.1721
16175TIP3    H270017   3.927   6.424  17.142 -0.7142  0.0826 -0.9823
16176TIP3   OH270018   4.801   2.288  16.932 -0.0809 -0.4698 -0.3359
16176TIP3    H170019   4.818   2.202  16.972  1.1046  0.1828  0.5763
16176TIP3    H270020   4.888   2.326  16.919 -0.5395  0.0868 -1.8869
16177TIP3   OH270021   1.721   2.835  12.570  0.1158  0.3631  0.4279
16177TIP3    H170022   1.810   2.804  12.553 -0.6742 -1.1727 -1.0242
16177TIP3    H270023   1.664   2.763  12.542 -1.6288  1.7849  0.2079
16178TIP3   OH270024   2.336   4.266   0.272  0.0006  0.2364  0.4916
16178TIP3    H170025   2.398   4.237   0.339  0.9712  0.6848 -0.2080
16178TIP3    H270026   2.254   4.221   0.295  0.9107 -1.3782  0.6787
16179TIP3   OH270027   2.868   2.840  17.198 -0.4848  0.0746  0.4200
16179TIP3    H170028   2.792   2.832  17.256 -0.9105  1.0548  0.0080
16179TIP3    H270029   2.834   2.818  17.111  0.6049 -3.4088  0.7931
16180TIP3   OH270030   1.153   1.328   0.699  0.2257  0.7256 -0.4935
16180TIP3    H170031   1.117   1.341   0.612 -0.0609  0.7789 -0.3655
16180TIP3    H270032   1.085   1.281   0.747  0.8056 -0.2491 -0.6155
16181TIP3   OH270033   0.615   1.509   5.824  0.3282  0.5143  0.0570
16181TIP3    H170034   0.557   1.573   5.865  1.1138  0.8723  0.6242
16181TIP3    H270035   0.606   1.431   5.879  0.1608  0.4714 -0.0297
16182TIP3   OH270036   4.485   5.329  14.039  0.4705  0.2210  0.0488
16182TIP3    H170037   4.550   5.326  14.109  1.1035 -0.0230 -0.5427
16182TIP3    H270038   4.409   5.373  14.078  1.4255  1.5808  0.3926
16183TIP3   OH270039   0.532   1.822   0.347  0.6627 -0.2503 -0.2515
16183TIP3    H170040   0.475   1.759   0.393 -0.3083  0.4026 -0.5541
16183TIP3    H270041   0.554   1.887   0.413  1.9528 -1.0672  0.1572
16184TIP3   OH270042   4.920   2.093   3.278 -0.1818 -0.1024 -0.1649
16184TIP3    H170043   4.907   2.080   3.372 -0.0174  0.2559 -0.0900
16184TIP3    H270044   4.919   2.005   3.241 -3.2024 -0.0800 -0.2166
16185TIP3   OH270045   3.080   6.266  11.552 -0.6219  0.3644  0.1404
16185TIP3    H170046   2.989   6.244  11.529 -0.8022 -0.3827  1.5516
16185TIP3    H270047   3.133   6.204  11.501 -0.9320  0.1949  0.0220
16186TIP3   OH270048   4.354   5.609  16.611 -0.0724  0.1137 -0.4030
16186TIP3    H170049   4.365   5.690  16.661 -1.0406 -0.1791  0.2925
16186TIP3    H270050   4.307   5.635  16.532 -0.8746  0.1339  0.0810
16187TIP3   OH270051   6.127   5.040  10.805 -0.4029 -0.1978  0.0143
16187TIP3    H170052   6.160   5.082  10.885  1.3357  1.0416 -1.3042
16187TIP3    H270053   6.203   4.995  10.769 -0.9063  0.1431 -1.4898
16188TIP3   OH270054   6.101   5.267   1.191  0.0308 -0.1325 -0.1245
16188TIP3    H170055   6.132   5.357   1.185  0.5000 -0.4748 -3.6999
16188TIP3    H270056   6.071   5.245   1.103 -2.3795 -2.6781  1.2407
16189TIP3   OH270057   2.722   4.405  16.486 -0.3719 -0.5689 -0.1696
16189TIP3    H170058   2.678   4.461  16.550 -0.6819 -0.5918 -0.3612
16189TIP3    H270059   2.716   4.317  16.523  1.0143 -0.3517  0.6188
16190TIP3   OH270060   2.942   5.514   0.785  0.1446  0.0439 -0.3023
16190TIP3    H170061   2.989   5.455   0.844 -2.0320 -2.7853 -1.2615
16190TIP3    H270062   2.938   5.597   0.832  0.7363 -1.4034  2.4110
16191TIP3   OH270063   5.228   0.044  15.617 -0.0277 -0.1201 -0.1144
16191TIP3    H170064   5.270   0.130  15.610  0.7683 -0.5948 -1.5787
16191TIP3    H270065   5.141   0.057  15.578  0.8783 -0.4518 -2.3548
16192TIP3   OH270066   1.023   2.321   5.116 -0.2673 -0.1823 -0.5561
16192TIP3    H170067   1.102   2.375   5.108 -0.4486  0.1189 -0.3382
16192TIP3    H270068   0.968   2.369   5.177 -0.6317 -0.3794 -0.7287
16193TIP3   OH270069   0.004   2.267  11.153 -0.2862 -0.0038  0.0162
16193TIP3    H170070   0.053   2.195  11.113  0.5169  0.0691  0.8374
16193TIP3    H270071  -0.064   2.289  11.090 -0.5325 -1.4873 -0.2409
16194TIP3   OH270072   5.987   6.292  12.143 -0.4916 -0.2211  0.6610
16194TIP3    H170073   5.973   6.294  12.238  2.0833  0.7675  1.0611
16194TIP3    H270074   6.021   6.379  12.123  0.3911 -0.9338 -0.9521
16195TIP3   OH270075   1.885   6.618  15.265 -0.2208  0.7903  0.0038
16195TIP3    H170076   1.972   6.578  15.266 -0.5598  0.0089 -1.0870
16195TIP3    H270077   1.899   6.705  15.229 -0.0113  0.3358 -1.0396
16196TIP3   OH270078   6.517   3.056   2.889 -0.0974 -0.8561  0.4643
16196TIP3    H170079   6.573   2.979   2.897  1.9556  0.7458  2.1165
16196TIP3    H270080   6.515   3.075   2.795 -0.8183 -3.0292  0.0254
16197TIP3   OH270081   6.386   2.610  12.440 -0.5726 -0.1890  0.1613
16197TIP3    H170082   6.392   2.605  12.536  0.7767 -2.4549 -0.0117
16197TIP3    H270083   6.460   2.664  12.414 -1.4766  1.2111  0.4398
16198TIP3   OH270084   2.223   5.458   6.571 -0.8213  0.3961 -0.1291
16198TIP3    H170085   2.302   5.497   6.608 -0.8997  0.3379  0.1067
16198TIP3    H270086   2.253   5.379   6.527 -0.9356 -0.4672  1.3021
16199TIP3   OH270087   2.817   6.176   0.822  0.3931 -0.5540 -0.6549
16199TIP3    H170088   2.724   6.191   0.806  0.1289 -0.5451  0.8181
16199TIP3    H270089   2.858   6.182   0.736 -0.9447 -0.3632 -1.2810
16200TIP3   OH270090   1.250   1.371   3.288  0.4848  0.2349 -0.3707
16200TIP3    H170091   1.314   1.326   3.343  0.5792 -0.1949 -0.8213
16200TIP3    H270092   1.184   1.304   3.269  1.6888 -0.3277 -2.7481
16201TIP3   OH270093   1.515   1.192  17.070  0.5584  0.1411 -0.4005
16201TIP3    H170094   1.583   1.256  17.089  1.7967 -1.3810  0.4684
16201TIP3    H270095   1.490   1.157  17.156 -1.4790  0.8013 -0.6889
16202TIP3   OH270096   2.823   1.767  13.598  0.0396  0.1573 -0.3377
16202TIP3    H170097   2.865   1.809  13.673 -1.0744  0.9622 -0.1586
16202TIP3    H270098   2.844   1.824  13.523  2.7831 -1.6452 -1.0387
16203TIP3   OH270099   4.448   4.437  13.105 -0.3067  0.5227  0.4905
16203TIP3    H170100   4.409   4.520  13.134 -0.9075  0.7284 -0.8735
16203TIP3    H270101   4.536   4.439  13.142 -0.7039  1.2283  1.4553
16204TIP3   OH270102   5.421   1.685   2.080 -0.4946 -0.0813  0.6694
16204TIP3    H170103   5.403   1.615   2.142 -1.3673  0.4613  1.0358
16204TIP3    H270104   5.432   1.640   1.996  0.8235 -0.8255  1.2279
16205TIP3   OH270105   5.420   5.205   3.520  0.1269  0.0357  0.5147
16205TIP3    H170106   5.420   5.253   3.603 -0.9606 -0.9656  1.0989
16205TIP3    H270107   5.457   5.120   3.542 -0.0474 -0.1842 -0.0631
16206TIP3   OH270108   3.181   0.514  13.128 -0.1930 -0.2919  0.6318
16206TIP3    H170109   3.212   0.594  13.171 -0.4507  0.4640 -0.5486
16206TIP3    H270110   3.254   0.453  13.134  1.4002  1.3040 -1.7143
16207TIP3   OH270111   2.942   4.196   3.562 -0.0971  0.1404 -0.1677
16207TIP3    H170112   3.005   4.125   3.573 -0.0534  0.0687 -0.9088
16207TIP3    H270113   2.988   4.262   3.512 -1.2659 -0.7762 -2.5283
16208TIP3   OH270114   2.517   2.247   1.712  0.1713 -0.2249  0.1133
16208TIP3    H170115   2.487   2.170   1.760  0.4113 -0.8992 -0.8070
16208TIP3    H270116   2.439   2.279   1.666  0.3561 -0.6686 -0.5127
16209TIP3   OH270117   6.021   6.089   3.956 -0.0164  0.1203  0.7030
16209TIP3    H170118   6.106   6.101   3.999  0.3557  1.1865 -0.3071
16209TIP3    H270119   5.974   6.171   3.972 -0.1777  0.2151 -0.2279
16210TIP3   OH270120   1.394   0.842  13.705  0.3061  0.2397  0.2132
16210TIP3    H170121   1.425   0.751  13.711  1.1878  0.4999 -0.2844
16210TIP3    H270122   1.337   0.853  13.781  2.9541  0.2986  2.2761
16211TIP3   OH270123   6.192   3.360   0.191 -0.6229 -0.6628  0.3034
16211TIP3    H170124   6.278   3.323   0.175 -1.2390 -2.0684  0.1610
16211TIP3    H270125   6.156   3.308   0.264 -0.1232  1.9343  2.4899
16212TIP3   OH270126   1.168   6.101  15.452 -0.4052 -0.3409  0.2249
16212TIP3    H170127   1.118   6.046  15.512 -1.8088 -1.1135 -1.6072
16212TIP3    H270128   1.223   6.039  15.403 -2.1024 -0.2142 -1.9526
16213TIP3   OH270129   6.058   0.223  14.872  0.4996  0.6254  0.7980
16213TIP3    H170130   6.052   0.127  14.864  2.4017  0.6742 -1.8148
16213TIP3    H270131   5.976   0.248  14.915 -2.6534 -1.6920 -3.4653
16214TIP3   OH270132   2.502   6.163   2.851  0.7563 -0.3839  0.0592
16214TIP3    H170133   2.433   6.179   2.915 -2.0210 -1.2730 -2.6135
16214TIP3    H270134   2.475   6.083   2.806  3.4754 -0.6689 -1.1758
16215TIP3   OH270135   2.248   0.371   0.864  0.2146 -0.0390 -0.1051
16215TIP3    H170136   2.240   0.369   0.768 -0.8507 -1.9794  0.0065
16215TIP3    H270137   2.342   0.377   0.880  0.3972  0.3361 -1.2835
16216TIP3   OH270138   6.091   6.005   3.449 -0.2683 -0.4849 -0.1587
16216TIP3    H170139   6.018   6.021   3.390 -0.7286 -0.6852  0.3575
16216TIP3    H270140   6.060   6.032   3.535  0.8815  1.1581 -0.2318
16217TIP3   OH270141   2.887   0.472  12.135  0.2207 -0.0170  0.2210
16217TIP3    H170142   2.885   0.397  12.195 -0.4929  0.5270  0.8745
16217TIP3    H270143   2.875   0.548  12.191 -0.5631  0.4929 -0.6297
16218TIP3   OH270144   0.820   4.593   2.571  0.2355 -0.8893  0.3613
16218TIP3    H170145   0.862   4.618   2.488  1.4452  1.4388  1.6421
16218TIP3    H270146   0.780   4.673   2.602 -0.2658 -1.7753  2.0315
16219TIP3   OH270147   2.378   0.980  12.428 -0.0564  0.6677  0.0112
16219TIP3    H170148   2.390   0.962  12.334  0.4298 -1.0119  0.3824
16219TIP3    H270149   2.381   0.894  12.469 -1.4798  1.2876  1.4495
16220TIP3   OH270150   6.478   2.872   5.533  0.3998  0.6302  0.2223
16220TIP3    H170151   6.476   2.931   5.608  1.3379 -0.4146  1.0924
16220TIP3    H270152   6.396   2.823   5.538 -0.0067  1.2768 -0.0325
16221TIP3   OH270153   1.994   3.931   4.147 -0.2135 -0.8560  0.8630
16221TIP3    H170154   2.074   3.884   4.172  0.1576 -0.5813  0.1924
16221TIP3    H270155   2.006   3.950   4.054 -1.4833 -1.6702  0.5217
16222TIP3   OH270156   5.345   1.733  13.189 -0.2713  0.0316 -0.8461
16222TIP3    H170157   5.354   1.639  13.204 -0.6518  0.3285  1.5078
16222TIP3    H270158   5.342   1.742  13.094  0.1105 -2.2979 -1.1170
16223TIP3   OH270159   5.651   0.628   0.505 -0.5620  0.2950  0.5668
16223TIP3    H170160   5.689   0.546   0.533  0.6051  0.4837 -0.4169
16223TIP3    H270161   5.651   0.623   0.409 -0.0655  1.6178  0.4864
16224TIP3   OH270162   3.609   1.474   5.846  0.7221 -0.1266  0.6048
16224TIP3    H170163   3.646   1.396   5.806  0.2088  0.3682 -0.8623
16224TIP3    H270164   3.658   1.484   5.928  1.3705 -1.4894  0.4043
16225TIP3   OH270165   2.466   5.928  15.896  0.3894  0.3785  0.9374
16225TIP3    H170166   2.448   5.835  15.885  0.0083  0.6498 -0.8741
16225TIP3    H270167   2.408   5.972  15.833  0.0216  1.8998  2.2739
16226TIP3   OH270168   4.973   2.163  14.704 -0.0012  0.1893 -0.1254
16226TIP3    H170169   5.019   2.239  14.669  0.1421  0.3721  0.4533
16226TIP3    H270170   4.880   2.184  14.694  0.0357  0.1035 -0.6830
16227TIP3   OH270171   2.399   3.040  15.107  0.2331 -0.5918  0.1889
16227TIP3    H170172   2.359   3.088  15.035 -0.8406 -1.9367 -0.1546
16227TIP3    H270173   2.367   3.083  15.186 -2.0573 -1.6901 -0.0765
16228TIP3   OH270174   2.258   2.183   2.303 -0.5144  0.5530 -0.6414
16228TIP3    H170175   2.289   2.273   2.305  0.1201  0.3387 -0.6523
16228TIP3    H270176   2.163   2.190   2.302 -0.4910  1.1824  1.2334
16229TIP3   OH270177   5.134   4.323  15.410  0.0293 -0.8476 -0.5903
16229TIP3    H170178   5.045   4.357  15.404  0.5615  0.6827  0.0487
16229TIP3    H270179   5.179   4.356  15.333  0.2149 -1.1249 -0.6055
16230TIP3   OH270180   2.026   3.500  11.839  0.0452  0.2476  0.1352
16230TIP3    H170181   1.935   3.474  11.826 -0.4155  1.8798 -0.0929
16230TIP3    H270182   2.057   3.522  11.751  0.2370  0.9545  0.3743
16231TIP3   OH270183   4.111   4.554  14.728 -0.4244  0.4749 -0.0812
16231TIP3    H170184   4.196   4.519  14.699 -0.3811 -1.2328  2.0189
16231TIP3    H270185   4.060   4.477  14.752 -1.2340  1.6860  2.2665
16232TIP3   OH270186   3.398   2.394  13.567  0.5222  0.6468  0.0923
16232TIP3    H170187   3.480   2.441  13.550  0.0882  1.3647 -0.0667
16232TIP3    H270188   3.359   2.383  13.480  1.0235 -0.7761  0.0408
16233TIP3   OH270189   3.160   5.575  14.753 -0.0621  0.6122  0.0330
16233TIP3    H170190   3.249   5.540  14.752 -0.6223 -0.8187 -0.3833
16233TIP3    H270191   3.152   5.624  14.671 -0.2592 -0.7974 -0.7985
16234TIP3   OH270192   1.395   2.733   3.830 -1.0217  0.0245  0.0400
16234TIP3    H170193   1.324   2.728   3.895 -0.8012  1.8487  0.4568
16234TIP3    H270194   1.469   2.690   3.873 -1.3294 -0.1836  0.3736
16235TIP3   OH270195   4.157   3.887  13.431  0.5674  0.3387 -0.2921
16235TIP3    H170196   4.244   3.912  13.461  0.3907  0.0869  0.4254
16235TIP3    H270197   4.146   3.935  13.348  1.2840  0.5599 -0.2607
16236TIP3   OH270198   2.072   3.159   5.218 -0.2770  0.2219  0.3167
16236TIP3    H170199   2.007   3.228   5.233 -1.0532 -0.6364  0.9429
16236TIP3    H270200   2.155   3.206   5.210 -0.8784  1.2770  0.1522
16237TIP3   OH270201   0.351   2.553  16.716 -0.5055 -0.4870 -0.0099
16237TIP3    H170202   0.318   2.600  16.793 -0.1601 -0.6659  0.2492
16237TIP3    H270203   0.438   2.589  16.702 -0.6887 -0.2296 -0.5183
16238TIP3   OH270204   5.471   0.921  14.669 -0.1330  0.1453 -0.3428
16238TIP3    H170205   5.472   0.900  14.762  0.5851 -1.5184 -0.7063
16238TIP3    H270206   5.561   0.943  14.647 -0.6010  2.2252 -0.3058
16239TIP3   OH270207   6.776   3.869   3.200 -0.0722 -0.0044 -0.2058
16239TIP3    H170208   6.789   3.854   3.107  1.0698 -0.6251  0.0365
16239TIP3    H270209   6.857   3.911   3.229 -1.6121  3.0056 -0.0724
16240TIP3   OH270210   1.838   1.009  10.641  0.5921 -0.0575 -0.3441
16240TIP3    H170211   1.804   1.093  10.610 -1.1177 -0.9389 -0.9103
16240TIP3    H270212   1.821   0.948  10.569  0.9434 -1.0932  0.4393
16241TIP3   OH270213   4.511   0.364   4.365  0.1209 -0.1733  0.2735
16241TIP3    H170214   4.591   0.311   4.358  0.5746  0.5578 -0.1317
16241TIP3    H270215   4.542   0.454   4.374 -0.6501  0.3119 -1.5639
16242TIP3   OH270216   5.626   5.660   1.319  0.6013 -0.2925  0.3068
16242TIP3    H170217   5.630   5.567   1.341 -0.4077 -0.7320 -1.2983
16242TIP3    H270218   5.548   5.692   1.365  0.3961 -0.4512  0.0651
16243TIP3   OH270219   4.330   0.471   0.200 -0.3721  0.2089  0.0327
16243TIP3    H170220   4.381   0.393   0.223  0.0512  0.2805 -0.6309
16243TIP3    H270221   4.391   0.524   0.148 -0.8022  0.7735  0.1036
16244TIP3   OH270222   6.459   6.079  12.604  0.4054 -0.2589  0.3748
16244TIP3    H170223   6.368   6.108  12.606  0.1816 -0.9672  0.8545
16244TIP3    H270224   6.506   6.144  12.657 -0.0772 -0.7050  1.3778
16245TIP3   OH270225   0.098   1.404  11.171 -0.1375 -0.2826 -0.1329
16245TIP3    H170226   0.042   1.474  11.205  1.2973  2.5045 -3.2573
16245TIP3    H270227   0.079   1.400  11.078  3.5214 -0.4812 -0.9491
16246TIP3   OH270228   4.014   2.722  11.886 -0.4892  0.3502  0.2459
16246TIP3    H170229   3.935   2.765  11.853 -1.0825  0.0482  1.2357
16246TIP3    H270230   3.981   2.650  11.940  0.4805 -0.8948 -0.7946
16247TIP3   OH270231   4.446   0.441  14.908 -0.1502 -0.2414  0.5227
16247TIP3    H170232   4.437   0.536  14.915  1.1653 -0.0352 -0.1793
16247TIP3    H270233   4.415   0.421  14.819  1.9714 -0.0908 -0.2948
16248TIP3   OH270234   0.957   3.497  12.088  0.6595 -0.6889 -0.9133
16248TIP3    H170235   0.986   3.433  12.024  2.1686  1.8675 -2.9171
16248TIP3    H270236   1.016   3.485  12.163  1.8664 -0.7286 -1.8462
16249TIP3   OH270237   1.451   2.755  12.298 -0.0872  0.3485 -0.2527
16249TIP3    H170238   1.544   2.732  12.302  0.1650  1.5039  1.2977
16249TIP3    H270239   1.441   2.799  12.213  0.8808  0.5994 -0.2489
16250TIP3   OH270240   0.862   3.945   2.090  0.1964 -0.3242 -0.1082
16250TIP3    H170241   0.931   3.932   2.154  1.6616 -0.1913 -1.6388
16250TIP3    H270242   0.875   4.035   2.059 -3.3404  1.3014  2.7021
16251TIP3   OH270243   1.392   0.187  17.102 -0.0736 -0.1762 -0.1677
16251TIP3    H170244   1.349   0.272  17.094  1.7230  0.8228  0.7088
16251TIP3    H270245   1.484   0.205  17.086  0.4428 -1.8309  0.8635
16252TIP3   OH270246   4.523   4.707  13.798 -0.5558  0.6231 -0.0842
16252TIP3    H170247   4.482   4.779  13.848  1.3136 -0.2939  2.9221
16252TIP3    H270248   4.471   4.630  13.820 -1.9441  0.8427 -2.5092
16253TIP3   OH270249   2.843   6.228   0.063  0.0916 -0.4252 -0.0298
16253TIP3    H170250   2.822   6.143   0.025 -1.3407 -1.1585  2.2958
16253TIP3    H270251   2.904   6.208   0.134  0.0298  0.5308  0.3030
16254TIP3   OH270252   1.555   1.938   4.153 -0.0959 -0.3734 -0.6122
16254TIP3    H170253   1.617   1.868   4.133 -0.1300 -0.5781 -0.0006
16254TIP3    H270254   1.595   2.017   4.116  1.6719 -0.0792  1.8080
16255TIP3   OH270255   5.248   2.588   0.425 -0.3726 -0.2756  0.2749
16255TIP3    H170256   5.282   2.516   0.373  0.4083  0.7927 -0.7372
16255TIP3    H270257   5.306   2.662   0.404 -0.7551  0.4698  1.7792
16256TIP3   OH270258   3.718   1.505   3.020  0.1792 -0.0707  0.0336
16256TIP3    H170259   3.697   1.593   3.049 -0.9075 -0.9670  2.0518
16256TIP3    H270260   3.642   1.479   2.967  1.2329  0.7935 -1.9344
16257TIP3   OH270261   3.845   6.635   0.200 -0.1714  0.5441  0.0772
16257TIP3    H170262   3.844   6.705   0.136 -0.8927  0.7032  0.2606
16257TIP3    H270263   3.930   6.592   0.187  0.0564  1.1231 -0.3778
16258TIP3   OH270264   3.271   6.455  13.053  0.0472 -0.0482 -0.3222
16258TIP3    H170265   3.260   6.369  13.012  1.3135 -0.1465 -0.4743
16258TIP3    H270266   3.305   6.511  12.983  0.5531  0.2259  0.1346
16259TIP3   OH270267   5.606   6.307  11.891  0.8297 -0.4040 -0.2428
16259TIP3    H170268   5.618   6.286  11.798  3.5737 -0.3420  0.0613
16259TIP3    H270269   5.582   6.223  11.931 -0.6001 -0.3857 -1.0213
16260TIP3   OH270270   5.855   5.406   2.649 -0.3766  0.1563  0.2701
16260TIP3    H170271   5.811   5.406   2.563  0.5121  1.6916 -0.1987
16260TIP3    H270272   5.807   5.341   2.700 -2.3726  0.8489 -0.6623
16261TIP3   OH270273   1.803   1.347  13.763  0.5607 -0.3296 -0.5652
16261TIP3    H170274   1.812   1.321  13.855 -1.5380 -0.9162 -0.5119
16261TIP3    H270275   1.833   1.438  13.760 -4.0987  1.4112  1.6934
16262TIP3   OH270276   5.992   5.926   4.713 -0.3723  0.3319  0.1626
16262TIP3    H170277   6.031   5.882   4.637 -0.7145 -1.5142  1.0398
16262TIP3    H270278   5.991   6.018   4.689  2.0443  0.1046 -0.9966
16263TIP3   OH270279   0.066   1.272   5.680 -0.4457  0.4082  0.4084
16263TIP3    H170280   0.011   1.307   5.610  0.4203 -1.0509 -1.0466
16263TIP3    H270281   0.150   1.254   5.638 -0.1709 -1.2909  1.5957
16264TIP3   OH270282   1.542   2.531  16.930  0.0399 -0.0054 -0.5382
16264TIP3    H170283   1.554   2.621  16.898 -0.5354  0.7330  1.2566
16264TIP3    H270284   1.453   2.529  16.964  0.6945 -0.6805  1.2051
16265TIP3   OH270285   5.083   2.692  16.320 -0.0325  0.1836 -0.4142
16265TIP3    H170286   5.057   2.708  16.229 -1.9870  1.1767  0.2889
16265TIP3    H270287   5.048   2.768  16.368 -0.5389 -1.1917  1.4277
16266TIP3   OH270288   1.897   0.016  14.523 -0.2400  0.6852  0.5322
16266TIP3    H170289   1.950  -0.011  14.448  1.0732 -0.6438  1.8967
16266TIP3    H270290   1.882   0.109  14.510  0.9670  0.7176 -0.7771
16267TIP3   OH270291   5.433   2.955   4.411 -0.2691  0.4013  0.1073
16267TIP3    H170292   5.390   2.871   4.427 -0.2247  0.3557 -0.0141
16267TIP3    H270293   5.516   2.948   4.459 -0.1224  0.2530 -0.1697
16268TIP3   OH270294   4.117   3.561   0.414  0.0046 -0.4997 -0.4279
16268TIP3    H170295   4.128   3.603   0.500  0.6709 -0.7301 -0.3937
16268TIP3    H270296   4.201   3.518   0.398  0.3563  0.6802 -1.8130
16269TIP3   OH270297   6.729   3.312  10.487 -0.0970  0.2022  0.1022
16269TIP3    H170298   6.746   3.268  10.570  1.0696  0.6108  0.0902
16269TIP3    H270299   6.742   3.405  10.505 -2.5532  0.5747  0.1281
16270TIP3   OH270300   0.450   4.251  10.657  0.6224 -0.2748  0.3938
16270TIP3    H170301   0.373   4.306  10.667  0.1758 -0.8902  0.3655
16270TIP3    H270302   0.524   4.312  10.654  0.0124  0.4000 -0.9565
16271TIP3   OH270303   0.562   0.967   2.429  0.6563  0.3735  0.1221
16271TIP3    H170304   0.499   0.908   2.471  0.8912  2.0421  2.8904
16271TIP3    H270305   0.613   0.910   2.371 -2.4948 -1.2279 -1.1597
16272TIP3   OH270306   5.373   2.910  13.458  0.3610 -0.1101  0.2311
16272TIP3    H170307   5.337   2.998  13.448  0.6145 -0.0350 -0.0392
16272TIP3    H270308   5.389   2.880  13.369  2.2579  0.4013  0.3751
16273TIP3   OH270309   0.880   3.133  14.963 -0.2951 -0.1149 -0.1830
16273TIP3    H170310   0.966   3.093  14.953 -0.1365  0.7155 -2.7924
16273TIP3    H270311   0.898   3.222  14.993 -0.3683 -0.4781  0.9674
16274TIP3   OH270312   1.722   0.698  11.837 -0.6222 -0.3627  0.2899
16274TIP3    H170313   1.653   0.691  11.771 -0.4825 -0.0697  0.1135
16274TIP3    H270314   1.680   0.741  11.911 -0.7820 -0.7009  0.3984
16275TIP3   OH270315   3.396   2.917   1.437 -0.4550  0.4548  0.7836
16275TIP3    H170316   3.324   2.905   1.498  0.9820 -0.4036  2.3529
16275TIP3    H270317   3.418   3.010   1.445 -1.6106  0.7991  0.0307
16276TIP3   OH270318   2.597   1.985  16.095  0.2994 -0.3233 -0.1061
16276TIP3    H170319   2.584   2.052  16.028  1.0349 -1.3491 -1.2900
16276TIP3    H270320   2.566   2.026  16.176 -2.4080  0.2625 -1.3841
16277TIP3   OH270321   3.590   1.945  16.892  0.2592 -0.6058 -0.6620
16277TIP3    H170322   3.607   1.990  16.810 -1.4518 -0.4969 -0.9837
16277TIP3    H270323   3.661   1.973  16.950 -0.0244  1.4584 -1.2573
16278TIP3   OH270324   2.740   3.784   6.425 -0.6644 -0.2238 -0.3437
16278TIP3    H170325   2.647   3.772   6.446 -0.6396  2.3900  1.5366
16278TIP3    H270326   2.784   3.710   6.466 -1.6710 -0.2564  0.7112
16279TIP3   OH270327   4.478   2.128   2.086 -0.0600  0.2959 -0.1696
16279TIP3    H170328   4.498   2.042   2.124 -2.2700 -0.5382 -0.7816
16279TIP3    H270329   4.563   2.164   2.061  0.7955 -2.5243 -1.5654
16280TIP3   OH270330   0.709   2.417   4.715 -0.1165 -0.2655  0.3869
16280TIP3    H170331   0.752   2.378   4.639 -2.3510 -0.5486 -0.7816
16280TIP3    H270332   0.777   2.471   4.755  0.8445  0.7231 -2.4094
16281TIP3   OH270333   0.872   4.598  15.104 -0.1359  0.2519  0.0304
16281TIP3    H170334   0.827   4.572  15.023 -1.9087  0.2143  1.0116
16281TIP3    H270335   0.825   4.676  15.133  0.0393 -0.1600  1.4205
16282TIP3   OH270336   0.145   0.942  11.078  0.1641 -0.2518  0.5026
16282TIP3    H170337   0.122   0.962  11.169  1.7066 -0.3347  0.9396
16282TIP3    H270338   0.104   0.858  11.061  0.1074 -0.3793  1.2313
16283TIP3   OH270339   4.122   6.232  12.415  0.3152 -0.3262 -0.4485
16283TIP3    H170340   4.120   6.300  12.347 -1.0068 -0.7990 -0.8952
16283TIP3    H270341   4.044   6.248  12.467  0.6726 -0.7290  0.2152
16284TIP3   OH270342   1.729   6.026   3.926 -0.1995  0.8090  0.2825
16284TIP3    H170343   1.691   6.046   3.841 -0.3554  2.4161  0.7298
16284TIP3    H270344   1.824   6.027   3.911 -0.2484 -0.9809 -0.3205
16285TIP3   OH270345   3.810   6.453  12.158  0.0655  0.0317 -0.0926
16285TIP3    H170346   3.860   6.455  12.076  0.2682  1.3481  0.0451
16285TIP3    H270347   3.876   6.459  12.227 -0.2116  1.0349  0.1056
16286TIP3   OH270348   5.697   6.002  13.036  0.4383  0.2809  0.3754
16286TIP3    H170349   5.747   6.078  13.066 -0.1369  0.7522  0.1527
16286TIP3    H270350   5.652   6.032  12.957 -0.3153 -0.0909  0.6526
16287TIP3   OH270351   5.417   0.865   2.488  0.0114 -0.2417 -0.5440
16287TIP3    H170352   5.425   0.795   2.423  0.3230  1.1994 -2.0692
16287TIP3    H270353   5.332   0.905   2.470 -0.2948 -0.3849  0.5181
16288TIP3   OH270354   0.727   1.412  12.650  0.1673  0.1471 -0.0826
16288TIP3    H170355   0.751   1.487  12.596  0.5894  0.4025  0.4555
16288TIP3    H270356   0.800   1.350  12.639 -0.9434 -0.8694 -1.8042
16289TIP3   OH270357   2.963   3.277   4.121 -0.2309 -0.1545 -0.3001
16289TIP3    H170358   2.928   3.222   4.051  0.6915 -0.2653 -0.6821
16289TIP3    H270359   2.990   3.215   4.188 -0.8802 -0.0610  0.0525
16290TIP3   OH270360   1.036   4.025  17.194 -0.1736  0.2136 -0.1758
16290TIP3    H170361   1.060   3.972  17.270 -0.8213  0.1602 -0.0044
16290TIP3    H270362   0.941   4.014  17.186 -0.2489  0.9954 -0.4039
16291TIP3   OH270363   0.573   1.486   0.349  0.0166 -0.2106 -0.2695
16291TIP3    H170364   0.630   1.515   0.277 -0.1407 -1.5819 -0.9654
16291TIP3    H270365   0.553   1.394   0.328  1.0207 -1.0242  2.1996
16292TIP3   OH270366   2.229   1.032   2.689  0.2257 -0.6702  0.1369
16292TIP3    H170367   2.313   1.030   2.734  0.0150 -2.3019  0.4938
16292TIP3    H270368   2.164   1.022   2.758 -0.2436  0.0219 -0.1945
16293TIP3   OH270369   4.467   3.881   3.216 -0.7992 -0.0817 -0.5589
16293TIP3    H170370   4.381   3.877   3.257  0.7309 -0.6902  2.7324
16293TIP3    H270371   4.528   3.891   3.289  1.9303  0.4296 -2.8300
16294TIP3   OH270372   6.010   0.091   0.740  0.2599 -0.1612 -0.6860
16294TIP3    H170373   5.963   0.154   0.795  1.1191  2.3456 -2.7615
16294TIP3    H270374   6.092   0.074   0.787  0.7353  1.5280 -0.8841
16295TIP3   OH270375   3.653   5.707   5.104  0.5017  0.3199 -0.1362
16295TIP3    H170376   3.626   5.789   5.064  1.2684  1.3490  1.3933
16295TIP3    H270377   3.616   5.709   5.192  0.1366 -1.1891 -0.2415
16296TIP3   OH270378   1.321   0.201   3.150  0.7546  0.0671 -0.5609
16296TIP3    H170379   1.263   0.255   3.096  0.1319  0.2495  0.2925
16296TIP3    H270380   1.270   0.122   3.169  0.7883  0.2209  0.1812
16297TIP3   OH270381   1.432   2.087   3.366 -0.0976  0.3594 -0.6298
16297TIP3    H170382   1.387   2.008   3.335  0.5396  0.3558 -1.5572
16297TIP3    H270383   1.361   2.145   3.396 -0.6326 -0.1467 -0.9063
16298TIP3   OH270384   3.026   5.099  12.119  0.2739  0.3140 -0.2544
16298TIP3    H170385   2.966   5.167  12.150 -0.1848  0.3581 -1.2295
16298TIP3    H270386   2.974   5.018  12.123  0.4138  0.2211 -0.3272
16299TIP3   OH270387   1.525   0.704  16.805  0.3044 -0.6340 -0.0598
16299TIP3    H170388   1.483   0.767  16.864  1.0315 -2.3698  2.3837
16299TIP3    H270389   1.608   0.744  16.781  0.4741 -0.3665  0.9601
16300TIP3   OH270390   2.032   4.427  16.676  0.0422 -0.5579  0.3607
16300TIP3    H170391   1.958   4.476  16.713 -1.2188 -1.1166 -1.3416
16300TIP3    H270392   2.078   4.392  16.752 -1.2515  0.0911  1.4688
16301TIP3   OH270393   1.755   5.850  13.161  0.2062 -0.6428  1.0544
16301TIP3    H170394   1.683   5.792  13.183  1.6593 -3.1110 -0.4471
16301TIP3    H270395   1.832   5.810  13.201  0.7582  2.0714  2.8418
16302TIP3   OH270396   1.606   2.742  14.999  0.1306  0.7024 -0.2917
16302TIP3    H170397   1.585   2.650  15.013 -2.0120  1.1913 -0.1515
16302TIP3    H270398   1.621   2.748  14.905 -0.0912  0.2730 -0.3589
16303TIP3   OH270399   1.222   4.954   2.712  0.3207  0.3547  0.1397
16303TIP3    H170400   1.279   4.907   2.651 -0.5952  0.7990 -1.0841
16303TIP3    H270401   1.152   4.892   2.733 -1.3212  1.3612 -2.0916
16304TIP3   OH270402   1.060   5.990   6.089 -0.2084  0.1661 -0.0063
16304TIP3    H170403   1.085   6.006   6.180 -0.0828 -0.3771  0.0575
16304TIP3    H270404   1.052   6.077   6.051 -1.8954  0.4541  0.9496
16305TIP3   OH270405   4.896   0.857   4.511 -0.1593 -0.1682 -0.0744
16305TIP3    H170406   4.853   0.778   4.544 -0.0945  0.2718  1.0752
16305TIP3    H270407   4.854   0.929   4.557 -0.8479  0.5518 -1.7994
16306TIP3   OH270408   4.514   2.578   0.251 -0.3400  0.6683  0.1543
16306TIP3    H170409   4.568   2.499   0.248 -0.6333  0.4945 -0.8565
16306TIP3    H270410   4.510   2.607   0.160 -1.3343  1.0940  0.3228
16307TIP3   OH270411   1.928   3.122  14.588  0.0420 -0.0396 -0.1732
16307TIP3    H170412   1.960   3.047  14.639 -0.7893 -0.1461  0.2004
16307TIP3    H270413   1.880   3.175  14.651 -3.1323 -1.4386 -1.3278
16308TIP3   OH270414   4.226   2.348  13.756  0.3762 -0.4301  0.3657
16308TIP3    H170415   4.303   2.357  13.813  0.8791 -1.9874 -0.0354
16308TIP3    H270416   4.155   2.322  13.815  0.7800 -1.5556  0.3700
16309TIP3   OH270417   0.120   2.138  15.608 -0.0938 -0.3250 -0.1388
16309TIP3    H170418   0.036   2.098  15.632  0.3600 -1.4006 -0.3191
16309TIP3    H270419   0.140   2.197  15.681 -0.0199 -1.5927  0.8918
16310TIP3   OH270420   6.248   1.082  16.820  0.1551  0.0891  0.2916
16310TIP3    H170421   6.183   1.084  16.890  0.2160 -1.1116  0.3964
16310TIP3    H270422   6.212   1.022  16.755  0.5194  0.4963 -0.2896
16311TIP3   OH270423   2.437   3.364   4.327  0.0688 -0.1341 -0.3743
16311TIP3    H170424   2.352   3.343   4.287 -0.3444 -0.0876  0.4704
16311TIP3    H270425   2.449   3.457   4.307 -0.7887  0.2402  0.7705
16312TIP3   OH270426   6.557   1.354  16.895 -0.5378 -0.5338  0.6482
16312TIP3    H170427   6.520   1.304  16.967  0.4687 -2.5669 -0.2159
16312TIP3    H270428   6.544   1.300  16.818  0.8133  0.4012 -0.2740
16313TIP3   OH270429   0.381   4.589  12.189 -0.0928 -0.6647 -0.2933
16313TIP3    H170430   0.326   4.552  12.119 -1.5719  0.0726  0.4577
16313TIP3    H270431   0.462   4.613  12.145 -0.2326 -2.0722 -1.3730
16314TIP3   OH270432   0.863   0.539  12.274 -0.6604 -0.2738  0.1189
16314TIP3    H170433   0.860   0.610  12.209 -3.0108 -1.2033 -0.8405
16314TIP3    H270434   0.947   0.551  12.318  0.1305  1.5516 -1.7818
16315TIP3   OH270435   3.906   3.082  10.638 -0.4567  0.3773 -0.4613
16315TIP3    H170436   3.912   3.172  10.605 -0.6784 -0.0469 -1.6883
16315TIP3    H270437   3.844   3.039  10.579 -0.8147 -0.4266  0.4816
16316TIP3   OH270438   6.199   5.414   1.661 -0.0859 -0.2187  0.2423
16316TIP3    H170439   6.275   5.359   1.679  0.0997  0.1505  0.5939
16316TIP3    H270440   6.132   5.353   1.630 -0.2405 -0.7988  1.6731
16317TIP3   OH270441   4.153   6.058   0.421 -0.4640  0.2584  0.0608
16317TIP3    H170442   4.245   6.030   0.420 -0.5253  0.0644 -0.1593
16317TIP3    H270443   4.149   6.125   0.489 -1.2318 -3.3808  3.7774
16318TIP3   OH270444   2.681   6.416   4.393  0.4154 -0.6362  0.4411
16318TIP3    H170445   2.697   6.501   4.352  0.2932 -0.1644  1.3421
16318TIP3    H270446   2.663   6.357   4.321 -0.5263  0.3363 -0.1303
16319TIP3   OH270447   2.415   6.336  15.337  0.1432 -0.2870 -0.0425
16319TIP3    H170448   2.470   6.258  15.343  1.9738  0.8373 -1.4318
16319TIP3    H270449   2.391   6.342  15.245 -0.4765  0.4581  0.1591
16320TIP3   OH270450   3.354   3.706  15.753  0.1023  0.4255 -0.2968
16320TIP3    H170451   3.330   3.625  15.707 -0.6471  1.0213 -0.9850
16320TIP3    H270452   3.273   3.734  15.794  0.1778  1.2218 -0.6846
16321TIP3   OH270453   2.524   1.382  11.195 -0.0132  0.0468  0.1426
16321TIP3    H170454   2.496   1.292  11.214  1.9625 -1.1136 -2.1129
16321TIP3    H270455   2.472   1.408  11.119  0.6126  0.1745 -0.2432
16322TIP3   OH270456   5.570   0.507   4.960  0.3009 -0.0062 -0.0119
16322TIP3    H170457   5.664   0.508   4.975  0.3692 -0.9822 -0.3650
16322TIP3    H270458   5.532   0.527   5.045  0.8255  0.2279  0.1657
16323TIP3   OH270459   6.735   4.567  13.073  0.1053 -0.1410  0.1943
16323TIP3    H170460   6.715   4.646  13.123 -0.6684 -0.2645  0.0910
16323TIP3    H270461   6.723   4.495  13.136 -0.5407 -0.2723 -0.0775
16324TIP3   OH270462   6.291   0.010   0.174 -0.5708 -0.1190 -0.2060
16324TIP3    H170463   6.201  -0.022   0.166 -0.7793  0.2724  0.5190
16324TIP3    H270464   6.285   0.103   0.150 -0.1261 -0.3890 -1.4209
16325TIP3   OH270465   2.728   0.342   5.309  0.0182  0.3607 -0.0516
16325TIP3    H170466   2.691   0.425   5.340  1.4473  0.4274  1.5495
16325TIP3    H270467   2.652   0.290   5.283 -0.9878  1.6351  0.2833
16326TIP3   OH270468   5.649   1.490   4.828 -0.5924  0.7493  0.3038
16326TIP3    H170469   5.591   1.496   4.905 -0.3341  0.6316  0.5097
16326TIP3    H270470   5.636   1.400   4.796 -1.1639  0.9924 -0.1613
16327TIP3   OH270471   0.364   0.816   4.604  0.2113 -0.0518  0.3092
16327TIP3    H170472   0.427   0.867   4.654 -1.4540  0.7283  1.6907
16327TIP3    H270473   0.355   0.864   4.521  0.8436  0.2819  0.4331
16328TIP3   OH270474   4.987   5.974  16.265 -0.3503 -0.0442  0.4129
16328TIP3    H170475   4.948   6.047  16.315  0.9160 -0.7586  2.5203
16328TIP3    H270476   5.078   6.001  16.251  0.0386 -1.0692  0.9254
16329TIP3   OH270477   3.775   6.665  11.072 -0.2533  0.5375 -0.1471
16329TIP3    H170478   3.870   6.666  11.061 -0.2807  0.6147 -0.3873
16329TIP3    H270479   3.743   6.722  11.002 -0.4411  0.9795  0.2944
16330TIP3   OH270480   3.248   6.737   4.403  0.5651  0.0751  1.2022
16330TIP3    H170481   3.290   6.823   4.413  3.3259 -0.9891 -0.6810
16330TIP3    H270482   3.187   6.748   4.330  1.0626  0.4023  0.8337
16331TIP3   OH270483   2.021   4.318   4.386 -0.4183  0.3681 -0.1129
16331TIP3    H170484   2.078   4.372   4.440 -0.0851  1.5755 -1.6200
16331TIP3    H270485   2.077   4.247   4.355 -0.3548  0.2283  0.3234
16332TIP3   OH270486   1.355   4.456  12.916 -0.1204  0.5599  0.2166
16332TIP3    H170487   1.318   4.378  12.957 -1.4429  0.2180 -1.5523
16332TIP3    H270488   1.448   4.436  12.904 -0.2016 -0.2468  0.9105
16333TIP3   OH270489   0.093   4.315   6.174 -0.2442 -0.3141  0.1286
16333TIP3    H170490   0.130   4.317   6.263  0.8224 -0.0263 -0.3150
16333TIP3    H270491   0.125   4.233   6.137  1.0139  0.5501 -0.7052
16334TIP3   OH270492   2.857   5.372  16.413 -0.1293  0.1904  0.2695
16334TIP3    H170493   2.897   5.426  16.481  0.2009  0.3694 -0.0635
16334TIP3    H270494   2.901   5.288  16.421 -0.2537  0.1386  0.4258
16335TIP3   OH270495   1.851   6.102  11.779  0.6997  0.0622  0.2721
16335TIP3    H170496   1.930   6.049  11.786  0.1862 -0.5862  1.1552
16335TIP3    H270497   1.854   6.160  11.855  1.0607  1.0364 -0.4777
16336TIP3   OH270498   0.452   2.617  12.065 -0.3057 -0.1012 -0.1904
16336TIP3    H170499   0.372   2.646  12.109 -1.0418 -1.8475 -0.3478
16336TIP3    H270500   0.486   2.547  12.120  2.8329  2.6185  1.5484
16337TIP3   OH270501   3.116   6.447  17.016 -0.0390  0.0478  1.2253
16337TIP3    H170502   3.066   6.389  16.959  1.2248 -0.3916  0.5253
16337TIP3    H270503   3.149   6.515  16.957  1.4311 -0.5056  1.3701
16338TIP3   OH270504   3.867   3.628   2.383  0.8188  0.5098  0.9695
16338TIP3    H170505   3.939   3.575   2.418  0.3671  0.4844  1.8431
16338TIP3    H270506   3.911   3.700   2.337  1.4701 -1.1649 -1.1515
16339TIP3   OH270507   4.714   3.115  13.736 -0.2155  1.0360 -0.6512
16339TIP3    H170508   4.699   3.077  13.650  0.2313  1.1893 -0.7994
16339TIP3    H270509   4.627   3.128  13.773 -0.3234 -3.0420  0.6917
16340TIP3   OH270510   6.146   1.091  11.646 -0.3692 -0.4170  0.5461
16340TIP3    H170511   6.135   1.028  11.574  0.3010  0.2981 -0.1848
16340TIP3    H270512   6.089   1.164  11.623  1.3432  0.7003 -0.2935
16341TIP3   OH270513   5.259   3.380   5.421 -0.4629  0.4547 -0.4862
16341TIP3    H170514   5.264   3.357   5.514 -1.8448 -0.5929 -0.6477
16341TIP3    H270515   5.260   3.475   5.420  0.7923  0.4756  0.5145
16342TIP3   OH270516   6.174   3.210   3.985  0.0860 -0.1918  0.5449
16342TIP3    H170517   6.267   3.230   3.993 -0.3078  1.7948  0.2751
16342TIP3    H270518   6.141   3.216   4.075 -0.1850  1.1897  0.3607
16343TIP3   OH270519   3.293   3.354   3.967  0.1755  0.2434 -0.5223
16343TIP3    H170520   3.281   3.307   3.885 -0.0942 -0.7848  0.1042
16343TIP3    H270521   3.377   3.322   4.001  0.7697  1.3919 -0.8717
16344TIP3   OH270522   6.774   5.821   2.717  0.6870 -0.1482  0.2275
16344TIP3    H170523   6.769   5.832   2.622 -2.5376 -0.8686  0.2598
16344TIP3    H270524   6.793   5.909   2.750  2.1519  0.0449 -1.0983
16345TIP3   OH270525   0.654   0.284   3.370 -0.1078 -0.4073  0.6941
16345TIP3    H170526   0.709   0.307   3.445  1.8043  0.4003 -0.9313
16345TIP3    H270527   0.592   0.357   3.363 -0.4235 -0.5802  1.5899
16346TIP3   OH270528   5.632   4.811  15.763  0.2865 -0.2920  0.2524
16346TIP3    H170529   5.565   4.751  15.795  0.3234 -0.5693 -0.1877
16346TIP3    H270530   5.655   4.864  15.839 -0.3112 -0.3073  0.4424
16347TIP3   OH270531   2.265   4.874  13.788 -0.2286 -0.0700 -0.0888
16347TIP3    H170532   2.296   4.926  13.862  0.4433 -0.0095 -0.4030
16347TIP3    H270533   2.337   4.813  13.772  0.8266  1.7199 -2.4406
16348TIP3   OH270534   1.632   1.252   4.784 -0.3018 -1.2049 -0.0247
16348TIP3    H170535   1.664   1.342   4.794 -3.2121 -0.2419  0.9028
16348TIP3    H270536   1.638   1.214   4.871 -1.8629 -0.9439  0.2071
16349TIP3   OH270537   5.950   2.403  12.398  0.7545  0.1433  0.4110
16349TIP3    H170538   5.862   2.437  12.414  1.0722 -0.0467  2.6677
16349TIP3    H270539   5.969   2.347  12.473  1.8137 -1.8759 -1.3014
16350TIP3   OH270540   1.689   4.569  12.158  0.0577 -0.2383 -0.2924
16350TIP3    H170541   1.647   4.585  12.073  0.7220 -4.3085 -1.5083
16350TIP3    H270542   1.636   4.618  12.220 -1.4310  1.5340 -2.8603
16351TIP3   OH270543   5.684   4.351  15.744 -0.2600 -0.4171  0.2610
16351TIP3    H170544   5.677   4.256  15.746 -0.8304 -0.3761  0.3844
16351TIP3    H270545   5.767   4.370  15.788 -1.2937 -0.7439  2.4097
16352TIP3   OH270546   2.842   2.569   5.041 -0.7322 -0.5444 -0.1863
16352TIP3    H170547   2.863   2.565   4.948 -0.0015 -0.3600 -0.0355
16352TIP3    H270548   2.900   2.636   5.077 -0.3990 -1.2094  0.5526
16353TIP3   OH270549   0.223   0.192  15.101  0.3133 -0.1082 -0.0421
16353TIP3    H170550   0.277   0.174  15.178 -1.4680 -0.7746  1.0813
16353TIP3    H270551   0.144   0.233  15.136  0.0850  0.8567 -1.6564
16354TIP3   OH270552   5.676   3.491  12.071 -0.0819 -0.4486  0.2996
16354TIP3    H170553   5.748   3.476  12.011 -0.4690 -2.1569  0.2524
16354TIP3    H270554   5.672   3.412  12.125 -1.0635  0.1840  1.1844
16355TIP3   OH270555   0.165   0.652  10.869 -0.3630 -0.2416 -0.2974
16355TIP3    H170556   0.094   0.674  10.809 -1.8222 -1.0225  1.0911
16355TIP3    H270557   0.236   0.712  10.846 -1.7323  1.0538 -1.2312
16356TIP3   OH270558   1.801   3.243  12.119 -0.8329  0.7259 -0.7169
16356TIP3    H170559   1.818   3.153  12.143 -3.5841  0.1324 -0.8001
16356TIP3    H270560   1.887   3.284  12.114  0.4886 -2.0303 -1.2787
16357TIP3   OH270561   0.750   0.210  14.025 -0.2667 -0.2108 -0.5923
16357TIP3    H170562   0.706   0.200  13.941 -2.4326 -1.6817  0.6686
16357TIP3    H270563   0.683   0.244  14.084  1.0378  0.1525  0.7199
16358TIP3   OH270564   3.800   3.248   4.898  0.5049 -0.6569  0.3019
16358TIP3    H170565   3.766   3.169   4.855  0.9175 -0.8374  0.3089
16358TIP3    H270566   3.893   3.232   4.907  0.6453 -0.0207  0.0004
16359TIP3   OH270567   5.849   4.904  11.415 -0.4910 -0.8076  0.3002
16359TIP3    H170568   5.930   4.890  11.463  0.3354  0.0763 -0.8093
16359TIP3    H270569   5.783   4.921  11.482  0.5438 -0.0954  1.1495
16360TIP3   OH270570   4.958   6.722  16.560  0.4958  0.1789  0.3155
16360TIP3    H170571   4.927   6.695  16.646  1.5088 -1.9925  0.0164
16360TIP3    H270572   4.896   6.682  16.499  0.2709  1.0225 -0.0214
16361TIP3   OH270573   3.982   5.335   3.497 -0.2234  0.4555  0.3138
16361TIP3    H170574   3.896   5.297   3.481  0.6279 -0.4678 -2.3118
16361TIP3    H270575   4.007   5.301   3.583 -1.9433 -0.2916  0.5447
16362TIP3   OH270576   1.630   4.184  12.739  0.1377 -0.1993 -0.2889
16362TIP3    H170577   1.668   4.119  12.681 -0.4588  0.0245 -0.9391
16362TIP3    H270578   1.539   4.191  12.711  0.2035  0.9376 -0.2510
16363TIP3   OH270579   2.573   4.083  15.366  0.1903 -0.4903  0.2746
16363TIP3    H170580   2.564   3.988  15.355 -0.6241 -0.4906  0.7972
16363TIP3    H270581   2.483   4.113  15.381  0.4555  0.3535  0.1855
16364TIP3   OH270582   6.666   4.966  14.215  0.4973 -0.4982 -0.8322
16364TIP3    H170583   6.697   5.044  14.260 -0.8800 -0.1119 -0.5188
16364TIP3    H270584   6.664   4.899  14.283 -0.6612 -0.1646 -0.5324
16365TIP3   OH270585   6.082   3.300  13.663  0.3021  0.2940  0.4795
16365TIP3    H170586   5.990   3.300  13.638  0.2465  0.9433  0.6678
16365TIP3    H270587   6.082   3.270  13.754  0.4453 -1.4516 -0.0855
16366TIP3   OH270588   2.139   6.052  14.146  0.3160  0.3382 -0.8534
16366TIP3    H170589   2.204   6.072  14.080  0.0176  1.3866 -0.8387
16366TIP3    H270590   2.083   5.985  14.106  0.1948  0.8962 -1.6144
16367TIP3   OH270591   6.739   3.652   4.614 -0.1094  0.4139  0.2423
16367TIP3    H170592   6.769   3.601   4.539 -1.7798  1.3020 -1.0717
16367TIP3    H270593   6.801   3.724   4.620 -0.0319  0.4067 -0.3847
16368TIP3   OH270594   2.356   6.642   0.521 -0.6485  0.4237 -0.0225
16368TIP3    H170595   2.368   6.557   0.479 -0.7029  0.7583 -0.7244
16368TIP3    H270596   2.397   6.633   0.607 -0.3206 -0.1926 -0.2468
16369TIP3   OH270597   6.815   5.167  16.050 -0.2160 -0.8335  0.2830
16369TIP3    H170598   6.753   5.111  16.005 -0.5356 -0.0710 -0.2380
16369TIP3    H270599   6.893   5.167  15.994 -0.9067  0.7666 -0.7061
16370TIP3   OH270600   0.454   4.392  14.597 -0.0359 -0.0651 -0.5721
16370TIP3    H170601   0.484   4.309  14.634 -0.5877  0.0986  0.2274
16370TIP3    H270602   0.360   4.393  14.611  0.1142  1.2129  0.4655
16371TIP3   OH270603   0.882   1.171  16.761  0.6052 -0.1165 -0.4663
16371TIP3    H170604   0.855   1.081  16.746  0.8734  0.1090 -2.3331
16371TIP3    H270605   0.905   1.205  16.675 -0.5867  2.0983  0.0482
16372TIP3   OH270606   3.760   6.099  16.544  0.5724  0.0051  0.4061
16372TIP3    H170607   3.693   6.098  16.475 -0.3382 -1.3451  1.2809
16372TIP3    H270608   3.724   6.042  16.613  1.2013  1.8027  2.2514
16373TIP3   OH270609   5.062   4.297  10.989  0.3750  0.1368  0.1743
16373TIP3    H170610   5.121   4.274  11.061  0.0644  0.6282  0.5939
16373TIP3    H270611   5.112   4.281  10.910  1.4717  1.6305  0.5493
16374TIP3   OH270612   5.987   1.951   3.758  0.2176  0.0398 -0.2899
16374TIP3    H170613   6.080   1.929   3.751  0.6421  2.0692 -1.4796
16374TIP3    H270614   5.942   1.881   3.711  1.0370 -1.5439  1.2239
16375TIP3   OH270615   4.776   6.185  13.527 -0.1346  0.5999  0.1806
16375TIP3    H170616   4.734   6.129  13.593 -0.0498  0.9777  0.5555
16375TIP3    H270617   4.704   6.211  13.470 -0.3915  1.1110  0.7258
16376TIP3   OH270618   0.634   5.288  12.182 -0.1796 -0.4162 -0.5715
16376TIP3    H170619   0.575   5.350  12.140 -2.8932 -2.8424 -0.4729
16376TIP3    H270620   0.648   5.324  12.270  1.3324  1.9584 -1.7411
16377TIP3   OH270621   4.787   3.259   2.753 -0.1593  0.2953 -0.1310
16377TIP3    H170622   4.814   3.188   2.695  0.9317 -0.1375  0.9027
16377TIP3    H270623   4.726   3.311   2.700 -0.5079 -1.0684 -1.0803
16378TIP3   OH270624   0.522   5.856   2.896 -0.0569 -0.2829 -0.0793
16378TIP3    H170625   0.608   5.816   2.882 -0.0836  0.1499 -1.5545
16378TIP3    H270626   0.461   5.782   2.894 -0.0732 -0.2542 -2.5227
16379TIP3   OH270627   1.996   0.468   6.804  0.4721  0.3235 -0.0020
16379TIP3    H170628   2.021   0.539   6.745  2.2178  0.2450  0.6064
16379TIP3    H270629   1.903   0.482   6.822  0.7215  2.2441 -0.1690
16380TIP3   OH270630   5.596   4.969  11.298  0.5756 -0.0556 -0.2238
16380TIP3    H170631   5.688   4.990  11.313  0.6423  0.2879 -1.0795
16380TIP3    H270632   5.551   5.053  11.299  0.3220 -0.1892 -0.1886
16381TIP3   OH270633   4.524   3.706   5.271  0.5381 -0.2483  0.4217
16381TIP3    H170634   4.591   3.651   5.231 -0.1495 -0.3450 -0.6185
16381TIP3    H270635   4.445   3.652   5.269 -0.3738  1.0950 -1.4511
16382TIP3   OH270636   2.085   5.118   2.671  0.3247 -0.1304  0.1797
16382TIP3    H170637   2.032   5.038   2.678  0.0152  0.1467  1.0294
16382TIP3    H270638   2.061   5.155   2.586  0.1839 -0.7401 -0.0494
16383TIP3   OH270639   5.699   5.420   6.083  0.6129 -0.0559 -0.0287
16383TIP3    H170640   5.687   5.492   6.021  0.2530  0.2763  0.4213
16383TIP3    H270641   5.754   5.357   6.037 -0.2191 -0.1191 -0.9320
16384TIP3   OH270642   1.411   6.210  11.315  0.1155  0.2856 -0.0583
16384TIP3    H170643   1.451   6.140  11.367 -0.4371  0.1574  0.1898
16384TIP3    H270644   1.454   6.203  11.229 -0.9961 -1.3213 -0.5127
16385TIP3   OH270645   0.253   5.251  14.975  0.1751 -0.1395 -0.2269
16385TIP3    H170646   0.184   5.313  15.001  0.2865  0.6624 -1.7973
16385TIP3    H270647   0.333   5.289  15.012 -0.0941 -0.6593  0.9247
16386TIP3   OH270648   0.529   3.330  15.738  0.7496  0.1891  0.2521
16386TIP3    H170649   0.483   3.261  15.786 -0.0975 -0.2026 -1.1037
16386TIP3    H270650   0.544   3.399  15.804 -3.6072  1.2161  0.3073
16387TIP3   OH270651   3.599   6.632   4.588  0.0882  0.6803  0.3182
16387TIP3    H170652   3.561   6.698   4.646 -0.7971 -1.0166  1.7394
16387TIP3    H270653   3.524   6.593   4.543  0.4168 -0.5561  0.8131
16388TIP3   OH270654   2.221   1.249  16.448  0.0794  0.4135 -0.1519
16388TIP3    H170655   2.140   1.221  16.492  1.5358 -0.0305  2.3175
16388TIP3    H270656   2.193   1.320  16.389 -2.2506 -0.3801 -0.0386
16389TIP3   OH270657   3.244   4.771   3.436  0.6116 -0.1112  0.0024
16389TIP3    H170658   3.154   4.806   3.437  0.2961 -0.9252  0.1438
16389TIP3    H270659   3.237   4.690   3.386  1.2921 -0.1363 -0.0488
16390TIP3   OH270660   2.392   3.489  16.083  0.3599  0.1151  0.2512
16390TIP3    H170661   2.428   3.535  16.159 -0.7890  0.0448  0.8415
16390TIP3    H270662   2.299   3.514  16.082  0.0553 -1.0371 -0.2844
16391TIP3   OH270663   4.168   4.105   3.118 -0.3596  0.4114  0.0403
16391TIP3    H170664   4.186   4.069   3.204  0.8021  0.8164 -0.0331
16391TIP3    H270665   4.106   4.177   3.134 -0.4167  0.2569  0.4936
16392TIP3   OH270666   4.057   5.993   1.688 -0.1208 -0.0532  0.3915
16392TIP3    H170667   4.013   6.070   1.725  0.7568  1.3221 -1.3950
16392TIP3    H270668   4.112   6.028   1.618  1.0471 -2.2009  0.2128
16393TIP3   OH270669   3.934   1.031   5.324 -0.2422 -0.2861  0.2074
16393TIP3    H170670   3.877   1.107   5.315  0.7437  0.4509  0.1000
16393TIP3    H270671   3.934   0.991   5.237 -1.6435 -1.0553  0.5483
16394TIP3   OH270672   6.626   5.609  14.996  0.3874  0.5928  0.2036
16394TIP3    H170673   6.592   5.604  14.907  0.1492  0.9907  0.2696
16394TIP3    H270674   6.691   5.679  14.993  1.0709 -0.0341  0.1266
16395TIP3   OH270675   5.872   2.415   4.867 -0.1873 -0.0286 -0.2031
16395TIP3    H170676   5.909   2.496   4.833 -0.9027  1.0478  1.5010
16395TIP3    H270677   5.788   2.405   4.821 -0.2618  0.3940 -0.1600
16396TIP3   OH270678   1.214   5.115  16.358 -0.1140  1.0610 -0.7034
16396TIP3    H170679   1.271   5.043  16.383 -0.0745  1.1522 -0.5317
16396TIP3    H270680   1.260   5.194  16.388 -1.3176  1.0291  1.3419
16397TIP3   OH270681   3.572   6.001   0.417  0.1590 -0.7786 -0.8961
16397TIP3    H170682   3.591   5.920   0.465  0.7883 -0.6846 -0.9855
16397TIP3    H270683   3.657   6.043   0.405 -0.2204  0.1614 -0.3880
16398TIP3   OH270684   0.597   5.475   3.450 -0.3167  0.1847 -0.4378
16398TIP3    H170685   0.599   5.464   3.545 -0.7214  0.1467 -0.4312
16398TIP3    H270686   0.669   5.534   3.431 -0.7186  0.8210 -0.0205
16399TIP3   OH270687   5.148   0.631   2.421  0.0855  0.0116 -0.0333
16399TIP3    H170688   5.138   0.726   2.426 -0.3992  0.0097 -0.8902
16399TIP3    H270689   5.089   0.604   2.351  0.8434 -0.8220 -0.3639
16400TIP3   OH270690   0.289   4.361  15.889  0.1629 -0.2661  0.7150
16400TIP3    H170691   0.234   4.357  15.811 -0.2796  0.0186  1.0119
16400TIP3    H270692   0.331   4.447  15.885  0.6861 -0.5319  0.4228
16401TIP3   OH270693   3.705   5.500   3.685  0.2784  0.0638 -0.4227
16401TIP3    H170694   3.780   5.550   3.717 -1.8190  2.3881  1.0117
16401TIP3    H270695   3.741   5.414   3.665  3.2201  0.9410  0.7955
16402TIP3   OH270696   5.784   2.494   3.309  0.6427  0.2552  0.0322
16402TIP3    H170697   5.814   2.552   3.379 -0.5337  0.4229  0.4016
16402TIP3    H270698   5.840   2.516   3.235  0.4801  1.5738  0.2857
16403TIP3   OH270699   0.490   6.210   5.932  0.4022 -0.1653 -1.0756
16403TIP3    H170700   0.557   6.171   5.987  0.7485  1.1043 -0.5744
16403TIP3    H270701   0.498   6.165   5.848 -0.4815 -2.4791  0.0503
16404TIP3   OH270702   1.961   5.995  16.428  0.0620 -0.0490 -0.2784
16404TIP3    H170703   2.010   5.937  16.371  2.5045 -0.0361  1.7428
16404TIP3    H270704   1.869   5.982  16.402  0.6709 -3.7418 -0.7852
16405TIP3   OH270705   2.298   2.410   0.576  0.1411 -0.3037 -0.2565
16405TIP3    H170706   2.270   2.433   0.487 -2.9479  1.8537  1.1648
16405TIP3    H270707   2.218   2.378   0.618  0.9815  1.0502  2.4649
16406TIP3   OH270708   4.609   2.729  14.876  0.4159  0.4441  0.7229
16406TIP3    H170709   4.520   2.759  14.854  1.3268  2.3539 -0.5156
16406TIP3    H270710   4.600   2.635  14.891 -1.6737  0.4690 -0.2214
16407TIP3   OH270711   4.583   4.025   2.256 -0.4390 -0.2599  0.5147
16407TIP3    H170712   4.516   4.088   2.231 -0.3891 -0.7394 -0.9004
16407TIP3    H270713   4.662   4.077   2.271 -0.8645  0.1959  1.1670
16408TIP3   OH270714   3.061   3.847  13.600  0.5708 -0.1977  0.2866
16408TIP3    H170715   3.028   3.926  13.557 -0.2997 -0.9166 -0.4063
16408TIP3    H270716   3.106   3.799  13.531 -2.3017 -2.1837 -0.3155
16409TIP3   OH270717   1.938   5.431  15.949  0.0290  0.1522  0.6743
16409TIP3    H170718   1.889   5.438  16.031  0.5740  1.0042  0.9405
16409TIP3    H270719   1.871   5.432  15.881 -0.3339  1.1166  1.0411
16410TIP3   OH270720   6.599   0.264   0.594  0.4487 -0.4783 -0.0628
16410TIP3    H170721   6.600   0.231   0.504 -1.0391  0.7275 -0.5414
16410TIP3    H270722   6.689   0.290   0.611  1.0608 -2.1159 -0.6603
16411TIP3   OH270723   3.082   6.468   2.689  0.0809 -0.2857  0.2238
16411TIP3    H170724   3.150   6.474   2.757  0.3560 -0.6645 -0.0205
16411TIP3    H270725   3.051   6.558   2.680  0.0290 -0.2359  0.8691
16412TIP3   OH270726   6.795   4.469   4.077  0.4909 -0.0220 -0.0267
16412TIP3    H170727   6.812   4.506   4.164  1.9883 -1.4803  0.3238
16412TIP3    H270728   6.759   4.382   4.096  0.9741 -0.4046 -0.8573
16413TIP3   OH270729   0.922   0.093   5.084  0.4261  0.2134 -0.4694
16413TIP3    H170730   0.939   0.000   5.100  0.2015  0.2867  0.1890
16413TIP3    H270731   0.993   0.120   5.026  0.6882 -0.2841 -0.3851
16414TIP3   OH270732   2.480   6.403   0.044 -0.0112  0.3147  0.1489
16414TIP3    H170733   2.439   6.469   0.100 -0.1744  1.3842 -1.2140
16414TIP3    H270734   2.427   6.403  -0.036  0.7072 -0.6107 -0.3416
16415TIP3   OH270735   2.908   0.503  13.093  0.2374 -0.7814 -0.3897
16415TIP3    H170736   2.877   0.456  13.170 -3.4564 -1.4207 -2.1782
16415TIP3    H270737   3.001   0.519  13.111 -0.3410 -1.5569  3.8176
16416TIP3   OH270738   6.039   3.817  15.535 -0.9061  0.5895 -0.2080
16416TIP3    H170739   6.105   3.832  15.468  0.0682 -2.1144  0.0761
16416TIP3    H270740   6.067   3.736  15.578 -3.4887  0.3097  1.0318
16417TIP3   OH270741   6.744   1.375   5.478 -0.1508  0.0978 -0.3956
16417TIP3    H170742   6.723   1.462   5.514 -0.6164 -0.5604  0.9852
16417TIP3    H270743   6.659   1.334   5.466  0.0043  0.2930 -2.2907
16418TIP3   OH270744   2.351   2.336   6.171  0.5057  0.4171 -0.5672
16418TIP3    H170745   2.349   2.424   6.134  1.4722  0.5460 -0.3213
16418TIP3    H270746   2.259   2.313   6.182  0.2449  1.3866 -0.6539
16419TIP3   OH270747   1.438   0.197   1.389 -0.6433  0.7293  0.4721
16419TIP3    H170748   1.464   0.210   1.298 -1.9217 -0.1174 -0.0252
16419TIP3    H270749   1.456   0.281   1.431  0.9975  0.7807 -0.2949
16420TIP3   OH270750   6.496   6.592   2.940  0.2080  0.4865  0.2815
16420TIP3    H170751   6.542   6.640   2.870  0.7924  4.2002  3.0636
16420TIP3    H270752   6.566   6.553   2.992 -0.1007  0.3906  0.6265
16421TIP3   OH270753   3.601   2.041   5.609 -0.0793  0.2522 -0.1757
16421TIP3    H170754   3.537   2.002   5.669 -0.8516 -0.4939 -1.4821
16421TIP3    H270755   3.679   1.988   5.621  0.4013  1.2752  1.5580
16422TIP3   OH270756   4.123   3.774   5.027  0.0640  0.3365 -0.1966
16422TIP3    H170757   4.145   3.851   4.975  0.4760  0.2938 -0.0889
16422TIP3    H270758   4.047   3.736   4.983  0.6123  0.1138 -0.9660
16423TIP3   OH270759   4.580   2.035   5.237  0.1742 -0.0421  0.2866
16423TIP3    H170760   4.608   2.115   5.193  1.3752 -1.0164 -0.7483
16423TIP3    H270761   4.579   1.968   5.169  1.2818 -1.3835  1.5403
16424TIP3   OH270762   4.482   2.236   3.473  0.4579 -0.5140  0.5728
16424TIP3    H170763   4.458   2.159   3.422  0.1181 -0.3322  0.4517
16424TIP3    H270764   4.419   2.303   3.446 -1.4235 -1.1748  3.1755
16425TIP3   OH270765   3.399   1.474   1.838  0.2868 -0.1037  0.1834
16425TIP3    H170766   3.394   1.528   1.759 -2.8927 -0.4199  0.1108
16425TIP3    H270767   3.358   1.391   1.813  2.9522 -1.7153  1.0025
16426TIP3   OH270768   2.629   4.781  12.730 -0.0630 -0.2453  0.3200
16426TIP3    H170769   2.725   4.777  12.733  0.0378  0.8360 -0.8958
16426TIP3    H270770   2.609   4.795  12.637 -1.5172 -3.1244  0.1609
16427TIP3   OH270771   2.301   2.505  11.431 -0.2344 -0.4065  0.1947
16427TIP3    H170772   2.238   2.436  11.454 -0.0996 -0.8042 -0.6041
16427TIP3    H270773   2.261   2.550  11.357  0.7516 -1.1369 -0.8012
16428TIP3   OH270774   1.023   1.998   0.518 -0.1814 -0.5232  0.0900
16428TIP3    H170775   1.028   1.931   0.586  1.0943  0.2139  0.7431
16428TIP3    H270776   0.999   1.949   0.439  1.2634 -1.8544  0.4380
16429TIP3   OH270777   5.797   1.044  11.575 -0.6708  0.4568 -0.6490
16429TIP3    H170778   5.855   0.987  11.523  0.5213  1.4388 -0.4328
16429TIP3    H270779   5.777   1.116  11.516  0.6766  1.5696  0.2254
16430TIP3   OH270780   2.922   2.644   4.776 -0.0883 -0.1085  0.2948
16430TIP3    H170781   2.889   2.574   4.720  0.5258  0.6765 -1.0622
16430TIP3    H270782   3.017   2.633   4.775 -0.0823 -0.2436  1.4020
16431TIP3   OH270783   3.165   3.022   1.534 -0.0490  0.0902 -0.6298
16431TIP3    H170784   3.142   3.102   1.581 -1.0895 -0.4474 -0.1994
16431TIP3    H270785   3.098   3.013   1.467  0.7092  0.1786 -1.4073
16432TIP3   OH270786   4.963   2.678  16.609 -0.1845 -0.7103 -0.9016
16432TIP3    H170787   5.017   2.601  16.627 -0.0267 -0.0581  1.6926
16432TIP3    H270788   4.890   2.671  16.671 -0.9346  0.4726 -1.6342
16433TIP3   OH270789   5.119   3.150   0.832  0.5222 -0.5806  0.6128
16433TIP3    H170790   5.109   3.094   0.909 -1.8990 -1.3236 -0.1892
16433TIP3    H270791   5.031   3.155   0.794  1.0948  2.1298 -0.4935
16434TIP3   OH270792   0.799   2.789   4.450 -0.2720  0.1322 -0.2406
16434TIP3    H170793   0.743   2.863   4.474 -1.6519 -0.2892 -2.0365
16434TIP3    H270794   0.869   2.827   4.398  0.5207  0.5158  1.0870
16435TIP3   OH270795   2.167   1.557   0.687 -0.4152  0.5778 -0.4079
16435TIP3    H170796   2.193   1.623   0.623 -0.2865  1.8391  0.9152
16435TIP3    H270797   2.073   1.546   0.674 -0.0325 -0.7062 -2.1983
16436TIP3   OH270798   0.692   6.245   0.036 -0.0668  1.2574 -0.7743
16436TIP3    H170799   0.740   6.327   0.021  0.5681  1.1421  0.5283
16436TIP3    H270800   0.753   6.190   0.084 -0.6590  0.1802 -1.2495
16437TIP3   OH270801   4.722   2.995  13.496  1.3670 -0.1517  0.3029
16437TIP3    H170802   4.675   2.913  13.513  0.7719 -0.1625 -1.3524
16437TIP3    H270803   4.810   2.967  13.472  0.6468 -0.4291 -2.1300
16438TIP3   OH270804   0.337   4.352   1.181  0.4668 -0.3746  0.2072
16438TIP3    H170805   0.261   4.359   1.124  0.5409 -1.5077 -0.0516
16438TIP3    H270806   0.318   4.410   1.255 -0.1620  0.1747 -0.3823
16439TIP3   OH270807   3.918   1.224   3.355 -0.2192  0.6556  0.1016
16439TIP3    H170808   3.852   1.204   3.421 -0.1155  0.2096  0.0692
16439TIP3    H270809   3.875   1.285   3.295 -0.3983  0.8515  0.4285
16440TIP3   OH270810   4.905   4.198   3.848 -0.5527  0.3946 -0.2083
16440TIP3    H170811   4.946   4.112   3.860  0.9319  1.1838  0.4168
16440TIP3    H270812   4.912   4.240   3.934 -1.1671  1.1920 -0.5488
16441TIP3   OH270813   5.214   2.716  11.087  0.6344 -0.6473  0.2478
16441TIP3    H170814   5.163   2.638  11.108  0.7771 -0.9272 -0.4258
16441TIP3    H270815   5.150   2.787  11.085  0.6972 -0.5154  2.1368
16442TIP3   OH270816   1.810   0.463  15.894 -0.6851  0.0595 -0.2506
16442TIP3    H170817   1.747   0.525  15.858 -0.5450  0.5618  0.3580
16442TIP3    H270818   1.848   0.508  15.970 -1.4474 -1.2061  0.9224
16443TIP3   OH270819   1.067   2.155   0.913 -0.4467  0.4312 -0.3221
16443TIP3    H170820   1.114   2.072   0.922 -1.1795  0.1352  0.8758
16443TIP3    H270821   1.114   2.202   0.844 -1.4217 -1.9368 -2.6679
16444TIP3   OH270822   2.476   4.863  14.550  0.3054 -0.1145  0.3029
16444TIP3    H170823   2.446   4.844  14.461 -2.1575  0.6686  0.9012
16444TIP3    H270824   2.421   4.808  14.606  1.6288 -0.3774  1.3639
16445TIP3   OH270825   5.607   2.854  10.933  0.0283 -0.0463  0.2111
16445TIP3    H170826   5.550   2.919  10.892 -0.0002 -0.3874 -0.2854
16445TIP3    H270827   5.567   2.840  11.019 -0.5325 -0.1379 -0.0582
16446TIP3   OH270828   6.144   3.558   4.602  0.3807 -0.0076  0.2554
16446TIP3    H170829   6.128   3.570   4.508 -0.9512  0.2346  0.5038
16446TIP3    H270830   6.215   3.618   4.622  0.7719 -0.1645 -0.6230
16447TIP3   OH270831   1.350   5.956   4.711 -0.7859 -0.0650  0.2832
16447TIP3    H170832   1.333   5.899   4.786  1.2440 -1.9573 -0.6513
16447TIP3    H270833   1.427   5.919   4.669  0.3894  3.1722 -0.6009
16448TIP3   OH270834   5.249   1.481  16.678 -0.0135  0.2907  0.0437
16448TIP3    H170835   5.198   1.479  16.759  0.6179 -0.8911  0.4267
16448TIP3    H270836   5.298   1.399  16.678  0.2583  0.4351 -1.3760
16449TIP3   OH270837   3.729   0.505   5.039 -0.0083 -0.7033  0.6049
16449TIP3    H170838   3.643   0.476   5.009 -0.0476 -1.3634  1.3293
16449TIP3    H270839   3.790   0.441   5.003  0.0490 -0.9269  1.0903
16450TIP3   OH270840   4.656   4.434  12.742  0.0720  0.4168  0.8993
16450TIP3    H170841   4.729   4.419  12.682 -1.9081  2.0624 -2.0080
16450TIP3    H270842   4.639   4.348  12.780  0.8772 -0.8366 -1.4769
16451TIP3   OH270843   6.755   4.484  15.642  0.1863  0.6223  0.4429
16451TIP3    H170844   6.761   4.427  15.566 -1.9189 -0.2672  0.9182
16451TIP3    H270845   6.846   4.504  15.664  0.9006 -1.3764 -0.6019
16452TIP3   OH270846   6.376   3.508   2.121 -0.4059  0.2457  0.0987
16452TIP3    H170847   6.432   3.575   2.161 -0.7383  0.5131  0.1147
16452TIP3    H270848   6.408   3.502   2.031  1.2397 -1.3133  0.7378
16453TIP3   OH270849   4.213   2.327  16.399  0.5561 -0.0811 -0.3607
16453TIP3    H170850   4.152   2.401  16.401 -1.3068 -1.5691 -0.1205
16453TIP3    H270851   4.297   2.366  16.377 -0.5322  2.0058 -1.0114
16454TIP3   OH270852   0.082   0.366  17.090  0.5485 -0.4168 -0.2633
16454TIP3    H170853   0.149   0.430  17.112 -1.4431  2.1492 -1.4050
16454TIP3    H270854   0.083   0.361  16.995 -0.5589 -0.6809 -0.2711
16455TIP3   OH270855   2.050   6.199  16.902 -0.6048  0.1029  0.4434
16455TIP3    H170856   2.065   6.230  16.991 -0.1357 -0.7249  0.6526
16455TIP3    H270857   1.990   6.125  16.912 -0.1207 -0.3371  0.1183
16456TIP3   OH270858   3.884   1.237  14.194 -0.2714  0.4907 -0.8057
16456TIP3    H170859   3.952   1.209  14.133 -0.6317  1.9279 -1.9025
16456TIP3    H270860   3.927   1.242  14.279  0.5228 -0.4076 -1.1466
16457TIP3   OH270861   3.095   3.549  15.590  0.2782 -0.2663  0.2861
16457TIP3    H170862   3.150   3.475  15.562  0.6158  0.2706 -0.4705
16457TIP3    H270863   3.034   3.563  15.518  2.7483  2.7156 -1.3948
16458TIP3   OH270864   6.684   3.621  16.926 -0.5136  0.1000  0.3674
16458TIP3    H170865   6.700   3.560  16.853 -0.8309 -1.6624  1.7389
16458TIP3    H270866   6.590   3.615  16.942 -0.1370 -1.1237  2.2730
16459TIP3   OH270867   0.357   4.284   0.545 -0.1098  0.8259  0.1508
16459TIP3    H170868   0.394   4.202   0.576 -2.0768 -0.4834 -0.8604
16459TIP3    H270869   0.263   4.273   0.554 -0.4370  2.7066 -0.6723
16460TIP3   OH270870   3.311   5.386   3.782  0.4400 -0.4045 -0.1942
16460TIP3    H170871   3.378   5.454   3.780 -0.3907  0.4638  0.8860
16460TIP3    H270872   3.281   5.384   3.873  0.4386 -2.2037 -0.2149
16461TIP3   OH270873   6.717   0.480  11.430 -0.5030 -0.2207 -0.2782
16461TIP3    H170874   6.757   0.459  11.515 -1.6031 -2.2736 -0.2208
16461TIP3    H270875   6.651   0.546  11.450 -1.9078 -1.8932  0.7721
16462TIP3   OH270876   4.345   1.427   1.760 -0.1361  0.8903  0.6310
16462TIP3    H170877   4.388   1.342   1.771  1.4797  1.4859 -0.8141
16462TIP3    H270878   4.284   1.414   1.688  0.8726  1.2242 -0.2901
16463TIP3   OH270879   5.765   3.284  16.809  0.7518 -0.1139  0.1430
16463TIP3    H170880   5.810   3.333  16.878 -0.6078  0.5784  0.5478
16463TIP3    H270881   5.783   3.334  16.729  0.8962  0.0417  0.2726
16464TIP3   OH270882   5.890   4.351   1.703  0.3038 -0.1276 -0.0187
16464TIP3    H170883   5.822   4.298   1.661 -1.5713  2.7706 -0.7936
16464TIP3    H270884   5.846   4.390   1.779  1.5288  0.5647  0.3508
16465TIP3   OH270885   3.545   0.203  16.690 -0.2848  0.5424  0.1596
16465TIP3    H170886   3.551   0.181  16.597 -3.4963 -2.2903  0.5080
16465TIP3    H270887   3.636   0.202  16.721  0.6820 -0.2860 -2.5863
16466TIP3   OH270888   3.359   1.913   5.761 -0.1986 -0.4595 -0.1061
16466TIP3    H170889   3.407   1.933   5.842  1.2203 -0.3458 -0.9519
16466TIP3    H270890   3.271   1.946   5.777  0.2098  0.0603  1.1899
16467TIP3   OH270891   3.707   2.573   4.372  0.2672 -0.5721 -0.0048
16467TIP3    H170892   3.801   2.556   4.364  0.5975  0.2371  1.8912
16467TIP3    H270893   3.684   2.538   4.458 -0.7092  1.1305  0.4514
16468TIP3   OH270894   5.997   1.720   5.169 -0.3324  0.0628  0.0496
16468TIP3    H170895   6.045   1.655   5.221 -0.8671 -0.8812 -0.6143
16468TIP3    H270896   5.938   1.668   5.115  0.3197  1.0175 -1.6123
16469TIP3   OH270897   5.184   4.959  12.072  0.0694  0.1944 -0.3237
16469TIP3    H170898   5.251   4.952  12.005  1.5588  0.8209  1.0781
16469TIP3    H270899   5.140   4.874  12.071  1.9556 -0.8049 -0.1244
16470TIP3   OH270900   6.326   0.309   5.247 -0.0084  0.0355  0.2878
16470TIP3    H170901   6.297   0.305   5.338  1.1013 -0.1332  0.6507
16470TIP3    H270902   6.329   0.403   5.227  0.3221  0.1052  0.6338
16471TIP3   OH270903   0.156   6.130   2.587 -0.1369 -0.5046  0.0702
16471TIP3    H170904   0.077   6.101   2.541  0.2145 -1.4455  0.0509
16471TIP3    H270905   0.216   6.056   2.581  0.3409 -0.2101  1.0374
16472TIP3   OH270906   4.902   3.092  15.844 -0.9666 -0.4756  0.4976
16472TIP3    H170907   4.961   3.089  15.920  0.0964  0.3601 -0.2661
16472TIP3    H270908   4.948   3.149  15.782 -0.8555 -2.7633 -1.5889
16473TIP3   OH270909   4.385   3.552  12.320 -0.8190 -0.6826 -0.1705
16473TIP3    H170910   4.352   3.505  12.397 -0.9481 -1.9212 -0.9715
16473TIP3    H270911   4.348   3.640  12.328 -0.9912 -0.8563  1.0827
16474TIP3   OH270912   3.965   2.622   2.335 -0.0722 -0.2283  0.7298
16474TIP3    H170913   3.938   2.713   2.329  0.3714 -0.0039  1.9800
16474TIP3    H270914   4.000   2.613   2.424  2.5160 -0.8920 -0.2941
16475TIP3   OH270915   5.120   6.042   0.608 -0.2466  0.0886 -0.2507
16475TIP3    H170916   5.146   5.968   0.554 -2.3757 -0.4688 -0.5690
16475TIP3    H270917   5.156   6.119   0.564 -0.1493 -0.5386 -1.2656
16476TIP3   OH270918   3.842   1.913  14.539  0.0186 -0.6764 -0.4090
16476TIP3    H170919   3.882   1.826  14.543 -1.1003 -1.1972 -0.2917
16476TIP3    H270920   3.761   1.905  14.589 -0.2801  0.3358 -0.7078
16477TIP3   OH270921   6.771   1.303  17.054 -0.2391  0.2976 -0.1744
16477TIP3    H170922   6.707   1.359  17.011 -0.3876  1.1649  1.1245
16477TIP3    H270923   6.720   1.250  17.115  0.1758  0.4331  0.2986
16478TIP3   OH270924   2.888   0.159  12.657  0.1585  0.1316  0.0235
16478TIP3    H170925   2.841   0.239  12.634  0.3588 -0.1322 -1.3421
16478TIP3    H270926   2.948   0.144  12.584  1.1368 -0.4922  0.9298
16479TIP3   OH270927   6.807   1.417   2.802  0.2539  0.5049 -0.1243
16479TIP3    H170928   6.868   1.347   2.780  2.1592  1.6782  1.2899
16479TIP3    H270929   6.747   1.378   2.865  0.3330 -0.2902 -0.5407
16480TIP3   OH270930   0.514   2.498   4.962 -0.2643  0.3695  0.8956
16480TIP3    H170931   0.523   2.504   4.867 -0.7114 -0.5847  0.7848
16480TIP3    H270932   0.531   2.587   4.994  0.2404  0.6123 -0.0429
16481TIP3   OH270933   0.042   0.887  13.275 -0.6494  0.3387  0.3731
16481TIP3    H170934   0.065   0.878  13.368  1.1722  0.2964 -0.0774
16481TIP3    H270935  -0.012   0.810  13.256 -0.3265 -0.0874  1.1677
16482TIP3   OH270936   6.706   1.252   6.240  0.0878  0.2415  0.8949
16482TIP3    H170937   6.800   1.240   6.256  0.3926  1.7184  0.3552
16482TIP3    H270938   6.669   1.265   6.327  0.7848  2.1097  0.9436
16483TIP3   OH270939   2.155   3.942  14.639  0.3145  0.0295 -0.0946
16483TIP3    H170940   2.166   3.999  14.715  1.1618 -0.2572  0.0088
16483TIP3    H270941   2.104   3.994  14.576 -1.1604 -0.0602  1.0048
16484TIP3   OH270942   5.537   5.228  14.220 -0.2156  0.4155  0.7144
16484TIP3    H170943   5.569   5.153  14.170  1.4859 -0.0326  2.4166
16484TIP3    H270944   5.531   5.299  14.157  0.5059 -0.5083 -0.4126
16485TIP3   OH270945   2.027   5.940  17.204 -0.4861  0.1494  0.3009
16485TIP3    H170946   2.013   5.921  17.297  0.4618  0.6432  0.5487
16485TIP3    H270947   2.022   5.854  17.161  0.1580 -0.2172  0.9457
16486TIP3   OH270948   0.960   5.125   0.276  0.3370 -0.5175 -0.0546
16486TIP3    H170949   0.974   5.130   0.182 -0.6445  1.3703 -0.1231
16486TIP3    H270950   0.873   5.087   0.286  1.6753 -3.6941  0.1940
16487TIP3   OH270951   4.638   4.208   0.465 -0.3492  0.1852  0.2985
16487TIP3    H170952   4.663   4.126   0.423 -2.4799  0.5100 -1.7080
16487TIP3    H270953   4.634   4.187   0.558 -0.2488 -1.7994 -0.1238
16488TIP3   OH270954   2.956   1.721  13.083 -0.2870  0.1967 -0.2429
16488TIP3    H170955   2.883   1.677  13.038  0.3543 -0.9765 -0.1397
16488TIP3    H270956   2.973   1.799  13.030 -0.0950 -0.7332 -1.5740
16489TIP3   OH270957   0.906   3.809   0.253  0.3856  0.3218 -0.1398
16489TIP3    H170958   0.818   3.846   0.242 -0.8078 -2.5246 -0.7097
16489TIP3    H270959   0.901   3.761   0.336  1.8073  1.1868  0.4595
16490TIP3   OH270960   0.871   3.024   2.267 -0.2646 -0.6388 -0.1044
16490TIP3    H170961   0.894   3.070   2.187 -1.1460  0.2000  0.1229
16490TIP3    H270962   0.805   2.960   2.241  0.6727 -1.5212 -0.3475
16491TIP3   OH270963   5.796   6.737  15.053 -0.3321  0.0028 -0.4072
16491TIP3    H170964   5.818   6.671  15.118  0.2589  0.4925 -0.1051
16491TIP3    H270965   5.703   6.724  15.036 -0.3351 -0.5624  0.0396
16492TIP3   OH270966   5.604   4.578  16.063 -0.5368 -0.4975 -0.2562
16492TIP3    H170967   5.688   4.597  16.021 -0.5060  1.6477  0.7215
16492TIP3    H270968   5.626   4.548  16.151 -0.7376 -1.5265 -0.5534
16493TIP3   OH270969   6.077   3.149  11.222 -0.1706  0.9615  0.2446
16493TIP3    H170970   6.022   3.189  11.155 -1.4897  0.5760  1.0781
16493TIP3    H270971   6.055   3.195  11.303 -1.1053 -0.8615  1.0565
16494TIP3   OH270972   1.082   1.912  11.259  0.1061  0.4565  0.8204
16494TIP3    H170973   1.070   1.899  11.165 -0.5991  0.8906  0.8516
16494TIP3    H270974   1.171   1.946  11.267  0.4044 -0.2015  0.3682
16495TIP3   OH270975   5.043   1.812   1.167  0.2098  0.5947  0.4180
16495TIP3    H170976   5.126   1.858   1.183  2.5232 -3.4265  0.6248
16495TIP3    H270977   5.020   1.775   1.252 -1.1709  0.5590  0.0495
16496TIP3   OH270978   4.251   4.968  15.305 -0.0816  0.2005  0.2369
16496TIP3    H170979   4.252   5.061  15.331  0.1555  0.4222 -0.5559
16496TIP3    H270980   4.343   4.942  15.306 -0.3088 -0.6120  2.4923
16497TIP3   OH270981   4.777   1.212  14.993 -0.4711 -0.4524 -0.1432
16497TIP3    H170982   4.858   1.261  15.009 -0.0399 -1.5722  1.1543
16497TIP3    H270983   4.744   1.191  15.080 -1.7010 -0.7736 -0.6769
16498TIP3   OH270984   4.125   6.617   3.156 -0.1694 -0.4188 -0.3525
16498TIP3    H170985   4.134   6.675   3.080 -0.5057 -0.5794 -0.5122
16498TIP3    H270986   4.212   6.579   3.166 -0.2066 -0.6382 -0.8505
16499TIP3   OH270987   5.308   0.250   1.373 -0.6287  0.0643  0.2322
16499TIP3    H170988   5.234   0.192   1.355  0.7268 -1.1448 -1.5532
16499TIP3    H270989   5.329   0.234   1.465  0.6721 -3.4338 -0.6139
16500TIP3   OH270990   2.385   0.851   1.426 -0.2170  0.0229  0.2021
16500TIP3    H170991   2.420   0.918   1.367 -0.2484 -0.3720 -0.2658
16500TIP3    H270992   2.396   0.889   1.514 -2.0752  1.5103 -0.1603
16501TIP3   OH270993   1.115   0.314   3.002  0.3558 -0.3153 -0.4071
16501TIP3    H170994   1.120   0.401   3.042 -0.1455 -0.9809  1.1697
16501TIP3    H270995   1.053   0.325   2.930  0.4449  0.6844 -0.3422
16502TIP3   OH270996   2.361   3.717   3.812 -0.1518  0.0518  0.1773
16502TIP3    H170997   2.448   3.755   3.808  0.1544 -0.7541 -0.8699
16502TIP3    H270998   2.302   3.788   3.788  0.3541  0.1004 -0.9313
16503TIP3   OH270999   4.124   3.234   0.094  0.1894 -0.1605 -0.4352
16503TIP3    H171000   4.154   3.324   0.080  0.4729 -0.5227 -2.2620
16503TIP3    H271001   4.188   3.180   0.047 -0.5404 -1.2554 -0.1764
16504TIP3   OH271002   0.992   3.578   1.860  0.4572  0.4356 -0.0874
16504TIP3    H171003   1.074   3.626   1.872  0.9217  0.0179 -1.5227
16504TIP3    H271004   0.947   3.624   1.789 -0.1951  0.1976  0.1652
16505TIP3   OH271005   3.582   0.160  14.304 -0.0621 -0.1983  0.1090
16505TIP3    H171006   3.585   0.194  14.394  0.5439 -1.8339  0.7239
16505TIP3    H271007   3.491   0.176  14.277 -0.3412  0.0350  1.1235
16506TIP3   OH271008   4.886   6.728  14.180 -0.1208  0.2048 -0.0508
16506TIP3    H171009   4.911   6.660  14.243 -1.1709 -0.3227 -0.1943
16506TIP3    H271010   4.927   6.701  14.098 -0.4879 -0.2232 -0.0923
16507TIP3   OH271011   2.360   0.667   0.450 -0.0768 -0.3441  0.6489
16507TIP3    H171012   2.330   0.728   0.517 -1.5756 -0.1473 -0.1834
16507TIP3    H271013   2.369   0.721   0.371 -0.4885 -1.0069  0.1438
16508TIP3   OH271014   6.595   5.117  11.900 -0.0741 -0.7753 -0.2639
16508TIP3    H171015   6.568   5.042  11.847  0.3560 -0.7645 -0.5006
16508TIP3    H271016   6.543   5.190  11.867  1.8010 -0.2590 -2.2400
16509TIP3   OH271017   1.148   3.728  15.890  0.0251 -0.2361 -0.0625
16509TIP3    H171018   1.199   3.775  15.824 -1.1235  0.7577 -0.2592
16509TIP3    H271019   1.133   3.792  15.959 -1.7702 -0.2237 -0.4428
16510TIP3   OH271020   0.925   2.066  12.361 -0.2183 -0.4332  0.0199
16510TIP3    H171021   0.947   2.032  12.274  1.1393  1.5330 -0.4342
16510TIP3    H271022   0.841   2.111  12.349  0.5894  0.9324 -0.5721
16511TIP3   OH271023   1.417   1.761   2.918  0.3059 -0.1086  0.1509
16511TIP3    H171024   1.489   1.821   2.938 -0.2514 -0.3807  3.0438
16511TIP3    H271025   1.460   1.676   2.906  0.8415  0.3972 -1.8363
16512TIP3   OH271026   0.421   5.104  14.243  0.1702 -0.4083  0.1547
16512TIP3    H171027   0.373   5.171  14.292 -0.3674  0.8813 -2.0354
16512TIP3    H271028   0.489   5.152  14.196  0.4100 -1.5323 -0.6863
16513TIP3   OH271029   5.508   4.094  12.083 -0.1411  0.7899  0.1170
16513TIP3    H171030   5.489   4.124  12.172 -1.7971  0.7155 -0.1912
16513TIP3    H271031   5.497   4.172  12.029  1.6517  1.0155  0.0670
16514TIP3   OH271032   1.952   4.653   5.740 -0.6010 -0.4824 -0.0492
16514TIP3    H171033   1.876   4.614   5.782 -0.3125 -0.3934  0.5641
16514TIP3    H271034   1.937   4.748   5.746 -0.3918 -0.4607  0.1845
16515TIP3   OH271035   4.290   3.355   3.141  0.1606 -0.3465  0.3740
16515TIP3    H171036   4.255   3.409   3.212 -0.8413 -2.1242  1.2556
16515TIP3    H271037   4.340   3.417   3.088 -2.0674  1.7423  0.5897
16516TIP3   OH271038   0.200   6.625  16.634 -0.3257  0.1058 -0.4316
16516TIP3    H171039   0.265   6.564  16.667 -0.7164  0.1837  0.4986
16516TIP3    H271040   0.153   6.655  16.712  0.1600  1.9418 -0.8197
16517TIP3   OH271041   0.305   4.708   4.681 -0.3668  0.1676  0.3263
16517TIP3    H171042   0.236   4.668   4.735  0.0934 -0.4944  0.4327
16517TIP3    H271043   0.289   4.802   4.689  0.2527  0.1376  2.3783
16518TIP3   OH271044   5.826   1.993  11.576  0.7556  0.5030  0.0295
16518TIP3    H171045   5.887   1.994  11.649 -0.3205 -0.8396  0.9817
16518TIP3    H271046   5.878   2.019  11.500  3.5062 -4.1619  0.1170
16519TIP3   OH271047   4.300   5.450  16.231 -0.4220  0.3769  0.9179
16519TIP3    H171048   4.380   5.445  16.283 -0.4367 -0.0134  0.9058
16519TIP3    H271049   4.248   5.518  16.274 -0.6312 -0.2702  1.6882
16520TIP3   OH271050   6.795   4.374  13.642 -0.1246 -0.0300 -0.3391
16520TIP3    H171051   6.872   4.384  13.586 -0.3509  2.8979 -0.1890
16520TIP3    H271052   6.829   4.339  13.724  1.0173  0.9693 -0.3799
16521TIP3   OH271053   1.177   4.324  13.590 -0.0204 -0.5094  0.0385
16521TIP3    H171054   1.146   4.318  13.681 -0.0299  1.0313  0.1674
16521TIP3    H271055   1.121   4.265  13.541 -0.6330 -0.6513  0.8999
16522TIP3   OH271056   0.311   0.274  12.223 -0.5663  0.3311  0.4326
16522TIP3    H171057   0.343   0.229  12.144 -2.8936  1.3288 -1.1566
16522TIP3    H271058   0.326   0.367  12.205 -1.8296  0.6153  0.7948
16523TIP3   OH271059   0.889   5.269  12.527 -0.4421  0.0679  0.2254
16523TIP3    H171060   0.847   5.201  12.474 -2.0765 -0.4359  2.1045
16523TIP3    H271061   0.936   5.221  12.595 -1.2160  0.7791  1.2828
16524TIP3   OH271062   1.796   2.121   5.533  0.4542 -0.2701 -0.1584
16524TIP3    H171063   1.828   2.132   5.443  0.5890  0.7542  0.0038
16524TIP3    H271064   1.872   2.087   5.581  0.7746  0.4046 -0.1696
16525TIP3   OH271065   2.524   0.037  13.830 -0.5169  0.4189  0.3298
16525TIP3    H171066   2.555   0.037  13.739 -1.9996  1.2114 -0.2146
16525TIP3    H271067   2.596   0.073  13.881  0.0485  0.6887 -0.6591
16526TIP3   OH271068   4.011   0.406  10.523 -0.1619  0.1783  0.0330
16526TIP3    H171069   3.919   0.385  10.510 -0.6108  1.4486  1.0604
16526TIP3    H271070   4.050   0.324  10.554 -0.5272 -0.8877 -2.2609
16527TIP3   OH271071   4.409   5.475   4.975 -0.0290  0.2391 -0.0266
16527TIP3    H171072   4.452   5.556   5.001 -0.4681  0.4431  0.0621
16527TIP3    H271073   4.383   5.489   4.884 -0.6174  0.4177  0.1647
16528TIP3   OH271074   0.096   5.894  14.584  0.1898 -0.3732  0.7558
16528TIP3    H171075   0.109   5.986  14.561  2.0181 -1.3632 -2.4942
16528TIP3    H271076   0.156   5.878  14.657  2.6408  0.1519 -1.0823
16529TIP3   OH271077   1.050   3.019   5.116 -0.3091 -0.1036 -0.2527
16529TIP3    H171078   1.101   2.983   5.188 -0.7660  0.8323  0.5463
16529TIP3    H271079   1.100   3.095   5.087 -0.6664  0.1416 -0.2253
16530TIP3   OH271080   3.712   2.708  12.214 -0.2302 -0.2061 -0.4467
16530TIP3    H171081   3.666   2.628  12.186  0.9122 -1.5983  1.5342
16530TIP3    H271082   3.677   2.727  12.300  2.4897 -1.0285  0.9070
16531TIP3   OH271083   2.487   1.501   6.265  0.1711  0.1484 -0.1943
16531TIP3    H171084   2.411   1.449   6.293 -0.5800 -0.3463 -2.9742
16531TIP3    H271085   2.467   1.590   6.292 -1.0945 -0.1124 -0.2499
16532TIP3   OH271086   0.353   6.528  12.968 -0.4357  0.8719  0.2131
16532TIP3    H171087   0.352   6.459  12.901  1.2140 -0.6352  1.6811
16532TIP3    H271088   0.446   6.542  12.987 -0.8282  2.2101  1.2476
16533TIP3   OH271089   5.181   2.544   5.503  0.0971  0.1367  0.7569
16533TIP3    H171090   5.194   2.490   5.581  0.3997 -0.2002  0.4746
16533TIP3    H271091   5.087   2.539   5.485  0.3571 -1.6606 -0.2410
16534TIP3   OH271092   2.811   3.870  12.174 -0.2698 -0.1758 -0.0526
16534TIP3    H171093   2.781   3.813  12.104 -0.8456 -0.8290  0.7229
16534TIP3    H271094   2.884   3.823  12.215 -1.0353 -0.5688  0.8758
16535TIP3   OH271095   6.183   3.287   4.420  0.6857  0.5841 -0.2986
16535TIP3    H171096   6.179   3.373   4.378  0.9132  1.1509  0.8181
16535TIP3    H271097   6.115   3.236   4.376 -1.6152  2.3018  1.1735
16536TIP3   OH271098   5.811   1.333  14.684 -0.3419 -0.1158 -0.3188
16536TIP3    H171099   5.834   1.247  14.720 -0.0202  0.8639  1.9420
16536TIP3    H271100   5.895   1.378  14.675 -0.4496 -0.2385 -2.0834
16537TIP3   OH271101   5.095   3.709   4.755 -0.4193 -0.2800  0.5211
16537TIP3    H171102   5.004   3.734   4.769 -0.6222 -1.6468  1.8010
16537TIP3    H271103   5.144   3.757   4.822 -0.2421  0.1258  0.1064
16538TIP3   OH271104   5.206   4.389   0.114  0.2930  0.1927  0.0723
16538TIP3    H171105   5.284   4.388   0.169  0.2540 -0.5871  0.1247
16538TIP3    H271106   5.135   4.411   0.175  0.5528  1.4447 -0.0854
16539TIP3   OH271107   3.996   6.383   3.866  0.2754 -0.8635 -0.3943
16539TIP3    H171108   4.073   6.392   3.811  0.1373  0.0342 -0.4345
16539TIP3    H271109   3.975   6.472   3.894 -1.2591 -1.0014 -1.0876
16540TIP3   OH271110   1.770   5.669  14.305  0.1673  0.5671 -0.0753
16540TIP3    H171111   1.814   5.722  14.238  0.9075  0.8998  0.6768
16540TIP3    H271112   1.760   5.728  14.380  2.1147 -0.7117  1.2268
16541TIP3   OH271113   1.462   4.411   5.582 -0.5938 -0.5785  0.5317
16541TIP3    H171114   1.428   4.500   5.593 -0.7076 -0.3871 -1.2335
16541TIP3    H271115   1.384   4.355   5.582 -0.9130 -0.2365 -2.5290
16542TIP3   OH271116   6.673   0.836   0.124  0.3654  1.0859 -0.2617
16542TIP3    H171117   6.592   0.789   0.148  1.2635 -1.3549 -1.7904
16542TIP3    H271118   6.683   0.902   0.192 -1.2270 -0.6563  1.7560
16543TIP3   OH271119   3.653   1.335   1.556  0.0803 -0.5516 -0.0182
16543TIP3    H171120   3.719   1.393   1.518 -0.2747 -0.4801 -0.5396
16543TIP3    H271121   3.651   1.358   1.648 -0.4900  0.6869 -0.3327
16544TIP3   OH271122   2.404   1.733   5.688  0.0596 -0.3928 -0.2897
16544TIP3    H171123   2.476   1.738   5.752  0.2773 -2.1261 -0.3882
16544TIP3    H271124   2.443   1.692   5.611 -0.1041  1.9966 -1.7288
16545TIP3   OH271125   3.000   6.373  11.117  0.5648  0.5152  0.2302
16545TIP3    H171126   3.016   6.448  11.059 -1.2350 -0.2576 -1.3025
16545TIP3    H271127   3.084   6.328  11.120  0.6231  0.4084 -2.0374
16546TIP3   OH271128   4.873   2.849   5.709 -0.6279  0.6205  0.2905
16546TIP3    H171129   4.888   2.821   5.799  2.1568  1.0641  0.0235
16546TIP3    H271130   4.952   2.821   5.662 -2.3096 -0.2171 -2.1742
16547TIP3   OH271131   3.799   5.659  14.624  0.2466 -0.2199 -0.0539
16547TIP3    H171132   3.880   5.625  14.586  0.3733  0.6163 -0.5309
16547TIP3    H271133   3.783   5.602  14.700  1.9897  0.4059  0.8192
16548TIP3   OH271134   2.525   2.240  10.866 -0.7931 -0.4581  0.6854
16548TIP3    H171135   2.484   2.215  10.783  0.1551 -0.2008  0.1353
16548TIP3    H271136   2.618   2.219  10.855 -0.5968 -0.0763  1.5429
16549TIP3   OH271137   1.728   4.064  14.397 -0.5191 -0.4075 -0.1953
16549TIP3    H171138   1.680   4.133  14.350 -1.0387 -0.2702  0.5417
16549TIP3    H271139   1.737   3.994  14.332 -0.7208  0.0193 -0.6948
16550TIP3   OH271140   5.782   6.372  15.897  0.0974 -0.5915  0.1549
16550TIP3    H171141   5.871   6.355  15.867  0.2579 -1.5108  1.0977
16550TIP3    H271142   5.736   6.407  15.821  0.7961 -1.7582 -0.8090
16551TIP3   OH271143   3.499   1.337   0.603 -0.2633  0.7853  0.2167
16551TIP3    H171144   3.408   1.354   0.577 -0.1988 -1.6766 -1.8338
16551TIP3    H271145   3.546   1.328   0.520  1.0583 -1.9250  1.1959
16552TIP3   OH271146   0.383   6.291   0.385  0.3100 -0.1443  0.9882
16552TIP3    H171147   0.475   6.268   0.375  0.7707  1.6830  0.7980
16552TIP3    H271148   0.356   6.323   0.299 -0.0736  0.7634  1.4332
16553TIP3   OH271149   3.260   6.785  11.559 -0.3735 -0.4815 -0.3610
16553TIP3    H171150   3.309   6.866  11.572 -1.8594  0.3936 -0.0100
16553TIP3    H271151   3.168   6.811  11.571 -1.1438 -1.5665 -3.3034
16554TIP3   OH271152   2.906   2.959  16.525  0.1953  0.2333 -0.2082
16554TIP3    H171153   2.914   2.871  16.489  1.0561  0.5992 -0.9336
16554TIP3    H271154   2.816   2.985  16.505  0.6028  0.3566 -1.9399
16555TIP3   OH271155   0.772   5.689  11.005 -0.2430  0.0675 -0.5669
16555TIP3    H171156   0.790   5.783  11.004 -1.0689  0.3406  2.7932
16555TIP3    H271157   0.685   5.681  11.044  0.9302 -2.1711  1.8254
16556TIP3   OH271158   5.244   2.805  10.240  0.1840  0.5399 -0.0350
16556TIP3    H171159   5.291   2.807  10.323  1.5502  0.3390 -0.7802
16556TIP3    H271160   5.152   2.811  10.264  0.6006  1.2441  1.4489
16557TIP3   OH271161   2.000   1.012  14.159  0.9399 -0.3260 -0.1136
16557TIP3    H171162   1.912   0.976  14.169  0.7963  0.2464  0.6530
16557TIP3    H271163   1.992   1.071  14.084  0.4986  0.2971  0.4283
16558TIP3   OH271164   3.679   3.053  13.938 -0.3667  0.1341  0.2935
16558TIP3    H171165   3.590   3.084  13.920 -0.4331  1.1919  2.3074
16558TIP3    H271166   3.687   3.058  14.033  2.0691  0.6712  0.0884
16559TIP3   OH271167   4.934   2.062  16.136 -0.4498  0.5471  0.0723
16559TIP3    H171168   5.001   2.127  16.156 -0.6017  0.6596  0.2163
16559TIP3    H271169   4.932   2.059  16.040 -0.4112  0.7205  0.0666
16560TIP3   OH271170   0.443   4.174   3.281  0.3936  0.4883 -0.4885
16560TIP3    H171171   0.404   4.189   3.367  0.3378 -0.6816 -0.3022
16560TIP3    H271172   0.535   4.155   3.300  0.2317 -0.4709 -0.6168
16561TIP3   OH271173   0.582   0.763  12.094  0.1242 -0.0289  1.1274
16561TIP3    H171174   0.628   0.840  12.127 -1.8317  1.6838 -0.0283
16561TIP3    H271175   0.499   0.797  12.061 -0.8060 -2.6551  0.6489
16562TIP3   OH271176   6.523   0.679   0.512 -0.4313  0.6112  0.1741
16562TIP3    H171177   6.576   0.658   0.589  1.2438  0.3272 -1.0358
16562TIP3    H271178   6.569   0.751   0.469 -0.8281  0.1354 -1.0863
16563TIP3   OH271179   0.311   2.298  13.434  0.0921 -0.2523  0.5545
16563TIP3    H171180   0.223   2.335  13.431  0.2839  0.2339  0.7337
16563TIP3    H271181   0.333   2.296  13.528  0.8912  1.1619  0.4230
16564TIP3   OH271182   1.609   0.224  14.046  0.1320  0.2248 -0.0985
16564TIP3    H171183   1.534   0.176  14.011  1.6011 -0.5734 -2.2156
16564TIP3    H271184   1.597   0.221  14.141 -0.6080 -3.0273 -0.2406
16565TIP3   OH271185   5.799   3.290  15.447  0.4622 -0.4258  0.7935
16565TIP3    H171186   5.856   3.224  15.409  0.6418  0.7322 -0.9983
16565TIP3    H271187   5.840   3.374  15.425 -1.0634  0.3730  0.8535
16566TIP3   OH271188   2.069   4.400   3.930  0.0262 -0.0190  0.0147
16566TIP3    H171189   2.024   4.325   3.968  0.1957 -0.4204 -0.5656
16566TIP3    H271190   2.072   4.381   3.836 -0.2330  0.8737 -0.1751
16567TIP3   OH271191   0.298   2.000  13.710 -0.0998  0.2906  0.3518
16567TIP3    H171192   0.337   2.061  13.647  1.6507 -0.2406  0.8996
16567TIP3    H271193   0.229   2.051  13.753 -1.0530  0.7927 -1.6584
16568TIP3   OH271194   2.200   5.241  12.110  0.5331  0.2627 -0.0455
16568TIP3    H171195   2.268   5.303  12.136  3.3516 -2.1563 -1.4175
16568TIP3    H271196   2.157   5.218  12.193  0.8702  2.3361  0.7462
16569TIP3   OH271197   0.895   4.451  13.938 -0.0287 -0.1920 -0.3309
16569TIP3    H171198   0.893   4.530  13.884 -2.0091  0.5784  0.8454
16569TIP3    H271199   0.816   4.403  13.914 -1.2822  0.4751  2.3102
16570TIP3   OH271200   3.466   0.576  15.815  0.4571 -0.4105  0.5073
16570TIP3    H171201   3.478   0.644  15.881 -1.7722 -0.3515  0.8755
16570TIP3    H271202   3.390   0.604  15.765  0.4139 -1.8905 -0.2798
16571TIP3   OH271203   3.283   3.350   4.497 -0.1085 -0.2555 -0.0737
16571TIP3    H171204   3.195   3.385   4.515 -0.3463  0.1467 -1.8631
16571TIP3    H271205   3.276   3.313   4.409  1.4778 -0.3774 -0.1594
16572TIP3   OH271206   2.996   5.761   0.546 -0.3582 -0.0676  0.2268
16572TIP3    H171207   2.962   5.799   0.466 -1.1875  0.1327  0.6705
16572TIP3    H271208   2.943   5.683   0.561 -0.5977  0.2222  0.9014
16573TIP3   OH271209   5.132   3.038   4.288 -0.1625  0.2332 -0.3530
16573TIP3    H171210   5.124   3.086   4.205 -0.2292  2.3665  0.8417
16573TIP3    H271211   5.114   3.104   4.355  2.1916 -0.8931  1.4463
16574TIP3   OH271212   2.378   4.572  16.365  0.4092 -0.2355 -0.1099
16574TIP3    H171213   2.375   4.608  16.453 -0.1018  1.6004 -0.8356
16574TIP3    H271214   2.444   4.624  16.320 -0.3230 -0.2016 -1.1845
16575TIP3   OH271215   3.789   0.666   1.913 -0.2190  0.0676  0.0647
16575TIP3    H171216   3.725   0.615   1.964 -0.4733  0.8562  0.5451
16575TIP3    H271217   3.865   0.672   1.970  0.1054 -0.4582 -0.3149
16576TIP3   OH271218   1.923   5.147   1.841 -0.4527  0.1727  0.0447
16576TIP3    H171219   1.847   5.150   1.783  0.2535  0.5621 -0.8627
16576TIP3    H271220   1.913   5.225   1.896 -0.3309  0.6179 -0.5578
16577TIP3   OH271221   2.104   0.994   2.931  0.3841  0.9233  0.0254
16577TIP3    H171222   2.121   0.902   2.946  0.1345  0.8437 -0.1705
16577TIP3    H271223   2.015   1.008   2.965  0.1577  0.9381 -0.5642
16578TIP3   OH271224   1.676   4.907   4.289  0.7642 -0.0921 -0.6915
16578TIP3    H171225   1.766   4.884   4.312  1.3208 -1.5540 -3.9731
16578TIP3    H271226   1.676   5.003   4.287  1.5859 -0.0127  1.6457
16579TIP3   OH271227   3.629   4.890   5.150 -0.4157  0.2401 -0.0261
16579TIP3    H171228   3.716   4.853   5.163 -0.1856  0.4630 -0.8909
16579TIP3    H271229   3.579   4.819   5.109 -1.0915 -0.4098  1.8831
16580TIP3   OH271230   6.128   6.759   2.755  0.5807  0.1773  0.9116
16580TIP3    H171231   6.213   6.801   2.741  1.0099 -0.4543  1.5781
16580TIP3    H271232   6.091   6.806   2.830  0.5871  0.0856  0.9720
16581TIP3   OH271233   4.320   3.859  16.158 -0.5484  0.5104 -0.6124
16581TIP3    H171234   4.379   3.789  16.131  0.3227  0.3391  1.6136
16581TIP3    H271235   4.235   3.835  16.122  0.0350 -0.9779 -1.0148
16582TIP3   OH271236   3.096   3.787  12.712  0.0426  0.3641  0.4350
16582TIP3    H171237   3.051   3.803  12.629 -0.2305  1.0223  0.7032
16582TIP3    H271238   3.117   3.694  12.711  1.5411  0.6996 -1.1345
16583TIP3   OH271239   6.301   2.405   4.981  0.5457  0.0783  0.0109
16583TIP3    H171240   6.226   2.349   5.001  0.0158  1.1020  0.9241
16583TIP3    H271241   6.312   2.397   4.886  0.5985 -1.7224  0.1499
16584TIP3   OH271242   6.032   2.402   1.687 -0.3964  0.5779 -0.0669
16584TIP3    H171243   6.092   2.399   1.613  2.1364  1.3872  1.8833
16584TIP3    H271244   6.050   2.322   1.736 -0.6473  0.9993  0.7236
16585TIP3   OH271245   1.065   3.657   2.203  0.3556 -0.2337  0.2240
16585TIP3    H171246   1.134   3.645   2.137  0.5187  0.5039  0.2598
16585TIP3    H271247   0.990   3.610   2.168  0.2626  0.6532 -0.7703
16586TIP3   OH271248   6.013   3.920   3.539  0.5115  0.6917 -0.0477
16586TIP3    H171249   6.058   3.939   3.457  1.4953  0.2968  0.3851
16586TIP3    H271250   5.945   3.987   3.547 -0.2523  0.1267 -1.6744
16587TIP3   OH271251   5.425   3.782   0.904  0.2116 -0.0889  0.6050
16587TIP3    H171252   5.441   3.726   0.827 -1.4367  0.4775 -0.1728
16587TIP3    H271253   5.333   3.766   0.925  0.0368  1.5124  1.0536
16588TIP3   OH271254   1.158   3.954   4.145 -0.3929  0.1031 -0.1308
16588TIP3    H171255   1.077   3.921   4.106 -0.9715  0.9275  0.3862
16588TIP3    H271256   1.131   4.027   4.201  0.7261  0.5116 -0.1123
16589TIP3   OH271257   0.883   0.083   2.957  0.8911  0.3339  0.1876
16589TIP3    H171258   0.953   0.122   2.904 -0.1564  3.2674  0.8703
16589TIP3    H271259   0.838   0.158   2.996 -0.9822 -1.6165  1.8850
16590TIP3   OH271260   0.876   5.925  16.125  0.9712  0.0993 -0.0303
16590TIP3    H171261   0.961   5.881  16.133  0.8575 -0.1386 -0.1170
16590TIP3    H271262   0.855   5.952  16.214  1.2651  0.3983 -0.0504
16591TIP3   OH271263   5.657   4.624  16.684  0.1266  0.2666 -0.2619
16591TIP3    H171264   5.737   4.590  16.726  0.4210 -0.4840 -1.4184
16591TIP3    H271265   5.680   4.713  16.658 -0.0003  0.6839  1.0003
16592TIP3   OH271266   5.855   0.083  17.072 -0.2492  0.1011 -0.2044
16592TIP3    H171267   5.776   0.136  17.066 -0.5861 -0.3019  0.5812
16592TIP3    H271268   5.824  -0.004  17.096  0.4205 -0.0863 -0.0050
16593TIP3   OH271269   0.750   1.501  17.161 -0.7963  0.4594 -0.1738
16593TIP3    H171270   0.762   1.503  17.066  1.8453 -0.3282  0.0921
16593TIP3    H271271   0.777   1.413  17.187  2.1461  1.8184  1.6780
16594TIP3   OH271272   2.822   5.740  12.961 -0.3212  0.1043 -0.5636
16594TIP3    H171273   2.803   5.658  13.007 -0.3017  0.0747 -0.6083
16594TIP3    H271274   2.743   5.759  12.911 -0.8152  0.8032  0.4781
16595TIP3   OH271275   1.320   1.481  15.421 -0.2295 -0.1681  0.4902
16595TIP3    H171276   1.289   1.535  15.349  0.2779  0.8037  0.9874
16595TIP3    H271277   1.361   1.543  15.482  1.1616 -1.2209  0.6480
16596TIP3   OH271278   4.037   5.728   1.762 -0.4200  0.4290  0.2455
16596TIP3    H171279   3.960   5.697   1.714 -1.0442  1.5755  0.4648
16596TIP3    H271280   4.051   5.817   1.729  1.1829  0.0243 -0.2114
16597TIP3   OH271281   4.131   4.858   4.921  0.0092  0.1469 -0.3720
16597TIP3    H171282   4.159   4.810   4.998 -1.1640  0.3430  0.1808
16597TIP3    H271283   4.044   4.890   4.942 -0.0219  0.8458 -1.4885
16598TIP3   OH271284   1.165   3.623  12.921 -0.1063 -0.0741 -0.0250
16598TIP3    H171285   1.080   3.600  12.957 -2.1378  3.3997 -2.2678
16598TIP3    H271286   1.182   3.558  12.854 -1.1901 -0.5568  0.1736
16599TIP3   OH271287   1.080   4.941   4.268  0.0392 -0.1123  0.3242
16599TIP3    H171288   1.020   4.928   4.194 -0.5279 -1.8490  1.0543
16599TIP3    H271289   1.167   4.942   4.228 -0.3472  0.3753 -0.5189
16600TIP3   OH271290   4.551   1.573   1.429  0.2596  0.2278 -0.4643
16600TIP3    H171291   4.617   1.614   1.373 -0.0768  1.9645  0.3873
16600TIP3    H271292   4.580   1.591   1.518 -0.5792 -0.2807 -0.0798
16601TIP3   OH271293   4.604   6.632   3.272  0.4080 -0.6334  0.5124
16601TIP3    H171294   4.520   6.678   3.277 -0.1121 -1.4714 -0.1935
16601TIP3    H271295   4.645   6.666   3.193  1.2779  0.6516  1.5081
16602TIP3   OH271296   6.781   2.611  12.879 -0.0509  0.0565  0.1358
16602TIP3    H171297   6.841   2.555  12.829 -0.6672 -0.1902 -0.3375
16602TIP3    H271298   6.807   2.700  12.857 -0.6987 -0.0395 -1.1224
16603TIP3   OH271299   0.079   0.501   5.333  0.0084  0.0986 -0.0036
16603TIP3    H171300   0.070   0.444   5.410  0.2161 -0.8075 -0.6308
16603TIP3    H271301  -0.008   0.537   5.320 -0.0297  0.2510  0.6575
16604TIP3   OH271302   1.101   6.159  15.073 -0.6742 -0.0059 -0.0114
16604TIP3    H171303   1.098   6.101  15.149  0.6703 -0.1648 -0.0723
16604TIP3    H271304   1.136   6.241  15.107  0.4272 -0.2415 -0.5482
16605TIP3   OH271305   1.144   4.806   1.964  0.0266  0.4597  0.3051
16605TIP3    H171306   1.116   4.726   2.008  0.3694 -0.7768 -1.6534
16605TIP3    H271307   1.063   4.850   1.939 -0.1667  0.3908  0.8203
16606TIP3   OH271308   0.685   5.767   1.141 -0.0826 -0.5208  0.0673
16606TIP3    H171309   0.648   5.799   1.058 -1.4241  0.7138  1.1295
16606TIP3    H271310   0.764   5.719   1.114 -1.4031 -1.5695 -2.0598
16607TIP3   OH271311   1.037   6.088   1.294  0.0592 -0.1161 -0.0374
16607TIP3    H171312   1.028   6.175   1.333  1.1601 -0.9085  2.0125
16607TIP3    H271313   1.129   6.083   1.266 -0.1599 -0.3964 -0.7379
16608TIP3   OH271314   1.682   4.868   0.312  0.3276  0.0860  0.0379
16608TIP3    H171315   1.777   4.870   0.322  0.3922 -0.8513 -0.3814
16608TIP3    H271316   1.667   4.835   0.223 -0.3969  0.0691  0.1570
16609TIP3   OH271317   6.569   1.622  11.061 -0.1471  0.1704  0.9500
16609TIP3    H171318   6.558   1.556  10.993 -0.6411  2.5260 -1.3609
16609TIP3    H271319   6.605   1.575  11.136 -1.7142 -2.9246 -0.1710
16610TIP3   OH271320   0.957   6.354  12.216  0.0344  0.0003 -0.2276
16610TIP3    H171321   0.885   6.335  12.278  0.2553  0.4248  0.1594
16610TIP3    H271322   0.997   6.268  12.201 -0.6254 -0.2603 -0.5351
16611TIP3   OH271323   5.750   2.014  13.080 -0.3366  0.1196 -0.3211
16611TIP3    H171324   5.729   1.997  12.988 -1.4238  0.5072 -0.1418
16611TIP3    H271325   5.698   1.951  13.129 -1.0467  1.0481  0.1231
16612TIP3   OH271326   0.104   0.975   5.526  0.8499  0.1324  0.1477
16612TIP3    H171327   0.046   0.980   5.602  0.6972  3.8206 -0.1360
16612TIP3    H271328   0.108   0.881   5.506 -3.3359 -0.4352  1.3990
16613TIP3   OH271329   4.147   0.033   2.985 -0.0908  1.0158  0.1037
16613TIP3    H171330   4.241   0.017   2.990 -0.7234 -2.1782  2.9930
16613TIP3    H271331   4.120  -0.007   2.903  0.9623  1.5986 -0.5420
16614TIP3   OH271332   6.713   3.847  10.520 -0.0375  0.4603 -0.2415
16614TIP3    H171333   6.661   3.767  10.530 -0.6933  1.0698  1.4561
16614TIP3    H271334   6.791   3.819  10.473 -0.2188 -1.2133  0.4055
16615TIP3   OH271335   3.769   4.605   3.654  0.8605  0.0611  0.0062
16615TIP3    H171336   3.844   4.557   3.619  0.3422  0.0505 -1.0989
16615TIP3    H271337   3.737   4.551   3.727  1.1264 -0.5739 -0.3471
16616TIP3   OH271338   3.130   3.063   1.834 -0.3503  0.0610  0.0938
16616TIP3    H171339   3.153   2.990   1.777  1.2591  0.9697 -0.4389
16616TIP3    H271340   3.075   3.119   1.780  0.0285  0.2202 -0.1304
16617TIP3   OH271341   3.226   2.970  12.890  0.1975  0.6509 -0.2043
16617TIP3    H171342   3.270   2.903  12.942  0.4202  1.9581  1.2850
16617TIP3    H271343   3.258   3.053  12.923 -2.2409  1.6016 -0.1019
16618TIP3   OH271344   6.197   3.060  14.892 -0.4184  1.0236 -0.1497
16618TIP3    H171345   6.275   3.074  14.946 -0.0693  0.6542 -0.5463
16618TIP3    H271346   6.155   2.983  14.930  0.5023 -0.0005 -1.1406
16619TIP3   OH271347   0.061   5.967   1.439 -0.0376 -0.2125  0.4061
16619TIP3    H171348  -0.033   5.963   1.457 -0.0519 -0.1639  0.3419
16619TIP3    H271349   0.068   5.958   1.343  0.0701 -1.0595  0.4866
16620TIP3   OH271350   2.833   3.220   6.213 -0.0310  0.1726  0.3306
16620TIP3    H171351   2.864   3.293   6.160  1.2743 -0.2489  0.4942
16620TIP3    H271352   2.913   3.175   6.241 -0.8123 -1.4248  0.0741
16621TIP3   OH271353   0.055   0.478  12.947  0.0294  0.2308 -0.4174
16621TIP3    H171354   0.036   0.460  12.856  0.2847 -2.2271 -0.0198
16621TIP3    H271355  -0.022   0.446  12.995  0.3687  0.4973  0.3176
16622TIP3   OH271356   5.107   2.951   1.081 -0.7823  0.4615 -0.2304
16622TIP3    H171357   5.049   2.989   1.147 -0.8221 -0.2367  0.1365
16622TIP3    H271358   5.176   2.908   1.131 -1.9456 -1.8651 -0.5982
16623TIP3   OH271359   1.199   4.073   0.825  0.2891  0.7669  0.0537
16623TIP3    H171360   1.189   3.978   0.839 -1.9740  0.9904  0.1978
16623TIP3    H271361   1.241   4.081   0.740  0.1344 -0.3634 -0.1357
16624TIP3   OH271362   6.791   0.655   3.209 -0.5754 -0.1416  0.1438
16624TIP3    H171363   6.844   0.623   3.281 -1.8707 -1.9747  0.3311
16624TIP3    H271364   6.826   0.741   3.189  0.3835  0.0060  2.3587
16625TIP3   OH271365   4.544   6.466   2.620  0.8898  0.5771  0.5217
16625TIP3    H171366   4.600   6.415   2.680 -1.3865 -1.6847  0.8255
16625TIP3    H271367   4.529   6.549   2.666  0.6587 -0.4165  2.3047
16626TIP3   OH271368   1.888   5.056  14.394  0.4005  0.4677  0.0993
16626TIP3    H171369   1.953   5.046  14.464  1.2010  1.4123 -0.4899
16626TIP3    H271370   1.837   5.133  14.419 -0.1089  0.0826  0.2566
16627TIP3   OH271371   1.330   1.030   4.757  0.9856 -0.0816  0.0974
16627TIP3    H171372   1.327   1.034   4.853 -0.1110 -0.5763  0.0898
16627TIP3    H271373   1.326   0.936   4.737  2.9200 -0.0718 -0.3864
16628TIP3   OH271374   0.993   5.489   1.118 -0.3252 -0.3498  0.0524
16628TIP3    H171375   1.082   5.458   1.107 -0.4059 -1.3562  1.9231
16628TIP3    H271376   0.998   5.551   1.191 -1.1306 -0.4029  0.1639
16629TIP3   OH271377   3.949   4.909  12.429  0.3887  0.2661 -0.2028
16629TIP3    H171378   4.018   4.908  12.362  1.2012  0.3571  0.6194
16629TIP3    H271379   3.986   4.858  12.501 -1.8317 -2.7803 -1.1127
16630TIP3   OH271380   1.960   2.468   1.634  0.5687 -0.0792 -0.4412
16630TIP3    H171381   1.884   2.427   1.675  0.3530  0.0102 -0.7495
16630TIP3    H271382   1.978   2.413   1.557  0.3443  0.3479 -0.7969
16631TIP3   OH271383   0.638   4.920   0.584 -0.3368  0.2689  0.2867
16631TIP3    H171384   0.730   4.944   0.580 -0.2346  0.2085  1.9282
16631TIP3    H271385   0.626   4.858   0.512  1.5311 -1.8451  1.7382
16632TIP3   OH271386   4.497   5.865  10.944 -0.2346 -0.1669  0.2222
16632TIP3    H171387   4.546   5.932  10.895  0.0539 -0.5757 -0.0473
16632TIP3    H271388   4.409   5.868  10.906 -0.1109 -0.2254 -0.0706
16633TIP3   OH271389   2.324   4.941  13.516  0.8034 -0.3859 -0.0192
16633TIP3    H171390   2.257   4.888  13.473 -1.9631  3.2425 -0.4555
16633TIP3    H271391   2.294   4.950  13.606  0.9263  0.8394 -0.0887
16634TIP3   OH271392   1.627   4.129   0.469  0.2522 -0.1641  0.0467
16634TIP3    H171393   1.587   4.206   0.429 -1.0559 -0.4963  0.6894
16634TIP3    H271394   1.680   4.164   0.541  1.9421  0.3592 -1.3929
16635TIP3   OH271395   4.165   4.555  14.364  0.4327 -0.0263 -0.3756
16635TIP3    H171396   4.078   4.590  14.385  0.1035  0.2080 -2.0016
16635TIP3    H271397   4.215   4.630  14.334  0.3626 -0.5663 -1.9231
16636TIP3   OH271398   3.388   5.395   2.139  0.3500 -0.0221  0.2981
16636TIP3    H171399   3.476   5.424   2.113  0.5215 -0.7424  0.0518
16636TIP3    H271400   3.401   5.353   2.224  0.2717 -0.2414  0.2033
16637TIP3   OH271401   4.333   5.985  13.918  0.1815  0.2091  0.0675
16637TIP3    H171402   4.393   5.945  13.981  1.4677  1.3812 -0.3916
16637TIP3    H271403   4.295   5.911  13.871  0.0807 -0.6174  1.4284
16638TIP3   OH271404   1.652   5.506  12.784 -0.2677  0.4774  1.2612
16638TIP3    H171405   1.593   5.582  12.780  2.1275  2.3918  1.2765
16638TIP3    H271406   1.736   5.542  12.813  1.6036 -1.7808 -1.1215
16639TIP3   OH271407   5.034   1.788  13.756  0.2564  0.1200  0.4423
16639TIP3    H171408   4.997   1.786  13.844  1.9161 -2.0298  1.1421
16639TIP3    H271409   4.970   1.743  13.702  0.2312 -0.4819  0.9668
16640TIP3   OH271410   3.319   4.608   2.650 -0.2100  0.0643 -0.2026
16640TIP3    H171411   3.305   4.517   2.624  1.1742 -0.6177  1.2876
16640TIP3    H271412   3.306   4.659   2.571 -1.3325 -1.4115 -0.9820
16641TIP3   OH271413   5.970   0.478  12.900 -0.2370  0.1401 -0.3191
16641TIP3    H171414   6.023   0.453  12.976  1.2487  1.7951 -0.7911
16641TIP3    H271415   5.934   0.395  12.867  0.9348 -0.8363  0.8272
16642TIP3   OH271416   6.029   0.056  16.484  0.3894  0.1218  0.1012
16642TIP3    H171417   5.975   0.052  16.564 -0.9118 -0.5021 -0.7908
16642TIP3    H271418   6.031   0.149  16.462 -0.5460  0.1300  0.0082
16643TIP3   OH271419   1.095   4.507   0.585  0.1926 -0.4557  0.4633
16643TIP3    H171420   1.129   4.433   0.536 -2.3473 -1.4279  0.0927
16643TIP3    H271421   1.149   4.511   0.664  1.7547 -1.3219 -0.5514
16644TIP3   OH271422   2.557   2.218  14.271  0.2025 -0.0878  0.3677
16644TIP3    H171423   2.512   2.298  14.297  1.4883  0.8941 -0.3931
16644TIP3    H271424   2.585   2.178  14.354 -0.6746  0.0877  0.7586
16645TIP3   OH271425   6.534   2.126   0.342 -0.1560  0.2594  0.5029
16645TIP3    H171426   6.445   2.110   0.311 -0.0048  1.2111 -0.4284
16645TIP3    H271427   6.539   2.079   0.426 -1.7571  0.8349  0.9283
16646TIP3   OH271428   3.505   2.716  11.843  0.5204 -0.2046 -0.7315
16646TIP3    H171429   3.431   2.667  11.807  0.5780  0.4098 -1.7203
16646TIP3    H271430   3.579   2.656  11.837  0.5380 -0.0948 -1.6943
16647TIP3   OH271431   5.432   4.628   1.904 -0.2081 -0.1622  0.4109
16647TIP3    H171432   5.363   4.564   1.887 -0.7934  0.4009  0.6460
16647TIP3    H271433   5.386   4.711   1.916  0.5473  0.3127  0.0813
16648TIP3   OH271434   5.830   3.637   3.296 -0.5076 -0.4038 -0.6121
16648TIP3    H171435   5.757   3.661   3.239  1.3485  0.2637 -2.7429
16648TIP3    H271436   5.908   3.661   3.247  1.1896 -2.0054  1.2248
16649TIP3   OH271437   3.823   6.529  14.161 -0.3195 -0.0397 -0.6500
16649TIP3    H171438   3.772   6.496  14.087  0.0226 -2.3449  0.1271
16649TIP3    H271439   3.759   6.576  14.215 -0.9152  0.0883 -1.4498
16650TIP3   OH271440   0.275   0.399  11.336 -0.3653 -0.4981 -0.3645
16650TIP3    H171441   0.362   0.437  11.350  0.1801 -1.1460 -1.8646
16650TIP3    H271442   0.234   0.455  11.270 -0.1762 -1.5378 -1.3861
16651TIP3   OH271443   1.754   2.232   2.655  0.0234  0.2901 -0.3202
16651TIP3    H171444   1.755   2.279   2.739  2.1545 -0.3436  0.0156
16651TIP3    H271445   1.780   2.298   2.591 -0.2117  0.4075 -0.2966
16652TIP3   OH271446   3.768   3.216   5.182 -0.3047 -0.2148 -0.2825
16652TIP3    H171447   3.762   3.221   5.086  2.2735 -0.7548 -0.5026
16652TIP3    H271448   3.770   3.122   5.201  3.3048 -0.1685 -0.0617
16653TIP3   OH271449   5.910   4.467   1.454  0.5663  0.2568  0.7004
16653TIP3    H171450   5.899   4.560   1.471  0.9512  0.3458  0.4658
16653TIP3    H271451   5.940   4.430   1.537  0.5569  0.3646  0.7511
16654TIP3   OH271452   5.862   0.500   2.682  0.2571  0.2524 -0.6429
16654TIP3    H171453   5.926   0.457   2.738  1.5777 -1.2396 -3.2307
16654TIP3    H271454   5.800   0.540   2.743  1.7326 -1.1745  1.8653
16655TIP3   OH271455   1.789   1.466   3.107  0.0333  0.3918 -0.4486
16655TIP3    H171456   1.720   1.420   3.154  2.2712 -2.5373  0.1058
16655TIP3    H271457   1.767   1.454   3.014 -0.6531  0.2091 -0.2600
16656TIP3   OH271458   1.747   3.604   2.009  0.4129 -0.6890  0.4436
16656TIP3    H171459   1.800   3.584   1.932  0.5197  0.4612  0.2134
16656TIP3    H271460   1.691   3.677   1.982 -1.7525 -2.2990  0.4802
16657TIP3   OH271461   3.661   4.280  11.061  0.6067 -0.2464  0.5183
16657TIP3    H171462   3.673   4.244  10.972  2.2854 -0.0289  0.6519
16657TIP3    H271463   3.689   4.371  11.054 -0.7100  0.1994  0.9271
16658TIP3   OH271464   4.428   0.420  11.934  0.5621 -0.3065 -0.2808
16658TIP3    H171465   4.415   0.514  11.929 -1.4908 -0.4510  1.3754
16658TIP3    H271466   4.360   0.383  11.877  1.0185 -0.8033 -0.5119
16659TIP3   OH271467   6.129   4.875   5.676  0.5589 -0.2786 -0.5627
16659TIP3    H171468   6.065   4.833   5.733 -0.3284  0.0478 -1.3024
16659TIP3    H271469   6.171   4.803   5.629 -0.1151 -0.4127 -0.9563
16660TIP3   OH271470   4.079   6.034   0.961 -0.3922 -0.6363 -0.6747
16660TIP3    H171471   4.125   6.001   0.884  0.4076  0.6851 -0.7852
16660TIP3    H271472   4.113   6.123   0.973 -2.6658  0.2537 -0.5515
16661TIP3   OH271473   2.113   3.334  16.459  0.5103  0.5258  0.3727
16661TIP3    H171474   2.202   3.329  16.424  0.1579  0.9854 -0.5844
16661TIP3    H271475   2.117   3.283  16.540  1.4266 -0.1890 -0.1145
16662TIP3   OH271476   6.060   3.932  11.591  0.4119 -0.5404 -0.2777
16662TIP3    H171477   6.075   3.841  11.612  0.3942 -0.4936 -0.0680
16662TIP3    H271478   6.044   3.975  11.675 -2.7064 -0.9124 -0.6149
16663TIP3   OH271479   0.616   1.796  13.687 -0.6433  0.2500 -0.2139
16663TIP3    H171480   0.631   1.718  13.633 -1.2591 -1.2094  1.6631
16663TIP3    H271481   0.537   1.776  13.736 -0.2278  1.6505  1.0616
16664TIP3   OH271482   6.573   3.323  15.038 -0.3048 -0.3695 -0.2777
16664TIP3    H171483   6.590   3.330  15.132  0.5718 -2.4788 -0.2552
16664TIP3    H271484   6.660   3.329  14.998 -0.6704  0.4676 -0.9588
16665TIP3   OH271485   2.385   4.835   0.210 -0.6251  0.0045 -0.5125
16665TIP3    H171486   2.397   4.922   0.248 -2.5105 -0.5459  1.3887
16665TIP3    H271487   2.474   4.800   0.203 -0.1489  0.3638  2.8235
16666TIP3   OH271488   2.000   3.242   3.739 -0.7658 -0.0101 -0.2366
16666TIP3    H171489   1.952   3.188   3.802 -0.7404  1.0506  0.6862
16666TIP3    H271490   2.074   3.277   3.788 -1.3685  1.7179 -0.5501
16667TIP3   OH271491   5.140   1.000   1.731  0.3782 -0.3255  0.2031
16667TIP3    H171492   5.211   0.987   1.668 -0.0303 -0.8170 -0.1669
16667TIP3    H271493   5.179   0.983   1.816  0.7317 -0.4855  0.0081
16668TIP3   OH271494   3.792   1.340   0.700 -0.1122  0.1726  0.0470
16668TIP3    H171495   3.785   1.245   0.705 -0.6387  0.2782  1.6994
16668TIP3    H271496   3.704   1.370   0.678 -0.0255  0.2907 -0.1388
16669TIP3   OH271497   4.021   0.577  16.329 -0.4927 -0.0885 -0.2824
16669TIP3    H171498   3.976   0.506  16.283 -2.6382  0.1672  1.3371
16669TIP3    H271499   3.970   0.656  16.307  0.2861  0.5156  0.0576
16670TIP3   OH271500   3.706   0.094   0.933 -0.1141  0.7213 -0.1378
16670TIP3    H171501   3.690   0.162   0.867 -0.7213  0.7320  0.0169
16670TIP3    H271502   3.789   0.054   0.907 -1.1137 -0.3305 -1.8242
16671TIP3   OH271503   6.736   0.355  11.195 -0.2127 -0.1562 -0.4387
16671TIP3    H171504   6.642   0.361  11.179 -0.4793 -1.1527  0.7338
16671TIP3    H271505   6.751   0.412  11.271  0.3942  1.2212 -1.5505
16672TIP3   OH271506   1.807   6.595   5.854  0.4914 -0.3053 -0.7300
16672TIP3    H171507   1.818   6.500   5.845 -1.9152 -0.6298 -0.4881
16672TIP3    H271508   1.831   6.612   5.945 -1.8624 -1.1448  0.0796
16673TIP3   OH271509   4.557   6.571   4.984 -0.4230  0.2835  0.4141
16673TIP3    H171510   4.634   6.535   4.939 -0.8836 -0.3830  0.1540
16673TIP3    H271511   4.542   6.512   5.057 -0.3338  0.7561  0.8193
16674TIP3   OH271512   6.140   5.891  16.912  0.2120 -0.1740  0.4140
16674TIP3    H171513   6.227   5.930  16.921  0.0897  0.9731 -2.9003
16674TIP3    H271514   6.155   5.809  16.866 -0.5635  0.6663 -1.3828
16675TIP3   OH271515   6.752   1.221  13.960 -0.1625 -0.4145  0.4918
16675TIP3    H171516   6.697   1.229  13.883 -0.0545 -0.2594  0.4311
16675TIP3    H271517   6.719   1.144  14.005  0.5478 -1.2170 -0.3399
16676TIP3   OH271518   5.558   1.050   1.874  0.3733 -0.2398 -0.4272
16676TIP3    H171519   5.641   1.092   1.900 -0.0957  1.0367 -0.9640
16676TIP3    H271520   5.503   1.057   1.952 -0.1887  1.4216 -0.9498
16677TIP3   OH271521   6.537   5.626  14.707  0.2081 -0.0154 -0.6699
16677TIP3    H171522   6.583   5.664  14.632  1.2106 -0.9787 -0.5468
16677TIP3    H271523   6.470   5.570  14.669 -0.2124  0.5938 -0.8421
16678TIP3   OH271524   5.112   0.589   6.361 -0.3080 -0.0689  0.1553
16678TIP3    H171525   5.097   0.589   6.456 -0.4269  0.7137  0.1382
16678TIP3    H271526   5.059   0.516   6.329 -0.9106  0.1668  0.6011
16679TIP3   OH271527   5.574   5.668  15.149  0.2388 -0.4817  0.1862
16679TIP3    H171528   5.490   5.623  15.142 -1.0078  1.6078  1.2324
16679TIP3    H271529   5.608   5.669  15.059 -1.0672 -0.9258 -0.3277
16680TIP3   OH271530   2.135   1.203   5.881 -0.3566 -0.3416 -0.6639
16680TIP3    H171531   2.094   1.270   5.826 -0.4751  0.1646  0.0244
16680TIP3    H271532   2.199   1.252   5.933  0.5128 -0.9893 -1.1156
16681TIP3   OH271533   2.413   0.012   4.949  0.1855 -0.0456  0.4613
16681TIP3    H171534   2.467   0.090   4.936 -0.5824  0.1605 -1.7873
16681TIP3    H271535   2.323   0.045   4.941 -0.2728 -0.5244  3.3120
16682TIP3   OH271536   6.100   2.348   3.619  0.2381 -0.3599 -0.6086
16682TIP3    H171537   6.111   2.293   3.541  1.2203  1.4190 -1.7609
16682TIP3    H271538   6.184   2.340   3.666 -0.1556 -1.0000 -0.0016
16683TIP3   OH271539   5.417   6.115  13.488 -0.0201  0.1959 -0.0612
16683TIP3    H171540   5.485   6.182  13.482  1.4083 -1.2991 -0.9941
16683TIP3    H271541   5.438   6.053  13.419 -1.9943 -0.6194  0.0361
16684TIP3   OH271542   5.276   5.943   3.725  0.2106 -0.0412  0.3532
16684TIP3    H171543   5.203   5.964   3.667  0.1532  1.3781  0.9149
16684TIP3    H271544   5.256   5.989   3.806  2.5192  1.6924 -0.0097
16685TIP3   OH271545   3.742   5.827   1.270  0.0581 -0.4141 -0.4125
16685TIP3    H171546   3.779   5.739   1.275  2.4962  0.5850 -0.1679
16685TIP3    H271547   3.811   5.880   1.232 -0.4895  1.8648  1.6249
16686TIP3   OH271548   5.739   5.733   6.063  0.2742 -0.4389  0.1465
16686TIP3    H171549   5.757   5.825   6.042  1.1826 -0.7200 -0.3721
16686TIP3    H271550   5.807   5.710   6.126 -0.3171 -0.5826  0.7273
16687TIP3   OH271551   6.370   1.618   0.938  0.3168  0.3263 -0.0559
16687TIP3    H171552   6.324   1.538   0.964  0.2153  0.1302 -0.8494
16687TIP3    H271553   6.448   1.619   0.993  0.8750 -0.8918 -0.8144
16688TIP3   OH271554   5.323   6.039  16.849  0.8849  0.0740 -0.1342
16688TIP3    H171555   5.319   5.952  16.890  2.5104  0.0717  0.0667
16688TIP3    H271556   5.416   6.055  16.836  0.6126  1.8677 -0.0239
16689TIP3   OH271557   3.844   5.668   4.481 -0.7739 -0.1014 -0.4105
16689TIP3    H171558   3.852   5.616   4.561 -0.8485  1.4721  0.6441
16689TIP3    H271559   3.915   5.732   4.486 -2.3074  1.6445 -0.3328
16690TIP3   OH271560   0.520   5.592  13.935 -0.3384  0.2103  0.5887
16690TIP3    H171561   0.443   5.539  13.955  1.2169 -1.6969  1.7336
16690TIP3    H271562   0.531   5.648  14.012 -0.0235 -0.2069  0.8490
16691TIP3   OH271563   2.149   2.718   0.580 -0.2676 -0.5388  0.4753
16691TIP3    H171564   2.121   2.733   0.489 -0.8909 -2.4853  0.3451
16691TIP3    H271565   2.233   2.673   0.571 -0.7065 -1.4246  0.8765
16692TIP3   OH271566   4.657   1.192  12.965  0.4054  0.3832  0.0130
16692TIP3    H171567   4.595   1.252  13.007  0.6276  0.2967  0.4645
16692TIP3    H271568   4.650   1.213  12.871 -0.8108 -0.0952 -0.0143
16693TIP3   OH271569   3.258   4.597   0.860 -0.3234 -0.1457 -0.3967
16693TIP3    H171570   3.214   4.644   0.789  0.9827  0.3927 -0.8636
16693TIP3    H271571   3.348   4.630   0.859 -0.1441 -0.5587  1.1435
16694TIP3   OH271572   5.310   5.683  16.145 -0.3549 -0.5632  0.2022
16694TIP3    H171573   5.272   5.705  16.061 -1.1031  0.8740  0.9003
16694TIP3    H271574   5.236   5.680  16.206  0.2084 -1.2876  0.8673
16695TIP3   OH271575   2.851   3.034  14.239  0.2192 -0.2476 -0.2463
16695TIP3    H171576   2.875   3.025  14.331  0.8241 -0.8749 -0.4604
16695TIP3    H271577   2.844   2.944  14.207 -1.5465 -0.0738 -0.4285
16696TIP3   OH271578   6.369   0.296  12.336 -0.2358 -0.4209  0.5888
16696TIP3    H171579   6.305   0.302  12.407  0.6010  0.7426  1.2684
16696TIP3    H271580   6.424   0.374  12.347  0.8704 -1.0480 -0.3832
16697TIP3   OH271581   2.743   1.676   3.373  0.1900  0.3620 -0.5055
16697TIP3    H171582   2.794   1.717   3.443  1.8037 -1.1895 -0.7510
16697TIP3    H271583   2.658   1.658   3.413  1.3916 -1.3409  1.3783
16698TIP3   OH271584   2.100   4.193   5.913  0.2509  0.6062  0.4052
16698TIP3    H171585   2.195   4.202   5.907  0.3235  1.7059  2.5627
16698TIP3    H271586   2.086   4.131   5.985 -0.6619  0.4885  0.1359
16699TIP3   OH271587   5.163   5.890   0.120 -0.1580  0.3053  0.1372
16699TIP3    H171588   5.080   5.937   0.113  1.1333  2.7790  1.0623
16699TIP3    H271589   5.209   5.911   0.039 -1.0745 -2.5166 -1.2191
16700TIP3   OH271590   1.316   2.274   5.156  0.2379  0.1445  0.1454
16700TIP3    H171591   1.411   2.287   5.160  0.2833 -0.2969  0.5551
16700TIP3    H271592   1.286   2.285   5.246 -0.0005 -0.4441  0.1435
16701TIP3   OH271593   4.330   4.238   3.451  0.4678  0.0707  0.0501
16701TIP3    H171594   4.258   4.290   3.487  0.4070  1.2131 -1.6940
16701TIP3    H271595   4.329   4.158   3.504 -0.0792  1.3734  2.1064
16702TIP3   OH271596   3.813   2.240   5.172  0.2131  0.4755 -0.4169
16702TIP3    H171597   3.787   2.172   5.234 -1.6814  0.6862 -0.9412
16702TIP3    H271598   3.834   2.316   5.227  1.1992 -0.1683  0.1008
16703TIP3   OH271599   5.138   4.883  15.825 -0.2236  0.1616 -0.4425
16703TIP3    H171600   5.076   4.938  15.776 -0.9568 -0.2304  0.0335
16703TIP3    H271601   5.214   4.876  15.768  0.7238  3.3441  0.3097
16704TIP3   OH271602   3.555   4.587   0.666  0.4362 -0.2128 -0.4750
16704TIP3    H171603   3.518   4.500   0.648 -0.3475  0.1900 -0.8551
16704TIP3    H271604   3.540   4.601   0.759  1.7715 -1.0404 -0.1224
16705TIP3   OH271605   2.352   2.717   2.041 -0.6033 -1.0809  0.4011
16705TIP3    H171606   2.303   2.687   2.117  0.0860 -1.1120  0.8345
16705TIP3    H271607   2.435   2.669   2.045 -0.2662 -0.5299  0.0431
16706TIP3   OH271608   4.307   2.461   2.665 -0.0634  0.3782  0.1609
16706TIP3    H171609   4.330   2.368   2.662 -0.4562  0.2778  0.2697
16706TIP3    H271610   4.330   2.494   2.578  0.9750  0.3922  0.4334
16707TIP3   OH271611   1.250   4.557  12.422  0.3995  0.7332 -0.3874
16707TIP3    H171612   1.323   4.495  12.426 -0.2496  0.0320  0.8133
16707TIP3    H271613   1.172   4.501  12.420 -0.1796  1.4970  0.4718
16708TIP3   OH271614   0.964   1.766   5.162  0.4785  0.1223 -0.3056
16708TIP3    H171615   1.008   1.730   5.086 -1.1120 -0.4275 -0.9864
16708TIP3    H271616   0.995   1.857   5.167  1.3017 -0.1157 -1.0471
16709TIP3   OH271617   3.080   5.268   1.691 -0.0372  0.3021  0.2153
16709TIP3    H171618   3.147   5.301   1.751  0.3529  0.7553 -0.4697
16709TIP3    H271619   3.003   5.256   1.746 -0.0888  2.0354  0.5359
16710TIP3   OH271620   4.676   2.277   5.650 -0.0508 -0.4589 -0.6373
16710TIP3    H171621   4.599   2.238   5.691  0.4418 -0.4356  0.3288
16710TIP3    H271622   4.641   2.339   5.587 -0.8258 -0.2527 -0.0065
16711TIP3   OH271623   4.193   0.661  12.754  0.2747  0.3463 -0.0145
16711TIP3    H171624   4.168   0.595  12.818 -0.6046  0.6567 -0.0213
16711TIP3    H271625   4.234   0.731  12.805  0.4474  0.1646  0.0941
16712TIP3   OH271626   4.740   3.873  15.216 -0.3436  0.0727 -0.5149
16712TIP3    H171627   4.691   3.792  15.204 -0.4995  0.1513 -0.4173
16712TIP3    H271628   4.800   3.855  15.288 -1.9583  0.7520  1.0520
16713TIP3   OH271629   6.646   3.008  14.127  0.0889 -0.0750 -0.2008
16713TIP3    H171630   6.584   2.947  14.166  0.4277 -1.3235 -1.5556
16713TIP3    H271631   6.722   2.954  14.105  0.1666  0.7064 -1.9352
16714TIP3   OH271632   2.954   6.425  13.207 -0.1580 -0.4619  0.0260
16714TIP3    H171633   2.898   6.434  13.284 -0.0096 -1.3963  0.2466
16714TIP3    H271634   2.896   6.391  13.139 -0.6328  1.6834 -0.7074
16715TIP3   OH271635   1.957   4.709  10.730 -0.0536 -0.0810  0.2936
16715TIP3    H171636   1.988   4.745  10.647 -0.6615 -0.5333 -0.1378
16715TIP3    H271637   2.019   4.640  10.751 -1.0089 -1.2867 -0.7936
16716TIP3   OH271638   0.401   6.383  12.752 -0.1091  0.3541  0.1291
16716TIP3    H171639   0.493   6.410  12.756 -0.1793  0.7175 -0.6030
16716TIP3    H271640   0.371   6.414  12.667 -1.0122  0.5497  0.5157
16717TIP3   OH271641   5.951   6.462  16.315 -0.2239  0.7983 -0.2769
16717TIP3    H171642   5.875   6.447  16.259  0.1377  0.2433 -0.6276
16717TIP3    H271643   6.023   6.478  16.254 -0.2168  2.0930  0.0741
16718TIP3   OH271644   1.506   4.764   1.154 -0.7881 -0.4692 -0.0518
16718TIP3    H171645   1.424   4.737   1.195 -0.9629 -1.3522 -0.9627
16718TIP3    H271646   1.492   4.748   1.060  0.0359  0.3835 -0.3275
16719TIP3   OH271647   6.363   1.655  11.927 -0.1821 -0.0166  0.3504
16719TIP3    H171648   6.411   1.620  12.003  0.6792  0.4468  0.0273
16719TIP3    H271649   6.293   1.708  11.965 -0.5407 -0.8073  0.8275
16720TIP3   OH271650   5.395   3.275   2.536  0.1322 -0.4828  0.3261
16720TIP3    H171651   5.404   3.365   2.568 -1.0710  0.2530 -1.3684
16720TIP3    H271652   5.481   3.254   2.500 -0.0160  0.5145 -0.6144
16721TIP3   OH271653   3.983   0.909  11.777 -0.0293 -0.4063 -0.4665
16721TIP3    H171654   3.977   0.831  11.832  0.9535  0.0952  0.3763
16721TIP3    H271655   4.063   0.953  11.806 -1.9157  2.2967  0.9574
16722TIP3   OH271656   4.947   0.862  12.674  0.9153  0.1637  0.0300
16722TIP3    H171657   5.025   0.827  12.717  0.3412 -1.3810 -0.1302
16722TIP3    H271658   4.960   0.843  12.581  0.7015  0.6036 -0.0939
16723TIP3   OH271659   0.543   3.699   0.202  0.4100 -0.4719 -0.0403
16723TIP3    H171660   0.467   3.648   0.174 -0.8360  1.5001 -0.3102
16723TIP3    H271661   0.610   3.633   0.222 -1.5208 -2.2396  0.6900
16724TIP3   OH271662   1.091   4.170  16.927  0.3833  0.2181 -0.3516
16724TIP3    H171663   1.078   4.085  16.886 -0.7398  0.0140  0.4048
16724TIP3    H271664   1.171   4.161  16.978  1.0091  0.0399 -1.3489
16725TIP3   OH271665   3.120   1.450  11.570 -0.4181  0.1642  0.4385
16725TIP3    H171666   3.213   1.459  11.548 -0.3417  2.7205  1.6213
16725TIP3    H271667   3.117   1.383  11.638  0.2120 -1.9885 -1.5973
16726TIP3   OH271668   1.126   5.069   5.227 -0.1795 -0.0925  0.2818
16726TIP3    H171669   1.061   5.014   5.272  1.9469 -2.3055  0.7469
16726TIP3    H271670   1.190   5.007   5.192  1.3253  1.9964 -0.7984
16727TIP3   OH271671   0.286   0.181  16.455 -0.4621  0.7285 -0.2874
16727TIP3    H171672   0.313   0.241  16.524 -1.1127  1.1194 -0.3672
16727TIP3    H271673   0.208   0.222  16.417 -1.4765 -0.6266  0.2907
16728TIP3   OH271674   0.251   2.644   0.184 -0.2731  0.1819 -0.0116
16728TIP3    H171675   0.179   2.659   0.246  0.4028  1.8920  0.3798
16728TIP3    H271676   0.278   2.731   0.157  1.5949 -0.4467 -0.2461
16729TIP3   OH271677   2.218   1.545  14.166 -0.0097 -0.2048 -0.3624
16729TIP3    H171678   2.191   1.547  14.258 -0.8094 -0.2244 -0.5933
16729TIP3    H271679   2.309   1.516  14.169  0.2474  0.6561  0.4823
16730TIP3   OH271680   5.801   5.630  11.849 -0.4805  0.0190  0.2402
16730TIP3    H171681   5.723   5.673  11.812 -0.0289  1.4022  0.8570
16730TIP3    H271682   5.778   5.611  11.940 -0.0917  0.4742  0.4391
16731TIP3   OH271683   3.251   2.477  16.283 -0.2608 -0.3719  0.4617
16731TIP3    H171684   3.300   2.531  16.347 -0.8713  0.4420  0.2530
16731TIP3    H271685   3.275   2.387  16.305  1.6841  0.0217  0.0965
16732TIP3   OH271686   6.477   2.595  10.379  1.2218 -0.2454  0.3135
16732TIP3    H171687   6.549   2.536  10.357  0.7686 -0.9283  0.6083
16732TIP3    H271688   6.509   2.682  10.358  1.7442 -0.6416 -0.5610
16733TIP3   OH271689   4.921   6.766   4.147  0.2008 -0.5875  0.1300
16733TIP3    H171690   4.833   6.804   4.144 -1.1589 -3.6499 -3.2296
16733TIP3    H271691   4.917   6.701   4.217 -0.2981 -0.8779 -0.1643
16734TIP3   OH271692   0.685   0.188   4.994 -0.3047  0.6804  0.0823
16734TIP3    H171693   0.708   0.253   4.927 -0.6866  1.7535  0.9625
16734TIP3    H271694   0.768   0.149   5.019 -0.0816  0.7494 -0.5335
16735TIP3   OH271695   5.265   0.700  13.774  0.3051  0.0904 -0.4327
16735TIP3    H171696   5.214   0.742  13.844  0.6776 -0.0135 -0.0942
16735TIP3    H271697   5.244   0.607  13.783  0.4964  0.0566 -0.3423
16736TIP3   OH271698   6.297   0.640  11.396  0.2419 -0.5168  0.5831
16736TIP3    H171699   6.392   0.635  11.386  0.1806 -0.2189 -0.1977
16736TIP3    H271700   6.263   0.640  11.307 -0.5997 -2.4758  0.8803
16737TIP3   OH271701   4.577   0.175  14.525 -0.3254 -0.0775  0.5785
16737TIP3    H171702   4.632   0.167  14.603  0.9284  1.1300 -0.1396
16737TIP3    H271703   4.632   0.145  14.453 -0.7871  0.6269 -0.0868
16738TIP3   OH271704   2.782   4.096  12.855  0.1292 -0.2559  0.5905
16738TIP3    H171705   2.699   4.053  12.834  1.4111 -1.7404 -1.4727
16738TIP3    H271706   2.765   4.189  12.838 -0.1464 -0.9183 -3.1465
16739TIP3   OH271707   0.016   6.229  14.047  0.6049 -0.2743 -0.6233
16739TIP3    H171708   0.091   6.229  13.988  0.7690  0.1835 -0.4161
16739TIP3    H271709   0.040   6.168  14.117  0.0141 -1.5735 -1.5214
16740TIP3   OH271710   0.400   6.458  12.473 -0.1369  0.0967  0.1201
16740TIP3    H171711   0.374   6.550  12.478  0.5109  0.1989  2.1839
16740TIP3    H271712   0.488   6.459  12.435 -0.0155  0.3525  0.4090
16741TIP3   OH271713   1.240   3.174  14.411 -0.1878  0.3302  0.7674
16741TIP3    H171714   1.219   3.262  14.380  0.3459  0.9125  2.0287
16741TIP3    H271715   1.335   3.175  14.425 -0.0517 -0.7070 -0.0030
16742TIP3   OH271716   4.953   3.158   5.467  0.4543 -0.3041 -0.4301
16742TIP3    H171717   4.934   3.243   5.506  1.4255  0.5139 -1.6976
16742TIP3    H271718   4.867   3.122   5.445  0.0628  0.6768 -0.5442
16743TIP3   OH271719   6.463   4.661  14.133 -0.1844  0.7522  0.1968
16743TIP3    H171720   6.419   4.603  14.071 -1.0187  0.7936  0.7412
16743TIP3    H271721   6.530   4.705  14.082 -0.0772 -0.1058 -0.4034
16744TIP3   OH271722   0.255   5.467  13.326 -0.4169 -0.0427  0.1739
16744TIP3    H171723   0.248   5.532  13.395  0.3434 -0.0726  0.2817
16744TIP3    H271724   0.346   5.438  13.328 -0.4282 -0.1760 -0.7192
16745TIP3   OH271725   0.548   6.407   4.555 -0.0218  0.0224 -0.0482
16745TIP3    H171726   0.547   6.498   4.584 -0.2719 -0.4345  1.4324
16745TIP3    H271727   0.458   6.389   4.527 -0.1958 -0.0309  0.5337
16746TIP3   OH271728   0.770   2.147  13.273 -0.2247  0.2116  0.3005
16746TIP3    H171729   0.749   2.090  13.347  2.0716 -0.9066  0.1519
16746TIP3    H271730   0.727   2.106  13.198  1.0162 -1.0881  0.2797
16747TIP3   OH271731   0.926   4.352  16.813  0.3433 -0.4258 -0.3033
16747TIP3    H171732   0.998   4.302  16.852  0.6781 -0.2613 -0.7066
16747TIP3    H271733   0.925   4.434  16.861 -0.1078 -0.7559  0.2530
16748TIP3   OH271734   1.719   2.943   2.757  0.0627 -0.0595 -0.6220
16748TIP3    H171735   1.655   2.955   2.827  0.8301  0.9814 -0.0764
16748TIP3    H271736   1.804   2.948   2.801  0.5236 -2.0922 -1.2404
16749TIP3   OH271737   2.858   4.356   4.004 -0.3362 -0.2704  0.1154
16749TIP3    H171738   2.925   4.416   4.035 -0.1198 -0.6456  0.3847
16749TIP3    H271739   2.801   4.343   4.081  0.7640 -1.9801  0.6579
16750TIP3   OH271740   1.136   0.002   6.530 -0.2313  0.3442 -0.0536
16750TIP3    H171741   1.153   0.006   6.436  0.9587 -0.1545  0.1320
16750TIP3    H271742   1.052   0.046   6.541 -1.1168 -0.9492 -1.5339
16751TIP3   OH271743   5.871   0.751  11.996 -0.5087  0.1420  0.1054
16751TIP3    H171744   5.928   0.777  11.924 -1.5762 -0.2549 -0.8974
16751TIP3    H271745   5.878   0.822  12.060  1.9799 -0.4396  0.5226
16752TIP3   OH271746   3.080   3.911  15.000  0.2963  0.1494 -0.3551
16752TIP3    H171747   3.006   3.910  15.060  0.1052  3.7984 -0.4294
16752TIP3    H271748   3.158   3.909  15.056  0.1304  0.3791 -0.1189
16753TIP3   OH271749   1.924   4.473   5.100  0.3199  0.5582 -0.0027
16753TIP3    H171750   1.954   4.394   5.055 -0.1940  0.2501  0.1896
16753TIP3    H271751   1.853   4.443   5.156  0.2380  1.1297  0.2027
16754TIP3   OH271752   2.421   5.437   0.451  0.2902  0.2894  0.3519
16754TIP3    H171753   2.427   5.495   0.527  1.4253  0.2266  0.3248
16754TIP3    H271754   2.499   5.458   0.399 -1.1032  1.2100 -1.4287
16755TIP3   OH271755   2.328   0.608  15.789  0.1314 -0.2571 -0.2973
16755TIP3    H171756   2.321   0.650  15.703  0.8561 -1.1621 -0.8034
16755TIP3    H271757   2.357   0.519  15.770  1.3921 -0.1305  0.9649
16756TIP3   OH271758   5.538   1.995  13.249 -0.6065 -0.3552 -0.1383
16756TIP3    H171759   5.553   2.088  13.266  2.0573 -0.9037  0.6614
16756TIP3    H271760   5.492   1.994  13.165  0.0494  1.6415 -0.5570
16757TIP3   OH271761   5.967   6.678   4.410  0.3822  0.6767  0.2371
16757TIP3    H171762   5.938   6.698   4.499  0.7656  0.8803  0.3138
16757TIP3    H271763   6.005   6.591   4.416  1.2538  1.0699  0.4583
16758TIP3   OH271764   4.200   3.594   0.965  0.1792  0.4616 -0.0939
16758TIP3    H171765   4.235   3.505   0.961 -3.6155 -1.0706 -0.7961
16758TIP3    H271766   4.218   3.623   1.055  1.6373 -0.8971  0.0752
16759TIP3   OH271767   4.631   1.917  16.271 -0.1184 -0.4846 -0.2737
16759TIP3    H171768   4.576   1.838  16.269 -0.8067 -0.0150 -0.2720
16759TIP3    H271769   4.693   1.904  16.200  1.4711 -2.2116  1.3562
16760TIP3   OH271770   1.037   4.832   0.808  0.1318  0.2181 -0.2725
16760TIP3    H171771   0.988   4.750   0.806  0.0979  0.2654 -2.8711
16760TIP3    H271772   1.127   4.807   0.786  0.1583  0.8537 -0.8926
16761TIP3   OH271773   4.019   2.885  16.286 -0.1672  0.3991 -0.0694
16761TIP3    H171774   4.025   2.936  16.205  1.5240  2.1415  1.0783
16761TIP3    H271775   4.024   2.794  16.258  2.2053  1.0208 -1.8242
16762TIP3   OH271776   5.095   2.262   4.945 -0.7523  0.1959  0.4312
16762TIP3    H171777   5.051   2.260   4.860  1.2066  0.2912 -0.6076
16762TIP3    H271778   5.184   2.231   4.927 -0.5479 -0.5672  2.5920
16763TIP3   OH271779   0.795   3.518   2.209  0.0542  0.1202 -0.8329
16763TIP3    H171780   0.769   3.427   2.195 -0.1151  0.2280 -1.2233
16763TIP3    H271781   0.772   3.536   2.300 -1.9706  0.4606 -1.3850
16764TIP3   OH271782   4.839   4.357   1.666 -0.0893 -0.4987  0.6233
16764TIP3    H171783   4.917   4.334   1.616 -0.5828 -0.4920 -0.1553
16764TIP3    H271784   4.843   4.452   1.674 -0.1022 -0.4846  0.4525
16765TIP3   OH271785   1.233   2.531   6.328 -0.6645  0.3869  0.4658
16765TIP3    H171786   1.320   2.544   6.365  0.4451 -0.5286 -1.6870
16765TIP3    H271787   1.192   2.617   6.330  0.4429  0.9042  1.1489
16766TIP3   OH271788   3.699   0.170   2.623 -0.4043 -0.3004 -0.3423
16766TIP3    H171789   3.632   0.102   2.618  0.7194 -1.2789 -3.4015
16766TIP3    H271790   3.650   0.252   2.620 -1.5793 -0.9935 -0.4813
16767TIP3   OH271791   5.716   1.960  17.197 -0.6558  0.2247 -0.7201
16767TIP3    H171792   5.678   1.910  17.269  0.7372 -0.8535 -0.7155
16767TIP3    H271793   5.782   2.016  17.239 -0.1948 -0.0373 -1.0915
16768TIP3   OH271794   5.029   2.511  17.174  0.3194  0.3137 -0.9003
16768TIP3    H171795   4.974   2.439  17.204  2.8833 -1.5768 -0.6121
16768TIP3    H271796   4.994   2.588  17.220 -3.2892 -0.4509 -2.2147
16769TIP3   OH271797   5.012   4.068   4.747 -0.0758  0.4171  0.9168
16769TIP3    H171798   5.094   4.103   4.713 -0.5311 -2.2083 -3.1708
16769TIP3    H271799   4.944   4.112   4.696 -0.9422 -1.1066  0.7299
16770TIP3   OH271800   0.811   1.942  16.228  0.1722  0.1800  0.8974
16770TIP3    H171801   0.817   1.847  16.240  0.5700 -0.2663 -2.5482
16770TIP3    H271802   0.878   1.962  16.164 -1.0060  2.5843  0.3898
16771TIP3   OH271803   4.353   1.703   4.701 -0.2541  0.2573  0.4260
16771TIP3    H171804   4.266   1.673   4.675 -0.4369  0.2554  1.0284
16771TIP3    H271805   4.373   1.652   4.780 -0.7901  2.0456  1.7654
16772TIP3   OH271806   3.295   4.546   3.281  0.3452  0.1122  0.0993
16772TIP3    H171807   3.302   4.492   3.203  0.4368  2.3788 -1.4913
16772TIP3    H271808   3.379   4.591   3.288  0.3860 -0.1443  1.5700
16773TIP3   OH271809   2.684   0.908   2.016 -0.3682 -0.0455 -0.4078
16773TIP3    H171810   2.768   0.939   2.051  0.2863 -1.6613 -0.5105
16773TIP3    H271811   2.687   0.813   2.027 -0.8538 -0.4310 -3.2978
16774TIP3   OH271812   4.500   1.628  13.371 -0.5777 -0.0961 -0.2033
16774TIP3    H171813   4.541   1.563  13.428  1.0927 -0.7462 -2.1281
16774TIP3    H271814   4.573   1.678  13.335 -1.6675  0.7617 -1.2668
16775TIP3   OH271815   2.032   4.077  11.844 -0.0842 -0.2127  0.3629
16775TIP3    H171816   2.090   4.148  11.817  0.0835 -0.6025 -0.3000
16775TIP3    H271817   2.091   4.006  11.872 -0.2511 -0.1159  0.9778
16776TIP3   OH271818   6.632   3.918  17.096  0.1116  0.0569 -0.3118
16776TIP3    H171819   6.711   3.918  17.149  0.3901 -0.3139 -0.7203
16776TIP3    H271820   6.607   3.825  17.090 -2.7984  0.4867  3.3963
16777TIP3   OH271821   0.953   3.662  14.063  1.2032 -0.1027 -0.1099
16777TIP3    H171822   1.003   3.705  14.132 -0.0750 -1.4352  1.7053
16777TIP3    H271823   0.872   3.633  14.107  0.3560 -0.9459 -2.1719
16778TIP3   OH271824   3.315   4.053  11.284 -0.0672  0.0337 -0.2922
16778TIP3    H171825   3.266   4.013  11.212 -0.5204  0.7341 -0.3852
16778TIP3    H271826   3.394   4.088  11.243 -0.7629  1.2441 -0.6242
16779TIP3   OH271827   2.904   5.903  16.712  0.1476  0.0990  0.2842
16779TIP3    H171828   2.875   5.865  16.629 -0.6049  2.3969 -0.5555
16779TIP3    H271829   2.845   5.868  16.777 -0.0037 -0.8122 -0.3345
16780TIP3   OH271830   1.621   2.534   2.028  0.0616 -0.1156 -0.4494
16780TIP3    H171831   1.574   2.602   1.979 -0.3879 -0.5067 -0.5624
16780TIP3    H271832   1.572   2.526   2.110 -0.2910 -0.7818 -0.7207
16781TIP3   OH271833   4.931   5.817   3.775  0.1033  0.4094  0.2281
16781TIP3    H171834   4.907   5.751   3.840 -1.3735  1.6631  0.9914
16781TIP3    H271835   4.996   5.774   3.720 -2.3821 -2.4525 -0.6277
16782TIP3   OH271836   4.071   5.379   4.145 -0.5756  0.0037 -0.0364
16782TIP3    H171837   3.994   5.422   4.183 -0.4747  1.4276 -1.3793
16782TIP3    H271838   4.034   5.310   4.089 -0.8392 -0.0144  0.1581
16783TIP3   OH271839   4.778   5.209   0.637 -0.3750  0.3039  0.5858
16783TIP3    H171840   4.848   5.190   0.574  0.6224 -0.5872  1.9192
16783TIP3    H271841   4.715   5.139   0.624  0.9516 -1.2412  2.1259
16784TIP3   OH271842   0.962   0.465  12.667 -0.6104 -0.3386 -0.6094
16784TIP3    H171843   0.873   0.496  12.651 -0.6398 -0.6702 -1.0990
16784TIP3    H271844   1.018   0.527  12.619 -0.5956 -0.3128 -0.5593
16785TIP3   OH271845   2.232   2.521   1.380  0.3143  0.1164  0.1497
16785TIP3    H171846   2.186   2.533   1.297  1.8351 -1.2275 -0.8970
16785TIP3    H271847   2.246   2.610   1.413 -3.5566  0.5727  0.8206
16786TIP3   OH271848   1.386   4.618   0.206 -1.0974  0.2715  0.1165
16786TIP3    H171849   1.329   4.679   0.253  0.0635  1.5005 -0.0453
16786TIP3    H271850   1.331   4.584   0.135 -1.6258  1.4364 -0.0379
16787TIP3   OH271851   1.337   4.732  15.246 -0.1412  0.1389 -0.2860
16787TIP3    H171852   1.329   4.787  15.168  0.6523  1.8119  0.7865
16787TIP3    H271853   1.429   4.706  15.249 -0.4901 -1.1876 -0.7321
16788TIP3   OH271854   5.180   3.816  10.597  0.3051  0.2936  0.6286
16788TIP3    H171855   5.182   3.908  10.622 -3.9136  0.2117  1.5253
16788TIP3    H271856   5.208   3.769  10.676 -1.0638  0.6490  1.3343
16789TIP3   OH271857   4.021   5.501  14.806  0.2388  0.5589 -0.2540
16789TIP3    H171858   4.079   5.565  14.766  0.7492  0.3901  0.2060
16789TIP3    H271859   3.996   5.539  14.890 -0.9036  0.9530 -0.7627
16790TIP3   OH271860   3.818   3.935   2.994  0.1744  0.1333  0.6201
16790TIP3    H171861   3.755   3.904   2.929  0.2888  1.1643 -0.0090
16790TIP3    H271862   3.877   3.862   3.007  0.3360  0.0171 -0.6885
16791TIP3   OH271863   2.896   6.733  14.162 -0.0993  0.2898 -0.2046
16791TIP3    H171864   2.943   6.711  14.243  0.8933  1.9751 -0.3065
16791TIP3    H271865   2.958   6.711  14.092  0.0435  1.2987 -0.3962
16792TIP3   OH271866   1.675   3.116   5.618 -0.1853  0.0350  0.1149
16792TIP3    H171867   1.645   3.153   5.701  1.1971 -1.2341  1.2088
16792TIP3    H271868   1.648   3.180   5.552 -1.6144  0.8903  1.4925
16793TIP3   OH271869   6.537   3.526  13.708 -0.0852 -0.3072 -0.0337
16793TIP3    H171870   6.445   3.531  13.680 -0.0234  0.4162 -0.1249
16793TIP3    H271871   6.587   3.553  13.631  0.2053 -0.6881  0.0224
16794TIP3   OH271872   1.515   6.594  13.592  0.0422 -0.3185 -0.0576
16794TIP3    H171873   1.424   6.588  13.621 -0.0701  1.8184  0.1120
16794TIP3    H271874   1.566   6.601  13.672  0.1757  0.4350 -0.2029
16795TIP3   OH271875   6.497   3.121   2.546  0.2334  0.1482  0.1287
16795TIP3    H171876   6.476   3.153   2.458 -0.4378  1.4657  0.7629
16795TIP3    H271877   6.592   3.113   2.546  0.3836  1.7585 -0.1809
16796TIP3   OH271878   4.004   5.839   3.948 -0.7541 -0.0989  0.1182
16796TIP3    H171879   4.083   5.784   3.955  0.1422  1.0929 -0.4172
16796TIP3    H271880   4.014   5.905   4.017 -1.4983 -0.1956  0.3239
16797TIP3   OH271881   5.547   4.580  14.654  0.1397  0.2246 -0.4213
16797TIP3    H171882   5.620   4.642  14.651 -0.2622  0.9392  2.5935
16797TIP3    H271883   5.584   4.502  14.697 -0.7190  0.4211  0.6933
16798TIP3   OH271884   0.926   0.937   0.378  0.2782 -0.2816 -0.7663
16798TIP3    H171885   0.928   0.907   0.469  2.3610 -0.0756 -0.7242
16798TIP3    H271886   0.837   0.968   0.364 -0.6098 -2.1493  0.6129
16799TIP3   OH271887   0.869   2.297   2.364 -0.0331  0.4670 -0.0015
16799TIP3    H171888   0.934   2.286   2.434 -1.6433  0.0187  1.4559
16799TIP3    H271889   0.785   2.280   2.406 -1.2216  2.2436 -1.5868
16800TIP3   OH271890   6.810   3.522  12.803  0.7338  0.8427  0.1522
16800TIP3    H171891   6.829   3.429  12.789  0.7127  0.4989  2.3214
16800TIP3    H271892   6.891   3.567  12.780  1.2670  0.1504  0.6746
16801TIP3   OH271893   2.415   6.725  15.051 -0.3788  0.5302 -0.5837
16801TIP3    H171894   2.364   6.765  15.121 -1.2604  2.4423 -2.2567
16801TIP3    H271895   2.504   6.719  15.086 -1.4474 -1.6060  1.8684
16802TIP3   OH271896   1.433   4.044   1.940  0.0248 -0.3442  0.6483
16802TIP3    H171897   1.451   4.117   1.880 -0.2080  0.0601  1.0612
16802TIP3    H271898   1.372   3.988   1.893 -1.0527  0.5678  0.9346
16803TIP3   OH271899   3.783   0.506   4.700  0.0860  0.2817 -0.0414
16803TIP3    H171900   3.807   0.598   4.692  1.8488 -0.2914 -1.5514
16803TIP3    H271901   3.851   0.459   4.653 -1.0931 -1.7766  0.2523
16804TIP3   OH271902   3.598   0.152  16.410 -0.3354  0.4768 -0.0310
16804TIP3    H171903   3.614   0.088  16.340  1.2800  0.5887  0.2044
16804TIP3    H271904   3.685   0.169  16.447 -0.8217  2.3296  0.3267
16805TIP3   OH271905   5.466   6.662   5.515 -0.1153  0.0814 -0.2790
16805TIP3    H171906   5.460   6.644   5.609  1.6707 -0.6430 -0.2919
16805TIP3    H271907   5.521   6.740   5.509 -1.5550  1.1043 -0.6598
16806TIP3   OH271908   3.950   4.979   4.362 -0.0403  0.1160  0.1012
16806TIP3    H171909   3.864   5.001   4.324  0.5665 -0.6353 -1.7440
16806TIP3    H271910   3.961   4.886   4.343  2.2795  0.7654 -1.8877
16807TIP3   OH271911   5.843   6.767   1.594  0.1646  0.2875 -0.3811
16807TIP3    H171912   5.931   6.798   1.616  0.2281  0.2205 -0.5410
16807TIP3    H271913   5.858   6.684   1.549  0.0541  0.6003 -1.0062
16808TIP3   OH271914   3.781   2.360  14.613 -0.4159  0.2358 -0.3453
16808TIP3    H171915   3.864   2.322  14.584  0.8573  0.3641  2.9437
16808TIP3    H271916   3.804   2.448  14.643 -1.6716  0.1900  0.8216
16809TIP3   OH271917   0.271   6.678  12.544 -0.1142 -0.0886  0.1876
16809TIP3    H171918   0.283   6.730  12.624 -1.3119  0.9157 -0.2689
16809TIP3    H271919   0.179   6.654  12.543  0.2053 -1.3525 -0.1564
16810TIP3   OH271920   4.331   1.526  12.100 -0.1663 -0.1968 -0.5442
16810TIP3    H171921   4.369   1.614  12.102  2.3830 -1.0329 -4.9735
16810TIP3    H271922   4.242   1.538  12.135  1.4318  3.3277  2.6532
16811TIP3   OH271923   5.664   1.220   1.104  0.0111 -0.5986  0.0549
16811TIP3    H171924   5.655   1.255   1.193 -0.4882 -0.9786  0.1570
16811TIP3    H271925   5.594   1.156   1.096 -0.6889  0.2726 -1.0118
16812TIP3   OH271926   1.198   4.392   6.625 -0.3583  0.0148 -0.5285
16812TIP3    H171927   1.283   4.395   6.580  0.0553  1.0802  0.3004
16812TIP3    H271928   1.214   4.336   6.701 -0.4156  0.1205 -0.4375
16813TIP3   OH271929   6.340   5.245  11.337  0.0170 -0.1365 -0.7936
16813TIP3    H171930   6.356   5.159  11.376  1.0759  0.0374 -0.8317
16813TIP3    H271931   6.410   5.301  11.371 -0.3432  0.5723 -1.2007
16814TIP3   OH271932   5.901   0.237   0.948  0.8025  0.5091 -0.5588
16814TIP3    H171933   5.851   0.311   0.983  0.9522  0.4751 -0.2676
16814TIP3    H271934   5.855   0.159   0.980  2.7166  0.4480  2.2386
16815TIP3   OH271935   2.005   6.408  12.905  0.2978  0.0936 -0.1422
16815TIP3    H171936   2.057   6.482  12.934 -0.8566  0.6037  0.6501
16815TIP3    H271937   1.935   6.400  12.970  0.8339 -2.1640  0.2150
16816TIP3   OH271938   3.006   6.732  16.216 -0.0959  0.6179 -0.0421
16816TIP3    H171939   2.923   6.690  16.194 -0.6238  1.3484  0.5416
16816TIP3    H271940   3.013   6.722  16.311  1.3557 -1.0232 -0.2814
16817TIP3   OH271941   4.788   0.285  16.890  0.3938  0.1474 -0.4185
16817TIP3    H171942   4.867   0.281  16.944  0.9202 -0.5755 -1.2299
16817TIP3    H271943   4.799   0.363  16.837 -1.5293  2.5998  2.6321
16818TIP3   OH271944   4.546   4.595   1.111 -0.3038 -0.3206  0.4547
16818TIP3    H171945   4.589   4.615   1.028 -2.2970  2.6402  0.0331
16818TIP3    H271946   4.610   4.619   1.178  0.6852 -1.1172 -0.1893
16819TIP3   OH271947   3.386   3.809   4.230 -0.3984  0.4596 -0.1516
16819TIP3    H171948   3.356   3.784   4.143 -1.4299  1.9150 -0.2201
16819TIP3    H271949   3.321   3.771   4.290  0.9479 -1.5593  0.0874
16820TIP3   OH271950   3.983   4.538   2.802  0.0594  0.3372  0.0170
16820TIP3    H171951   3.931   4.617   2.821  0.9043  0.5391  1.5694
16820TIP3    H271952   4.021   4.555   2.716 -1.5542  0.6562 -0.6571
16821TIP3   OH271953   6.188   3.041  12.614 -0.4665  0.3033  0.2734
16821TIP3    H171954   6.145   3.020  12.531  0.3630 -0.7814  0.1044
16821TIP3    H271955   6.171   3.134  12.627  0.6626  0.8289 -1.8425
16822TIP3   OH271956   2.796   4.938  14.876  0.0789 -0.0932 -0.2604
16822TIP3    H171957   2.728   4.998  14.849  0.2172 -0.3175 -1.1196
16822TIP3    H271958   2.831   4.976  14.957  1.4264  1.9823 -1.7731
16823TIP3   OH271959   3.453   3.927   0.512 -0.2451 -0.1685  0.1205
16823TIP3    H171960   3.484   4.016   0.497  0.7058 -0.6997 -1.1167
16823TIP3    H271961   3.361   3.929   0.486  0.0261  0.2162 -0.8346
16824TIP3   OH271962   4.580   3.035  16.270  0.2186  0.1058  0.7816
16824TIP3    H171963   4.541   3.029  16.357 -1.2705 -3.0521 -0.0410
16824TIP3    H271964   4.534   2.969  16.219  1.5937  1.3915 -2.2241
16825TIP3   OH271965   6.009   1.826   4.917 -0.2942  0.4613  0.0137
16825TIP3    H171966   5.995   1.731   4.913 -0.0576  0.4488 -0.5669
16825TIP3    H271967   5.985   1.850   5.006 -0.8032 -0.0752  0.0214
16826TIP3   OH271968   2.443   3.519  14.498  0.2814  0.3760  0.0733
16826TIP3    H171969   2.435   3.586  14.565  0.1551 -0.7440  1.2000
16826TIP3    H271970   2.533   3.487  14.506 -0.7553 -2.2485  2.1738
16827TIP3   OH271971   4.780   0.486   6.306 -0.3688 -0.1410  0.0480
16827TIP3    H171972   4.825   0.410   6.268  0.5283 -0.6633  2.1065
16827TIP3    H271973   4.795   0.557   6.243 -3.4602 -2.2253 -3.2891
16828TIP3   OH271974   5.207   3.155  12.851  0.0052  0.0574  0.0653
16828TIP3    H171975   5.292   3.113  12.837  2.4283  3.8503  2.3099
16828TIP3    H271976   5.199   3.218  12.779 -0.4771  0.3111  0.3360
16829TIP3   OH271977   0.761   4.683  13.544  0.3098  0.3434  0.1778
16829TIP3    H171978   0.763   4.670  13.449 -2.3717  1.6921 -0.0979
16829TIP3    H271979   0.841   4.732  13.563  0.7668  0.2340 -1.4031
16830TIP3   OH271980   2.489   3.319   6.349  0.2973  0.3967 -0.5380
16830TIP3    H171981   2.454   3.239   6.309 -1.6928  1.0326 -0.0921
16830TIP3    H271982   2.526   3.368   6.275 -0.5637  0.1371 -1.1440
16831TIP3   OH271983   1.394   4.576   0.615  0.4780 -0.3249 -0.0727
16831TIP3    H171984   1.359   4.588   0.703 -0.5198 -0.7616 -0.3927
16831TIP3    H271985   1.393   4.664   0.577  1.2001 -0.0883  0.4543
16832TIP3   OH271986   3.514   0.795   5.410 -0.6549 -0.2741  0.0941
16832TIP3    H171987   3.521   0.701   5.429 -3.4052 -0.8433 -1.3402
16832TIP3    H271988   3.453   0.828   5.477  0.3867  0.5125  0.6547
16833TIP3   OH271989   2.254   2.219  14.410 -0.5103 -0.0110 -0.1449
16833TIP3    H171990   2.229   2.134  14.374 -1.3978 -0.1474  0.7532
16833TIP3    H271991   2.331   2.200  14.464  0.4349  0.0864 -1.4563
16834TIP3   OH271992   5.723   3.985   1.181 -0.1871 -0.2728 -0.0685
16834TIP3    H171993   5.737   3.975   1.275 -0.5875  0.1663  0.0377
16834TIP3    H271994   5.636   3.949   1.165 -1.2948  2.2135  0.1855
16835TIP3   OH271995   0.684   2.232   5.356 -0.0206  0.0405  0.0194
16835TIP3    H171996   0.629   2.200   5.285 -0.7133  0.1957  0.4872
16835TIP3    H271997   0.733   2.305   5.317 -1.2618  0.8954  0.0129
16836TIP3   OH271998   2.631   2.506  12.490 -0.0049 -0.1326 -0.3033
16836TIP3    H171999   2.714   2.473  12.454 -0.1440 -0.6416 -0.1619
16836TIP3    H272000   2.575   2.519  12.413  0.3730  0.6921 -0.4462
16837TIP3   OH272001   2.874   4.421  13.372  0.3535  0.3677 -0.3179
16837TIP3    H172002   2.836   4.342  13.336 -1.1426  1.1635 -0.5213
16837TIP3    H272003   2.823   4.437  13.452  0.9959  0.8259 -0.0004
16838TIP3   OH272004   0.591   3.171  12.713 -0.4335 -0.1419 -0.5126
16838TIP3    H172005   0.511   3.169  12.765  0.1239 -1.9135  0.3081
16838TIP3    H272006   0.616   3.079  12.703  0.6928  0.3095 -2.0111
16839TIP3   OH272007   6.797   6.116  12.646  0.0653 -0.0142  0.0473
16839TIP3    H172008   6.778   6.054  12.717 -0.3981 -0.3713 -0.3802
16839TIP3    H272009   6.826   6.061  12.573 -1.9564  0.1034 -0.8788
16840TIP3   OH272010   1.059   1.515  11.052 -0.2856  0.7161  0.0348
16840TIP3    H172011   1.004   1.514  11.130 -0.3918  1.8343 -0.0250
16840TIP3    H272012   1.115   1.437  11.061  0.8672  1.7524  2.0271
16841TIP3   OH272013   0.622   4.912   2.083 -0.9792 -0.3163 -0.4048
16841TIP3    H172014   0.683   4.839   2.094  1.0194  1.2570 -0.7527
16841TIP3    H272015   0.553   4.877   2.027  0.1316 -1.8163 -0.8771
16842TIP3   OH272016   3.887   6.192   3.001 -0.5925  0.2011  0.2040
16842TIP3    H172017   3.791   6.188   2.999 -0.6028  0.4900  0.1103
16842TIP3    H272018   3.907   6.285   3.010 -0.3227  0.1261  0.3737
16843TIP3   OH272019   3.843   5.574   2.788 -0.1633  0.1122 -0.0446
16843TIP3    H172020   3.801   5.596   2.871 -0.0412  2.1343 -0.4877
16843TIP3    H272021   3.920   5.522   2.813 -1.1859 -0.9308  0.9598
16844TIP3   OH272022   2.430   4.223  11.274 -0.4894  0.2230 -0.0639
16844TIP3    H172023   2.451   4.136  11.240 -3.1679 -1.7476  3.0225
16844TIP3    H272024   2.495   4.239  11.342 -1.3574 -0.3468  0.8985
16845TIP3   OH272025   2.021   3.046   4.364  0.0094  0.4943 -0.0791
16845TIP3    H172026   1.977   3.045   4.449  1.4719  1.8809  0.7375
16845TIP3    H272027   1.952   3.064   4.301 -0.8055  1.3319  1.0269
16846TIP3   OH272028   3.929   5.471  12.389  0.7421 -0.0304 -0.3527
16846TIP3    H172029   3.940   5.565  12.398  0.5584 -0.2800  2.8466
16846TIP3    H272030   3.883   5.444  12.469 -1.7743 -2.4252 -2.4948
16847TIP3   OH272031   2.850   2.673  12.045  0.0186  0.1989  0.3090
16847TIP3    H172032   2.879   2.650  12.133 -0.9405  1.6762  1.0311
16847TIP3    H272033   2.847   2.769  12.044 -0.3866  0.1966 -1.1940
16848TIP3   OH272034   5.385   3.182   2.246  0.1485  0.4973 -0.3505
16848TIP3    H172035   5.466   3.234   2.241 -0.3699  1.3304 -0.0897
16848TIP3    H272036   5.392   3.134   2.328  0.5148  0.3386 -0.4728
16849TIP3   OH272037   0.138   6.725  15.975 -0.2041  0.6346 -0.5025
16849TIP3    H172038   0.213   6.697  16.027 -2.6941 -0.2923  2.7473
16849TIP3    H272039   0.108   6.646  15.930 -0.8282  0.3879  0.3308
16850TIP3   OH272040   2.118   6.492  16.462 -0.5208 -0.2741 -0.0572
16850TIP3    H172041   2.097   6.408  16.422  0.0758 -0.4595  0.0228
16850TIP3    H272042   2.177   6.534  16.399  1.4062 -1.0741  1.2052
16851TIP3   OH272043   3.767   2.408   1.724 -0.3836  0.3687 -0.6745
16851TIP3    H172044   3.838   2.348   1.700 -1.1441 -1.3543  1.1768
16851TIP3    H272045   3.689   2.352   1.728 -0.9634  1.2769  1.8843
16852TIP3   OH272046   3.671   3.993   2.570  0.7213 -0.1197  0.3974
16852TIP3    H172047   3.756   4.036   2.581  0.8367 -0.4302  0.7131
16852TIP3    H272048   3.675   3.954   2.483  0.5498  0.6557  0.0350
16853TIP3   OH272049   3.137   5.501   1.859 -0.4099  0.4359 -0.7185
16853TIP3    H172050   3.183   5.584   1.875 -0.9137  0.5638  0.1027
16853TIP3    H272051   3.124   5.464   1.946 -1.2065  0.0506 -0.9974
16854TIP3   OH272052   2.689   2.379  16.088 -0.9759 -0.1582  0.7848
16854TIP3    H172053   2.695   2.475  16.084 -1.2212 -0.1927 -0.5605
16854TIP3    H272054   2.779   2.349  16.072 -1.0949 -0.1716  0.1153
16855TIP3   OH272055   5.664   3.689   2.469 -0.1663 -0.2673  0.6253
16855TIP3    H172056   5.729   3.750   2.501  0.1242  0.2090 -0.8424
16855TIP3    H272057   5.678   3.609   2.520  0.0876  0.5727  1.8603
16856TIP3   OH272058   2.375   5.123  11.249  0.1305 -0.0921 -0.0186
16856TIP3    H172059   2.283   5.115  11.221  0.3212 -0.6129 -0.5012
16856TIP3    H272060   2.404   5.205  11.209 -0.8084  1.2920  2.0778
16857TIP3   OH272061   5.362   1.874  15.714  0.5104  0.2020  0.0940
16857TIP3    H172062   5.436   1.840  15.764  0.1171 -1.0204 -0.1389
16857TIP3    H272063   5.394   1.877  15.624  0.1447 -0.7269 -0.0706
16858TIP3   OH272064   0.437   4.584  15.839  0.0798 -0.1227 -0.2651
16858TIP3    H172065   0.455   4.675  15.860 -0.5486 -0.1049  0.2267
16858TIP3    H272066   0.499   4.562  15.769  0.5101  0.5537 -0.0983
16859TIP3   OH272067   2.767   3.856  13.107  0.5228 -0.0997  0.5642
16859TIP3    H172068   2.857   3.856  13.077 -0.0390  0.1166 -1.1385
16859TIP3    H272069   2.714   3.848  13.028 -0.9624 -0.2364  1.5335
16860TIP3   OH272070   1.158   0.839   1.685  0.3996  0.0217 -0.0995
16860TIP3    H172071   1.154   0.932   1.707 -0.3584 -0.3393  1.3254
16860TIP3    H272072   1.230   0.805   1.739  1.6301  0.0605 -1.6871
16861TIP3   OH272073   0.040   5.083  12.856  0.7511 -0.2092  0.1703
16861TIP3    H172074   0.119   5.110  12.903  0.5897  0.3509  0.1197
16861TIP3    H272075   0.053   5.113  12.767  0.5863 -0.3344  0.1040
16862TIP3   OH272076   0.680   1.243   5.077 -0.3650  0.6112 -0.3058
16862TIP3    H172077   0.678   1.333   5.043 -1.7198  0.6670 -0.1000
16862TIP3    H272078   0.596   1.206   5.051  0.4605 -0.8338 -0.9907
16863TIP3   OH272079   1.715   3.893  15.847  0.0468  0.2305  0.4734
16863TIP3    H172080   1.706   3.961  15.780 -0.3415  1.3542  1.6350
16863TIP3    H272081   1.705   3.940  15.930  1.7028 -0.9477  1.3634
16864TIP3   OH272082   0.439   2.943  14.573 -0.2631  0.0360 -0.1124
16864TIP3    H172083   0.504   2.928  14.505 -1.5379 -3.8289 -0.6102
16864TIP3    H272084   0.384   3.013  14.538  1.6165  1.0008 -1.1869
16865TIP3   OH272085   6.783   5.916   2.450  0.2115  0.5335 -0.4889
16865TIP3    H172086   6.801   5.885   2.361 -1.1342  0.3378 -0.7164
16865TIP3    H272087   6.704   5.970   2.440 -1.3731 -1.4521  0.9407
16866TIP3   OH272088   3.176   2.982  16.515  0.1686 -0.3722  0.0876
16866TIP3    H172089   3.084   2.996  16.536  0.0211 -0.9390 -0.1857
16866TIP3    H272090   3.223   3.044  16.572 -0.3229 -0.6775  0.8373
16867TIP3   OH272091   6.406   6.449   1.192  0.0684 -0.0343 -0.0637
16867TIP3    H172092   6.413   6.423   1.100 -2.0509  1.3399 -0.6603
16867TIP3    H272093   6.483   6.503   1.208 -1.0030  2.1153 -1.9090
16868TIP3   OH272094   3.064   3.018   2.138  0.1076  0.4168  0.7111
16868TIP3    H172095   3.042   3.105   2.170 -1.9432 -0.3894  1.5603
16868TIP3    H272096   3.088   3.032   2.046 -1.7830  1.6723  0.3861
16869TIP3   OH272097   4.861   1.340   6.015 -0.5156 -0.1542 -0.2144
16869TIP3    H172098   4.909   1.364   6.094  1.0425  1.2963 -1.5490
16869TIP3    H272099   4.817   1.421   5.988 -0.2800 -0.3860 -1.3375
16870TIP3   OH272100   4.861   2.764   5.983 -0.2245 -0.1174  0.0503
16870TIP3    H172101   4.802   2.688   5.984 -0.2025 -0.1388 -0.3000
16870TIP3    H272102   4.943   2.730   6.019 -0.4327 -0.0804  0.5691
16871TIP3   OH272103   2.282   4.568   1.438  0.1824  0.0739  0.4908
16871TIP3    H172104   2.328   4.493   1.476  0.2090  0.8643  2.0811
16871TIP3    H272105   2.206   4.580   1.494  0.0039  1.0332  0.0530
16872TIP3   OH272106   2.599   0.415   1.818  0.2241  0.1793  0.5187
16872TIP3    H172107   2.670   0.468   1.855  0.3806 -0.1735  0.7270
16872TIP3    H272108   2.630   0.391   1.731  0.7383 -0.7058  0.9415
16873TIP3   OH272109   0.431   2.154  12.910  0.5191 -0.4652 -0.2685
16873TIP3    H172110   0.380   2.200  12.844  1.5672  0.8676 -0.1686
16873TIP3    H272111   0.428   2.210  12.987  0.0716 -1.5710  0.5404
16874TIP3   OH272112   3.795   2.355   0.059 -0.0349  0.4993 -0.1390
16874TIP3    H172113   3.733   2.426   0.070  0.0514  0.5780 -0.1601
16874TIP3    H272114   3.830   2.367  -0.029 -0.1973  0.2894 -0.2316
16875TIP3   OH272115   4.566   2.593  10.838  0.5770  0.8703  0.5057
16875TIP3    H172116   4.551   2.668  10.781  2.5484  0.7832 -0.1671
16875TIP3    H272117   4.531   2.519  10.790  1.7561  0.8730 -0.3922
16876TIP3   OH272118   5.439   2.074   3.145  0.2386 -0.7525  0.1907
16876TIP3    H172119   5.497   2.030   3.207 -0.2216 -0.3841  0.8842
16876TIP3    H272120   5.458   2.167   3.157  1.9045 -0.7693 -1.9475
16877TIP3   OH272121   3.316   3.614  15.036 -0.2366  0.1547  0.1716
16877TIP3    H172122   3.384   3.595  15.102 -1.9679 -1.1998  1.6221
16877TIP3    H272123   3.256   3.673  15.080 -0.3607  0.8193 -0.8805
16878TIP3   OH272124   1.349   1.799   3.912 -0.0091  0.1927 -0.2087
16878TIP3    H172125   1.324   1.847   3.991 -0.8238 -0.1546 -0.2517
16878TIP3    H272126   1.268   1.756   3.883  0.3543  0.0659 -1.0539
16879TIP3   OH272127   0.667   1.199  14.482  0.5798  0.1241  0.3939
16879TIP3    H172128   0.631   1.273  14.434  1.7928  0.2906 -0.2821
16879TIP3    H272129   0.594   1.138  14.492 -0.1256  0.8953 -0.0670
16880TIP3   OH272130   0.346   5.916  13.290 -0.1276 -0.3606 -0.0767
16880TIP3    H172131   0.386   5.840  13.332 -0.0475 -0.5178 -0.4343
16880TIP3    H272132   0.409   5.943  13.223  0.1965  0.4884  0.5559
16881TIP3   OH272133   1.783   3.531   4.155 -0.3218  0.1999 -0.1747
16881TIP3    H172134   1.815   3.574   4.234  0.9085 -1.7150  0.3999
16881TIP3    H272135   1.724   3.595   4.116 -0.0540  1.6379  1.6733
16882TIP3   OH272136   6.571   4.302   0.956  0.5425  0.1353 -0.2768
16882TIP3    H172137   6.538   4.232   1.012  1.2215 -0.4755 -0.6415
16882TIP3    H272138   6.600   4.258   0.877 -1.3441  1.1110 -1.5374
16883TIP3   OH272139   0.689   6.423   4.137  0.0954 -0.3621 -0.7209
16883TIP3    H172140   0.744   6.466   4.072 -1.8999  1.3624 -1.3553
16883TIP3    H272141   0.731   6.442   4.221  1.6567 -0.9936 -1.3364
16884TIP3   OH272142   0.181   2.531  12.748 -0.3105 -0.0594  0.3868
16884TIP3    H172143   0.154   2.440  12.735  1.5944 -0.6525  0.3188
16884TIP3    H272144   0.227   2.554  12.667  0.8258  0.3253  1.1236
16885TIP3   OH272145   0.408   0.554  15.980  0.1520 -0.1864  0.0877
16885TIP3    H172146   0.405   0.531  16.073 -0.0964 -0.9607 -0.1080
16885TIP3    H272147   0.498   0.538  15.953  0.1141 -0.3978  0.0873
16886TIP3   OH272148   4.799   1.184  16.562  0.2820 -0.2035 -0.5047
16886TIP3    H172149   4.874   1.241  16.578  0.4731 -0.2420 -1.2374
16886TIP3    H272150   4.729   1.221  16.616  0.7494 -0.0128 -0.0261
16887TIP3   OH272151   0.523   0.334   3.664  0.3294  0.1470  0.4628
16887TIP3    H172152   0.488   0.385   3.737  0.8997  0.1570  0.7333
16887TIP3    H272153   0.555   0.400   3.602 -1.6043  0.1761 -0.5336
16888TIP3   OH272154   4.431   0.594   2.336  0.4629  0.0140  0.2008
16888TIP3    H172155   4.516   0.550   2.344  0.7959  0.2860 -1.4724
16888TIP3    H272156   4.450   0.686   2.356  0.3197 -0.1389  1.0277
16889TIP3   OH272157   5.145   5.927   4.580  0.1457 -0.2473 -0.2485
16889TIP3    H172158   5.141   6.018   4.610  0.0696 -0.3141 -0.0551
16889TIP3    H272159   5.078   5.922   4.511 -0.0740 -0.2398 -0.0363
16890TIP3   OH272160   2.402   4.580  14.499  0.0215 -0.3468 -0.1402
16890TIP3    H172161   2.485   4.614  14.466  0.6123 -1.9059 -0.3119
16890TIP3    H272162   2.339   4.596  14.428  0.1710  0.8348 -0.0091
16891TIP3   OH272163   1.209   6.809  13.781  0.1756 -0.2510  0.4251
16891TIP3    H172164   1.178   6.898  13.798  0.4011  0.4629 -2.4964
16891TIP3    H272165   1.274   6.792  13.849  1.0081  2.3090  0.3039
16892TIP3   OH272166   0.255   1.201   1.772 -0.0240 -0.4971 -0.1480
16892TIP3    H172167   0.333   1.255   1.761  0.7711 -1.7750 -0.8285
16892TIP3    H272168   0.277   1.139   1.842 -0.9683  0.1035  0.6975
16893TIP3   OH272169   4.250   5.672   4.028  0.3398 -0.2608  0.1654
16893TIP3    H172170   4.238   5.593   3.975 -1.5526 -0.0906  0.3084
16893TIP3    H272171   4.333   5.707   3.999  2.0627 -3.2075  1.2915
16894TIP3   OH272172   4.352   4.385  11.571  0.4004 -0.2661  0.1943
16894TIP3    H172173   4.308   4.336  11.641  0.6309 -1.9422 -0.8005
16894TIP3    H272174   4.445   4.362  11.580  0.6089  0.5328  0.1339
16895TIP3   OH272175   2.077   0.247  10.332  0.1621  0.1244  0.1021
16895TIP3    H172176   2.101   0.317  10.393  1.5590 -0.6318  0.4407
16895TIP3    H272177   2.033   0.292  10.260  1.5665  1.4369  0.0291
16896TIP3   OH272178   5.200   4.758   5.955 -0.8372  0.0297  0.2831
16896TIP3    H172179   5.289   4.765   5.923 -0.7387  0.5903  0.6701
16896TIP3    H272180   5.198   4.676   6.004 -0.2833  0.4466  1.0256
16897TIP3   OH272181   4.557   5.321  15.752  0.0290  0.5747  0.1678
16897TIP3    H172182   4.536   5.403  15.706 -0.2552  1.3924  1.7238
16897TIP3    H272183   4.520   5.333  15.839 -0.9528 -1.6566  0.0841
16898TIP3   OH272184   4.602   6.633   1.786 -0.1184  0.2714  0.1145
16898TIP3    H172185   4.639   6.721   1.785  0.9706 -0.1337  1.6685
16898TIP3    H272186   4.565   6.624   1.874 -0.7069 -0.6205 -0.2232
16899TIP3   OH272187   4.921   3.643   5.965  0.1947  0.1947 -0.2937
16899TIP3    H172188   4.904   3.692   5.885  1.5075  2.1503  0.5793
16899TIP3    H272189   4.843   3.656   6.019  0.4892  1.2574 -0.1152
16900TIP3   OH272190   3.023   4.872   0.872 -0.2465 -0.2737  0.3142
16900TIP3    H172191   3.090   4.843   0.811  2.0861  0.4876  2.4117
16900TIP3    H272192   3.009   4.965   0.851 -1.2188 -0.6173 -0.6050
16901TIP3   OH272193   5.735   3.913  15.531 -0.3919  0.0179 -0.1327
16901TIP3    H172194   5.811   3.860  15.553 -0.7999 -0.6288 -0.2580
16901TIP3    H272195   5.689   3.862  15.464 -1.4430 -0.0557  0.6318
16902TIP3   OH272196   2.554   5.925   1.631 -0.6816  0.0509  0.1141
16902TIP3    H172197   2.605   5.843   1.638 -1.8549 -1.0685 -3.4442
16902TIP3    H272198   2.464   5.896   1.616 -1.2411  2.0094 -0.4276
16903TIP3   OH272199   2.187   0.095   4.557 -0.0731 -0.4198  0.4749
16903TIP3    H172200   2.273   0.057   4.574  0.2142 -0.5789 -1.2123
16903TIP3    H272201   2.127   0.021   4.566  0.2048 -0.7550 -0.3360
16904TIP3   OH272202   0.871   5.551  16.368 -0.4125 -0.4068 -0.2589
16904TIP3    H172203   0.867   5.525  16.460 -0.1293 -1.1939 -0.4636
16904TIP3    H272204   0.867   5.647  16.370 -0.3578 -0.4177  0.5779
16905TIP3   OH272205   2.571   3.919   4.931  0.2582 -0.2143  0.2994
16905TIP3    H172206   2.486   3.876   4.930  0.0271  0.2304 -2.1629
16905TIP3    H272207   2.553   4.009   4.959 -0.0118 -0.2335  0.1783
16906TIP3   OH272208   0.895   6.056  12.431 -0.0267  0.0183  0.2446
16906TIP3    H172209   0.854   6.142  12.415 -0.7153 -0.3570 -0.0296
16906TIP3    H272210   0.855   5.998  12.367  0.8922 -0.3820  0.0260
16907TIP3   OH272211   1.134   3.793   0.754 -0.0554 -0.5445  0.2971
16907TIP3    H172212   1.115   3.761   0.843 -1.1897 -2.3746 -0.5880
16907TIP3    H272213   1.107   3.722   0.696 -0.2123  1.0017 -1.5838
16908TIP3   OH272214   5.381   4.136   3.382 -0.0863  0.3862 -0.0526
16908TIP3    H172215   5.417   4.047   3.381 -0.1752  0.3275  0.9920
16908TIP3    H272216   5.300   4.128   3.433  0.7142  1.3612  1.3970
16909TIP3   OH272217   5.515   1.100   0.331 -0.6656  0.5063  0.1759
16909TIP3    H172218   5.538   1.069   0.418 -3.2897 -0.5598  0.5449
16909TIP3    H272219   5.584   1.065   0.274 -1.1730 -2.3968  1.2344
16910TIP3   OH272220   5.732   3.825  11.957  0.0814  0.2166 -0.3388
16910TIP3    H172221   5.741   3.920  11.964 -2.1426  0.4765 -0.6825
16910TIP3    H272222   5.810   3.791  12.002  0.6997  2.1789  0.1527
16911TIP3   OH272223   4.102   4.180   5.917  0.3605  0.2113  0.2367
16911TIP3    H172224   4.085   4.149   6.006  0.4939 -0.8532 -0.1087
16911TIP3    H272225   4.166   4.250   5.928  0.4415  0.0240  0.9674
16912TIP3   OH272226   5.772   0.769   1.601 -0.1888  0.0773 -0.3019
16912TIP3    H172227   5.715   0.693   1.589 -0.7525  0.4543 -0.0264
16912TIP3    H272228   5.854   0.744   1.559  0.3440 -1.5352  1.5903
16913TIP3   OH272229   4.029   4.791   3.670  0.2491 -0.1119 -1.0321
16913TIP3    H172230   4.091   4.754   3.607  1.0125  0.7032 -0.7866
16913TIP3    H272231   3.943   4.761   3.641  0.6581 -0.3038 -2.0685
16914TIP3   OH272232   1.142   6.798   0.455 -0.0212 -0.0645  0.2497
16914TIP3    H172233   1.182   6.880   0.428 -0.9065  0.4617  0.5234
16914TIP3    H272234   1.147   6.742   0.377 -0.4796  0.6551 -0.2990
16915TIP3   OH272235   2.998   3.106   4.740 -0.0364 -0.1437 -0.6064
16915TIP3    H172236   2.981   3.114   4.646  0.4408  1.0023 -0.5987
16915TIP3    H272237   2.936   3.040   4.770  0.3703 -1.1384 -1.8800
16916TIP3   OH272238   1.538   0.817   1.154  0.0609 -0.4220 -0.7785
16916TIP3    H172239   1.563   0.902   1.117 -2.8277 -0.2947 -2.6438
16916TIP3    H272240   1.509   0.837   1.243  0.0070  0.4637 -0.9898
16917TIP3   OH272241   3.534   3.219   5.853  0.5839 -0.0667  0.1897
16917TIP3    H172242   3.530   3.203   5.947 -2.5878  0.9428  0.2819
16917TIP3    H272243   3.495   3.141   5.814 -0.6175  0.6612 -0.1083
16918TIP3   OH272244   1.808   4.536   5.933  0.2358  0.1276  0.2667
16918TIP3    H172245   1.856   4.461   5.899 -1.4664 -1.3274  0.9998
16918TIP3    H272246   1.745   4.499   5.996 -0.8511  2.1174  0.4182
16919TIP3   OH272247   1.058   4.339  16.184 -0.6897 -0.0874 -0.1251
16919TIP3    H172248   1.032   4.305  16.269  1.5534 -0.4344  0.4507
16919TIP3    H272249   1.021   4.276  16.121 -0.1366 -1.2836  0.7262
16920TIP3   OH272250   4.104   6.647   6.071 -0.3569  0.2637 -0.0143
16920TIP3    H172251   4.079   6.737   6.090 -0.2896 -0.2097  2.4363
16920TIP3    H272252   4.044   6.594   6.124 -1.3541 -1.2058 -2.5082
16921TIP3   OH272253   3.440   5.336  12.151  0.5883  0.0350  0.7661
16921TIP3    H172254   3.446   5.241  12.142 -0.2300 -0.0351  0.9226
16921TIP3    H272255   3.525   5.368  12.120  1.1522 -0.7884  1.4374
16922TIP3   OH272256   3.504   5.279   2.360 -0.0068 -0.1549 -0.2799
16922TIP3    H172257   3.567   5.336   2.316 -1.3083  2.2892  0.9427
16922TIP3    H272258   3.556   5.234   2.427  0.4622  1.9417  0.8136
16923TIP3   OH272259   5.620   4.782  13.131 -0.0444 -0.5548  0.0865
16923TIP3    H172260   5.700   4.816  13.170  0.7267 -0.1260 -1.7856
16923TIP3    H272261   5.587   4.719  13.194  0.8911  0.4565  1.6146
16924TIP3   OH272262   2.629   4.203  11.442 -0.4893 -0.1240 -0.2054
16924TIP3    H172263   2.578   4.155  11.506  0.7269 -0.3765  0.5858
16924TIP3    H272264   2.665   4.136  11.384 -0.5346  0.0000 -0.3778
16925TIP3   OH272265   3.969   4.963   0.224 -0.5099 -0.3560  0.6005
16925TIP3    H172266   3.952   4.885   0.171 -1.0039  1.0816 -1.3822
16925TIP3    H272267   3.966   5.036   0.162  0.3149  1.2164  2.3695
16926TIP3   OH272268   0.517   5.359  13.333  0.9543  0.4731  0.1788
16926TIP3    H172269   0.465   5.321  13.403  1.2670  0.2739  0.3056
16926TIP3    H272270   0.607   5.358  13.366  1.5443 -2.2646 -1.3316
16927TIP3   OH272271   0.482   3.063   4.230  0.4976  0.4836  0.6481
16927TIP3    H172272   0.459   3.079   4.322  0.9625 -0.5029  0.9396
16927TIP3    H272273   0.401   3.080   4.182  0.2427  0.9790  1.2398
16928TIP3   OH272274   6.382   1.884   0.822 -0.1188 -0.2284 -0.0105
16928TIP3    H172275   6.357   1.792   0.833 -1.0194  0.1577  1.2113
16928TIP3    H272276   6.468   1.890   0.864  0.3791 -0.7324 -0.9570
16929TIP3   OH272277   6.070   0.494   5.833  0.1470 -0.1138  0.2825
16929TIP3    H172278   5.998   0.440   5.801  1.1145 -0.9948 -0.4165
16929TIP3    H272279   6.106   0.446   5.907  1.0394 -0.4594 -0.3694
16930TIP3   OH272280   3.049   0.651   0.695 -0.0767 -0.4399  0.0951
16930TIP3    H172281   3.029   0.560   0.673  0.2048  0.1072 -2.5475
16930TIP3    H272282   3.017   0.701   0.620  1.5097  1.4530  0.6564
16931TIP3   OH272283   5.232   1.114  13.805  0.4440 -0.3183  0.6851
16931TIP3    H172284   5.251   1.168  13.729  1.9715 -1.6110  0.1310
16931TIP3    H272285   5.219   1.176  13.877  0.6059  0.8290 -0.2790
16932TIP3   OH272286   2.893   2.271  17.150 -0.1434 -0.5370 -0.3730
16932TIP3    H172287   2.928   2.211  17.084  2.5067  0.5508 -0.0401
16932TIP3    H272288   2.926   2.237  17.233 -1.6426 -0.6493  0.1916
16933TIP3   OH272289   0.358   0.546  12.169 -0.3905  0.5912 -0.0843
16933TIP3    H172290   0.444   0.548  12.210 -0.7334  0.5571  0.6465
16933TIP3    H272291   0.361   0.615  12.102  1.1134 -1.2210 -1.9283
16934TIP3   OH272292   1.645   2.223   6.685 -0.4654 -0.0212  0.1460
16934TIP3    H172293   1.708   2.210   6.756 -0.4252 -1.0745 -0.0792
16934TIP3    H272294   1.684   2.292   6.631  0.7544 -1.0226 -0.2722
16935TIP3   OH272295   3.235   6.026   3.707  0.3958 -0.0722 -0.0797
16935TIP3    H172296   3.246   6.087   3.780 -0.1370 -0.3105  0.2067
16935TIP3    H272297   3.163   5.969   3.734 -0.0781  0.0955 -0.9734
16936TIP3   OH272298   6.371   0.312   6.238  0.0469 -0.7394 -0.4868
16936TIP3    H172299   6.447   0.253   6.241  0.7671  0.1488 -1.1923
16936TIP3    H272300   6.296   0.253   6.239  0.7622 -1.7191 -2.0736
16937TIP3   OH272301   5.158   3.940   3.254  0.3193 -0.4351  0.1779
16937TIP3    H172302   5.073   3.914   3.291  0.8478 -0.1481  1.5922
16937TIP3    H272303   5.137   4.015   3.198 -0.1381  0.7447  1.8787
16938TIP3   OH272304   5.553   6.665  14.945 -0.4889  0.5163  0.1043
16938TIP3    H172305   5.571   6.571  14.950 -0.4813  0.5695  1.0918
16938TIP3    H272306   5.514   6.677  14.858  0.2383 -0.2771 -0.3377
16939TIP3   OH272307   5.887   2.110   2.285  0.4016 -0.2669  0.4447
16939TIP3    H172308   5.845   2.141   2.366 -1.0662 -0.7426 -0.1180
16939TIP3    H272309   5.840   2.030   2.263  1.2470 -0.5068 -0.5310
16940TIP3   OH272310   3.190   5.054  15.229 -0.3626 -0.6589 -0.3093
16940TIP3    H172311   3.237   5.011  15.158  1.3436  1.0796 -0.2474
16940TIP3    H272312   3.182   4.986  15.296  1.3492 -1.2168 -0.6447
16941TIP3   OH272313   3.289   2.215   2.320 -0.5264 -0.0666 -0.0566
16941TIP3    H172314   3.347   2.141   2.304  1.4709  0.9771  2.1621
16941TIP3    H272315   3.305   2.275   2.247 -0.2683 -0.6428 -0.4766
16942TIP3   OH272316   3.018   1.617  12.345  0.3110  0.2423 -0.1696
16942TIP3    H172317   2.959   1.548  12.375 -0.0699 -1.0047 -3.5037
16942TIP3    H272318   3.104   1.576  12.341  0.6725  0.8955  0.8991
16943TIP3   OH272319   6.814   2.045   0.939 -0.0793  0.1086  0.0381
16943TIP3    H172320   6.891   2.026   0.994 -1.3752 -0.6784  1.6096
16943TIP3    H272321   6.776   2.124   0.978  0.3240  0.9068 -1.1720
16944TIP3   OH272322   2.433   3.830  16.103 -0.2994 -0.1542 -0.2500
16944TIP3    H172323   2.508   3.850  16.159 -1.2737  0.1288  0.9725
16944TIP3    H272324   2.357   3.848  16.158 -1.2692 -0.0266 -1.6158
16945TIP3   OH272325   0.264   2.936   4.522 -0.2368  0.2859 -0.4155
16945TIP3    H172326   0.345   2.892   4.547  0.2540  0.3930 -1.7884
16945TIP3    H272327   0.211   2.935   4.601  0.5082 -1.1340  0.0838
16946TIP3   OH272328   2.747   2.616   2.849 -0.2024 -0.0279  0.2912
16946TIP3    H172329   2.759   2.526   2.880  1.9237  0.4971  1.0660
16946TIP3    H272330   2.774   2.612   2.757 -0.3878 -0.2535  0.2463
16947TIP3   OH272331   0.395   2.309   3.550 -0.5733 -0.4030 -0.2782
16947TIP3    H172332   0.333   2.290   3.620 -0.9955  2.1564  0.1108
16947TIP3    H272333   0.342   2.314   3.471 -0.9457  1.8626  0.0663
16948TIP3   OH272334   5.969   3.746   0.931  0.0556 -0.4131 -0.7135
16948TIP3    H172335   5.896   3.725   0.990  1.3275 -0.2355  0.9207
16948TIP3    H272336   5.967   3.841   0.923 -0.9840 -0.5339 -2.0960
16949TIP3   OH272337   5.175   1.314   5.231  0.3729 -0.3906  0.5954
16949TIP3    H172338   5.158   1.345   5.320 -2.2169 -0.5171  0.1813
16949TIP3    H272339   5.253   1.361   5.204  0.2188  0.9215  2.3335
16950TIP3   OH272340   6.334   2.321  11.138 -0.6915  0.4305 -0.3863
16950TIP3    H172341   6.240   2.327  11.122 -0.2907  2.0275 -2.4308
16950TIP3    H272342   6.351   2.385  11.206 -1.0927  0.0917  0.0334
16951TIP3   OH272343   0.950   0.747  12.128  0.0379 -0.0755 -0.0215
16951TIP3    H172344   0.907   0.735  12.043 -1.9604 -5.2160  1.5311
16951TIP3    H272345   1.042   0.731  12.111 -0.3106 -0.8284 -1.2717
16952TIP3   OH272346   5.736   2.838   5.148 -0.1868  0.1235  0.4255
16952TIP3    H172347   5.737   2.878   5.061  1.6615  1.1117  0.8847
16952TIP3    H272348   5.725   2.911   5.208 -2.0271 -0.6100  1.0388
16953TIP3   OH272349   0.908   2.376  14.218  0.5643 -0.1563 -0.3484
16953TIP3    H172350   0.870   2.347  14.135  1.9634 -0.4252 -0.9122
16953TIP3    H272351   0.834   2.381  14.278 -0.4988  0.2369 -1.6645
16954TIP3   OH272352   5.363   6.592  16.377  0.1779  0.8886  0.2696
16954TIP3    H172353   5.320   6.618  16.296  0.2620  1.7694  0.4954
16954TIP3    H272354   5.304   6.622  16.446 -1.2405 -2.3032  0.5058
16955TIP3   OH272355   1.048   1.130   3.297  0.5532 -0.0466 -0.0236
16955TIP3    H172356   1.035   1.126   3.392 -0.8507 -0.5187 -0.2313
16955TIP3    H272357   0.985   1.194   3.266  2.2030  1.4264 -0.4521
16956TIP3   OH272358   0.818   1.476  13.031  0.3507 -0.4607 -0.4336
16956TIP3    H172359   0.888   1.453  12.970  0.3551 -1.5256 -0.0548
16956TIP3    H272360   0.750   1.516  12.976  0.2497 -1.6235 -1.1947
16957TIP3   OH272361   3.503   6.583   2.805 -0.3877  0.3492  0.2254
16957TIP3    H172362   3.479   6.508   2.750 -2.9927  1.1246  0.2301
16957TIP3    H272363   3.453   6.571   2.886 -0.6458  1.9674  0.3239
16958TIP3   OH272364   3.813   4.177  16.862  0.3668 -0.3145  0.0442
16958TIP3    H172365   3.840   4.143  16.946 -0.5496 -0.2927  0.3590
16958TIP3    H272366   3.850   4.117  16.797  0.0427 -1.0225  0.5180
16959TIP3   OH272367   4.404   1.493  11.682  0.2281 -0.6210  0.0710
16959TIP3    H172368   4.492   1.518  11.711  0.8578  0.3886 -2.5998
16959TIP3    H272369   4.409   1.492  11.587 -2.5772 -0.8933 -0.1176
16960TIP3   OH272370   0.159   3.621  14.970 -0.4954 -0.5396 -0.1634
16960TIP3    H172371   0.117   3.648  14.889  0.8501  0.6233 -0.5005
16960TIP3    H272372   0.252   3.612  14.947 -0.1267 -0.3562  1.2011
16961TIP3   OH272373   6.204   2.114  16.098 -0.4711  0.2968  0.5008
16961TIP3    H172374   6.190   2.078  16.010 -1.1193  0.4589  0.5359
16961TIP3    H272375   6.290   2.080  16.124 -1.3477 -1.7461  0.8087
16962TIP3   OH272376   0.504   0.033  15.510 -0.0899 -0.2303  0.2094
16962TIP3    H172377   0.431  -0.011  15.554 -0.2002 -1.8615 -1.5582
16962TIP3    H272378   0.568  -0.037  15.495  0.6726  0.6567 -0.6779
16963TIP3   OH272379   0.897   3.821  15.343 -1.2029  0.7651 -0.2681
16963TIP3    H172380   0.856   3.830  15.429 -3.1750  1.9262 -1.2958
16963TIP3    H272381   0.991   3.824  15.361 -1.5497 -0.2350  1.9589
16964TIP3   OH272382   5.628   6.735   0.898 -0.3909  0.2837 -0.1377
16964TIP3    H172383   5.597   6.650   0.928 -0.6083  0.4437  0.1081
16964TIP3    H272384   5.700   6.716   0.839  0.0502 -0.0417  0.5014
16965TIP3   OH272385   3.805   6.263  11.305  0.1366  0.0598  0.2913
16965TIP3    H172386   3.767   6.313  11.233 -1.2971 -0.0555  0.9523
16965TIP3    H272387   3.807   6.324  11.379  1.9953  0.3115  0.0683
16966TIP3   OH272388   4.995   1.364   4.416 -0.0148  0.5568 -0.5323
16966TIP3    H172389   4.981   1.342   4.324  0.5765 -3.2085  0.1581
16966TIP3    H272390   4.910   1.394   4.447 -0.5972  0.3799 -1.9369
16967TIP3   OH272391   2.018   0.887   1.786 -0.1459  0.1310  0.0053
16967TIP3    H172392   1.999   0.929   1.702  1.4601 -0.1472 -0.5231
16967TIP3    H272393   2.086   0.941   1.825 -1.4686  0.7236  1.5227
16968TIP3   OH272394   0.863   0.235  12.808 -0.2356 -0.2227  0.4254
16968TIP3    H172395   0.917   0.307  12.777  0.7250 -1.4783 -0.9029
16968TIP3    H272396   0.786   0.277  12.845 -0.2623  1.4325 -1.4344
16969TIP3   OH272397   5.587   2.079  14.532 -0.4691  0.3199  0.0239
16969TIP3    H172398   5.565   1.999  14.579 -0.9838  0.1565 -0.4872
16969TIP3    H272399   5.552   2.066  14.444  1.4938  0.1622 -0.7458
16970TIP3   OH272400   3.396   2.466   2.798  0.0021  0.3560 -0.1531
16970TIP3    H172401   3.482   2.477   2.838  0.0949 -0.1976 -0.1976
16970TIP3    H272402   3.409   2.399   2.731 -0.7286 -0.6159  0.6601
16971TIP3   OH272403   1.930   0.136   3.392 -0.3045  0.3408 -0.1155
16971TIP3    H172404   2.015   0.108   3.357 -0.3277 -0.1895  0.2551
16971TIP3    H272405   1.897   0.199   3.327  0.9505  1.5320  0.3922
16972TIP3   OH272406   4.268   5.551  12.425 -0.3894  0.1665 -0.2579
16972TIP3    H172407   4.213   5.625  12.397  0.0236  0.3337 -0.6396
16972TIP3    H272408   4.303   5.578  12.510 -0.5143  0.2654 -0.2368
16973TIP3   OH272409   6.678   1.520  11.281 -0.0231  0.9651  0.1056
16973TIP3    H172410   6.703   1.450  11.342  1.1439  2.6743  1.6613
16973TIP3    H272411   6.597   1.556  11.318 -0.9722  0.0507 -1.0451
16974TIP3   OH272412   4.490   5.488   0.041 -0.2442 -0.1633  0.4262
16974TIP3    H172413   4.423   5.433   0.084  0.3980 -1.7252 -0.5127
16974TIP3    H272414   4.504   5.446  -0.044  2.1699 -0.0416  0.7397
16975TIP3   OH272415   3.638   1.745  11.551  0.0248 -0.2209 -0.0023
16975TIP3    H172416   3.605   1.800  11.622 -0.5082 -1.4080  0.6909
16975TIP3    H272417   3.591   1.776  11.474 -0.4633  0.1272  0.4247
16976TIP3   OH272418   1.724   6.316   1.770  0.0700  0.2226 -0.2250
16976TIP3    H172419   1.663   6.385   1.745  0.0039  0.6537  1.1119
16976TIP3    H272420   1.696   6.289   1.858  0.6105 -0.9176 -0.3855
16977TIP3   OH272421   1.929   1.740   1.552  0.1809  0.1893  0.0331
16977TIP3    H172422   1.897   1.815   1.503  0.8095 -0.8311 -1.9896
16977TIP3    H272423   1.865   1.728   1.622 -1.2942  1.0315 -1.1404
16978TIP3   OH272424   4.685   3.488   2.114 -0.2026  0.0882  0.8946
16978TIP3    H172425   4.686   3.560   2.052 -0.4702 -1.2374 -0.6864
16978TIP3    H272426   4.775   3.482   2.146  0.0738  0.3821  0.1669
16979TIP3   OH272427   4.744   6.660  12.444 -0.1251 -0.2461 -0.0040
16979TIP3    H172428   4.744   6.567  12.423 -0.6850 -0.0181 -1.0634
16979TIP3    H272429   4.770   6.704  12.363 -1.3416  0.5967  0.0382
16980TIP3   OH272430   5.539   5.460  13.625 -0.1998 -0.0483  0.4160
16980TIP3    H172431   5.488   5.540  13.619 -0.6082 -0.2750  0.7865
16980TIP3    H272432   5.625   5.488  13.657 -0.7657  0.0855  1.8613
16981TIP3   OH272433   3.774   6.335   4.537 -0.4232 -0.6424  0.0656
16981TIP3    H172434   3.729   6.372   4.462 -0.6635 -1.2443 -0.0956
16981TIP3    H272435   3.858   6.381   4.541 -0.7167 -0.0922 -0.1251
16982TIP3   OH272436   2.425   3.337  12.979  0.3253 -0.2351 -0.2987
16982TIP3    H172437   2.334   3.312  12.967  0.3040 -1.7018  2.4055
16982TIP3    H272438   2.463   3.265  13.029  1.8985  2.2640  2.2622
16983TIP3   OH272439   4.468   3.567   3.185  0.0689  0.6743  0.2778
16983TIP3    H172440   4.411   3.609   3.249 -1.8310  0.8559 -1.4722
16983TIP3    H272441   4.545   3.540   3.235 -1.3764  0.7587  2.6123
16984TIP3   OH272442   0.133   0.106   0.058 -0.2612  0.4696  0.3094
16984TIP3    H172443   0.069   0.173   0.031  1.0462  1.8609  0.6262
16984TIP3    H272444   0.194   0.153   0.114  0.3002 -1.1603  1.0813
16985TIP3   OH272445   3.508   1.640  13.888 -0.3928 -0.3821  0.2402
16985TIP3    H172446   3.472   1.709  13.832  1.0717  0.9039  0.8263
16985TIP3    H272447   3.445   1.632  13.960  0.2660  1.6342  1.1054
16986TIP3   OH272448   2.199   5.994  14.432  0.3220 -0.7251 -0.3730
16986TIP3    H172449   2.244   6.078  14.429 -0.4055 -0.2739  0.7690
16986TIP3    H272450   2.177   5.975  14.341 -0.0068  0.5962 -0.5818
16987TIP3   OH272451   5.064   2.246   3.590  0.0187 -0.0670  0.0996
16987TIP3    H172452   5.086   2.333   3.559  0.7417 -0.1436  0.3885
16987TIP3    H272453   5.056   2.255   3.685  0.2416 -0.3416  0.1473
16988TIP3   OH272454   4.973   2.126  15.716  0.1693 -0.0419 -0.2699
16988TIP3    H172455   5.006   2.165  15.797  2.3369 -0.2576 -1.0113
16988TIP3    H272456   4.965   2.032  15.735 -0.7250  0.1125  0.1308
16989TIP3   OH272457   0.476   3.739  16.812 -0.8425 -0.0556  0.7349
16989TIP3    H172458   0.503   3.809  16.752 -0.2175 -0.7664  0.1685
16989TIP3    H272459   0.381   3.749  16.819 -1.0744 -0.5575 -1.1710
16990TIP3   OH272460   2.011   0.552   2.215 -0.5165 -0.6278  0.5452
16990TIP3    H172461   2.005   0.512   2.302  0.8974 -2.6478 -0.2623
16990TIP3    H272462   2.043   0.482   2.158  2.9948  1.8853 -0.7353
16991TIP3   OH272463   5.677   0.175   1.505  0.0739 -0.0396 -0.2565
16991TIP3    H172464   5.673   0.166   1.410  3.1845  0.8016 -0.5274
16991TIP3    H272465   5.740   0.108   1.533  0.0416  0.4693  1.0706
16992TIP3   OH272466   6.268   3.579  15.287 -0.2612 -0.2326 -0.6574
16992TIP3    H172467   6.303   3.547  15.203  1.6618  1.4629 -0.5593
16992TIP3    H272468   6.284   3.507  15.348  1.4988 -0.1928 -1.0249
16993TIP3   OH272469   6.278   2.208  13.713  0.0452  0.2197  0.5537
16993TIP3    H172470   6.297   2.186  13.804 -0.1536 -1.1442  0.2775
16993TIP3    H272471   6.309   2.133  13.663 -1.1721  0.3187 -0.3719
16994TIP3   OH272472   0.695   4.514  14.898  0.2159 -0.0728  0.1005
16994TIP3    H172473   0.643   4.459  14.838  1.4579  1.4609 -2.4468
16994TIP3    H272474   0.645   4.595  14.904 -0.2499 -0.4568  1.7553
16995TIP3   OH272475   5.068   3.285  14.289  0.0157 -0.1285 -0.0702
16995TIP3    H172476   5.002   3.225  14.254 -0.6272  1.1538 -1.1106
16995TIP3    H272477   5.142   3.229  14.313 -0.7279 -1.3684 -0.6449
16996TIP3   OH272478   1.879   4.071  12.138  0.9664  0.3398  0.1393
16996TIP3    H172479   1.819   4.132  12.094  0.8017 -0.2544 -0.4745
16996TIP3    H272480   1.894   4.002  12.073  1.3293 -0.1578  0.7482
16997TIP3   OH272481   5.280   0.271   1.849 -0.3831  0.5645  0.0786
16997TIP3    H172482   5.185   0.259   1.859 -0.2877 -0.8285 -0.4914
16997TIP3    H272483   5.293   0.281   1.754  0.2960 -1.9372 -0.1265
16998TIP3   OH272484   3.896   0.363  15.544 -0.1103  0.1168  0.1708
16998TIP3    H172485   3.840   0.325  15.612 -0.3497  0.9831  0.4677
16998TIP3    H272486   3.963   0.412  15.592 -0.9908  1.7417 -0.2011
16999TIP3   OH272487   5.187   0.252  11.289  0.8448 -0.2605  0.6303
16999TIP3    H172488   5.228   0.324  11.241  0.7273 -1.6868 -1.6951
16999TIP3    H272489   5.211   0.268  11.381  0.2196  3.1113  0.2892
17000TIP3   OH272490   3.593   3.797  15.312  0.4322 -0.2044 -0.5678
17000TIP3    H172491   3.688   3.807  15.316  0.3034  0.5354  1.0796
17000TIP3    H272492   3.577   3.753  15.229  2.2156 -0.3358 -0.8613
17001TIP3   OH272493   5.292   1.875  13.716 -0.0076  0.4704 -0.3843
17001TIP3    H172494   5.321   1.835  13.634  1.2532  1.3098 -0.3648
17001TIP3    H272495   5.206   1.838  13.731  0.8348 -1.7208 -0.7297
17002TIP3   OH272496   3.613   4.594  12.452 -0.0643  0.1741 -0.4002
17002TIP3    H172497   3.601   4.535  12.378 -1.4509 -2.1311  1.6053
17002TIP3    H272498   3.705   4.621  12.447 -0.0878 -0.0441 -2.8359
17003TIP3   OH272499   1.785   5.609  16.804 -0.4460 -0.0037 -0.2393
17003TIP3    H172500   1.838   5.612  16.724  0.0618 -0.3121  0.0890
17003TIP3    H272501   1.759   5.517  16.812  0.1035 -0.1056  0.3505
17004TIP3   OH272502   6.144   0.380   0.570  0.2553 -0.1803  0.1918
17004TIP3    H172503   6.149   0.368   0.665 -0.3216  3.1144  0.7005
17004TIP3    H272504   6.235   0.389   0.542  0.3111  1.3162  0.8166
17005TIP3   OH272505   5.456   6.400  14.788 -0.4940 -0.0857  0.3752
17005TIP3    H172506   5.438   6.474  14.729  0.4233  0.4670  0.7827
17005TIP3    H272507   5.373   6.384  14.833 -0.8486  0.3241 -0.1296
17006TIP3   OH272508   2.725   5.731  13.705  0.3286 -0.6208  0.3720
17006TIP3    H172509   2.805   5.771  13.741  1.2045 -1.5241 -0.5157
17006TIP3    H272510   2.657   5.751  13.769  0.7869  2.1104  0.0353
17007TIP3   OH272511   2.853   0.353   0.104  0.4015 -0.2190 -0.9673
17007TIP3    H172512   2.783   0.383   0.046 -0.7934 -0.4410  0.3173
17007TIP3    H272513   2.904   0.432   0.123  1.3218 -0.3017 -2.9646
17008TIP3   OH272514   2.993   5.565  16.603 -0.2453  0.0665 -0.0853
17008TIP3    H172515   3.030   5.645  16.639 -0.9059  0.0198  0.7044
17008TIP3    H272516   3.069   5.513  16.575  0.1417  1.7983 -2.4342
17009TIP3   OH272517   1.373   3.279  14.099 -0.3408 -0.5387 -0.0517
17009TIP3    H172518   1.390   3.277  14.193 -0.6201 -1.6568 -0.0211
17009TIP3    H272519   1.453   3.317  14.062  0.7156 -2.2152  0.4334
17010TIP3   OH272520   4.129   0.783  15.797 -0.1475 -0.6110 -0.4206
17010TIP3    H172521   4.217   0.820  15.787  0.4504 -2.0905 -0.7277
17010TIP3    H272522   4.142   0.689  15.794 -1.6528 -0.8592  0.4184
17011TIP3   OH272523   6.416   0.387  16.317 -0.0537  0.0643 -0.2483
17011TIP3    H172524   6.335   0.393  16.267  0.2884  1.0933 -0.6817
17011TIP3    H272525   6.481   0.357  16.253 -0.0692 -0.7268  0.0901
17012TIP3   OH272526   5.300   2.487  17.133  0.1416  0.3856  0.0477
17012TIP3    H172527   5.302   2.543  17.211 -1.7745 -0.0349  0.4313
17012TIP3    H272528   5.210   2.456  17.129 -0.0158  1.1097 -2.8539
17013TIP3   OH272529   0.696   4.645  16.206 -0.4633 -0.4888  0.2002
17013TIP3    H172530   0.717   4.636  16.113  1.6975 -0.1687  0.6106
17013TIP3    H272531   0.659   4.733  16.215 -0.9628 -0.6365 -0.4000
17014TIP3   OH272532   3.578   0.518   5.446  0.3104  0.2761  0.4773
17014TIP3    H172533   3.543   0.432   5.422  2.2826 -0.1049 -1.1551
17014TIP3    H272534   3.672   0.505   5.454  0.9434  2.7708 -2.1299
17015TIP3   OH272535   2.455   4.446   1.211 -0.0483  0.1645  0.8928
17015TIP3    H172536   2.376   4.481   1.170  0.9987  0.1262 -1.2166
17015TIP3    H272537   2.425   4.411   1.295 -2.2388  0.2457  0.1708
17016TIP3   OH272538   5.895   6.145   1.396 -0.3362 -0.2891 -0.1790
17016TIP3    H172539   5.819   6.197   1.423 -0.3600 -1.2147  1.5567
17016TIP3    H272540   5.877   6.057   1.429  0.8214 -0.8663 -1.0492
17017TIP3   OH272541   5.711   5.667   1.724  0.2747  0.8335 -0.3121
17017TIP3    H172542   5.632   5.719   1.705 -0.1414  0.2243 -0.2732
17017TIP3    H272543   5.766   5.726   1.775 -0.6908  0.8800  0.7114
17018TIP3   OH272544   3.124   5.411  15.115  0.0702 -0.4293  0.4486
17018TIP3    H172545   3.098   5.359  15.191 -1.8179  1.2540  1.0001
17018TIP3    H272546   3.208   5.374  15.088  0.6478 -1.2218  3.1837
17019TIP3   OH272547   3.687   1.205  13.660 -0.0299 -0.1437  0.2310
17019TIP3    H172548   3.637   1.139  13.708  3.0820 -1.6352  1.5580
17019TIP3    H272549   3.721   1.263  13.729 -2.6362  2.9124 -0.8925
17020TIP3   OH272550   6.304   2.759   0.453  0.0686  0.2024 -0.8171
17020TIP3    H172551   6.225   2.713   0.484  0.2350  0.9927  0.8023
17020TIP3    H272552   6.280   2.851   0.454  0.8606  0.4092 -0.8054
17021TIP3   OH272553   5.482   2.495   5.417  0.2663 -0.0809 -0.0220
17021TIP3    H172554   5.565   2.492   5.368  0.5017  1.5678  0.2355
17021TIP3    H272555   5.499   2.441   5.494  1.1113  0.2248  0.0207
17022TIP3   OH272556   6.725   4.059   5.145  0.1509 -0.2226 -0.7575
17022TIP3    H172557   6.671   4.041   5.223  1.6202 -0.9125  0.1097
17022TIP3    H272558   6.661   4.086   5.079 -1.1753 -0.0598  0.5418
17023TIP3   OH272559   0.720   2.113  17.201 -0.9266 -0.0309 -0.0125
17023TIP3    H172560   0.814   2.113  17.182 -0.7818 -0.4722  0.6966
17023TIP3    H272561   0.699   2.206  17.214 -0.5818  0.0691 -0.1576
17024TIP3   OH272562   3.811   1.065  16.586 -0.5332 -0.2089 -0.3162
17024TIP3    H172563   3.889   1.010  16.585 -0.5339 -0.2240 -2.2482
17024TIP3    H272564   3.751   1.021  16.646  0.2184 -1.2438 -0.3041
17025TIP3   OH272565   5.232   6.713   6.561 -0.4053 -0.0798 -0.3119
17025TIP3    H172566   5.301   6.779   6.565  0.6576 -1.1703 -0.4668
17025TIP3    H272567   5.161   6.756   6.514 -0.0709  1.2634  0.3972
17026TIP3   OH272568   4.341   6.049  15.614 -0.1249  0.5122  0.1421
17026TIP3    H172569   4.368   6.060  15.705  0.8088  1.0326 -0.1877
17026TIP3    H272570   4.252   6.016  15.619 -0.2278  0.9374  1.2488
17027TIP3   OH272571   6.387   2.734   6.338  0.0770 -0.2276 -0.4257
17027TIP3    H172572   6.366   2.816   6.291 -1.9466  0.2424  1.2357
17027TIP3    H272573   6.307   2.714   6.387  1.3110 -2.0668  0.8554
17028TIP3   OH272574   5.361   0.326   3.022 -0.6631 -0.3911 -0.1228
17028TIP3    H172575   5.365   0.351   2.930 -1.4136  2.3583  0.5579
17028TIP3    H272576   5.317   0.240   3.022  2.0503 -1.8570 -2.5123
17029TIP3   OH272577   1.489   2.543   6.084 -0.3785 -0.3303 -0.3786
17029TIP3    H172578   1.428   2.608   6.051  0.9130  1.6519  1.0526
17029TIP3    H272579   1.493   2.558   6.178  0.0600 -2.3901 -0.0259
17030TIP3   OH272580   0.655   4.499   1.988 -0.8790 -0.2118 -0.1498
17030TIP3    H172581   0.710   4.432   2.028 -0.4236 -0.1291 -0.6329
17030TIP3    H272582   0.616   4.456   1.912 -1.6292 -0.3261  0.3006
17031TIP3   OH272583   3.592   3.996   4.227  0.1485 -0.3596 -0.1424
17031TIP3    H172584   3.524   3.931   4.247 -0.2131 -0.6703 -2.2915
17031TIP3    H272585   3.671   3.961   4.269 -0.6437 -0.8252  0.9867
17032TIP3   OH272586   2.042   2.353  16.015 -0.5239 -0.2796  0.6514
17032TIP3    H172587   1.962   2.350  16.068 -1.0214  0.3395 -0.0397
17032TIP3    H272588   2.017   2.309  15.933 -0.1510 -0.1179  0.4495
17033TIP3   OH272589   0.661   3.568  10.826 -0.2306 -0.4614 -0.4079
17033TIP3    H172590   0.732   3.623  10.860 -0.1819 -1.1813  0.6759
17033TIP3    H272591   0.628   3.615  10.750 -1.3191  1.9544  1.4710
17034TIP3   OH272592   2.329   3.711  14.719 -0.0865 -0.3741  0.4695
17034TIP3    H172593   2.314   3.784  14.659 -0.2898 -0.0400  0.9318
17034TIP3    H272594   2.248   3.705  14.770  0.2925 -0.3194  1.0797
17035TIP3   OH272595   4.239   5.374   1.575  0.0092  0.3273  0.0323
17035TIP3    H172596   4.246   5.467   1.554 -0.0367  0.0782 -1.1299
17035TIP3    H272597   4.311   5.357   1.635 -1.3305  1.5974  2.0646
17036TIP3   OH272598   1.080   4.835   3.128  0.2514 -0.4590 -0.6269
17036TIP3    H172599   1.032   4.881   3.197  1.1567 -0.7620  0.2155
17036TIP3    H272600   1.059   4.884   3.048  1.9591  2.0316  0.3830
17037TIP3   OH272601   3.298   2.844  15.092 -0.4837  0.1034  0.2599
17037TIP3    H172602   3.285   2.811  15.003 -0.3197  1.2754 -0.2043
17037TIP3    H272603   3.212   2.876  15.118 -0.8842 -1.6138  1.1031
17038TIP3   OH272604   6.368   2.004   2.050  0.3745 -0.0072  1.2099
17038TIP3    H172605   6.371   1.963   1.964  0.8596  0.6054  0.9315
17038TIP3    H272606   6.276   2.026   2.064  0.1000 -1.1774  1.3647
17039TIP3   OH272607   0.442   1.669  14.438  0.7021 -0.3784 -0.0102
17039TIP3    H172608   0.434   1.764  14.435 -1.0497 -0.4754  0.7058
17039TIP3    H272609   0.504   1.651  14.509  2.8147  0.2808 -1.6561
17040TIP3   OH272610   5.585   4.248   1.167 -0.7821 -0.0360  0.1441
17040TIP3    H172611   5.648   4.309   1.205  0.1346 -0.5990 -0.4419
17040TIP3    H272612   5.619   4.162   1.188  0.0631 -0.3725 -2.3754
17041TIP3   OH272613   6.751   1.600   5.847 -0.0514 -0.2893  0.4227
17041TIP3    H172614   6.728   1.507   5.844  1.7396 -0.7213 -0.7180
17041TIP3    H272615   6.691   1.641   5.785 -1.1866 -0.5880  1.2987
17042TIP3   OH272616   1.827   6.666   4.418  1.3275  0.3474  0.1033
17042TIP3    H172617   1.832   6.657   4.513 -0.2358 -1.3093  0.0624
17042TIP3    H272618   1.821   6.760   4.403  2.7857  0.6946  1.5590
17043TIP3   OH272619   3.273   5.951   6.054 -0.7199 -0.1539 -0.0423
17043TIP3    H172620   3.212   5.982   6.121 -1.7151  1.2029 -1.5508
17043TIP3    H272621   3.354   5.999   6.072  0.2407 -2.5527  2.4638
17044TIP3   OH272622   2.581   2.708   4.275 -0.7441  0.2382  0.0708
17044TIP3    H172623   2.586   2.669   4.187 -0.4081  0.8538 -0.1856
17044TIP3    H272624   2.658   2.675   4.320 -0.8126  0.0779  0.0717
17045TIP3   OH272625   1.556   4.155  17.030  0.2799  0.0575 -0.4880
17045TIP3    H172626   1.577   4.240  16.991  0.6021  0.1330 -0.1498
17045TIP3    H272627   1.463   4.162  17.052  0.2811  0.2895 -0.5499
17046TIP3   OH272628   3.878   4.412   3.484  0.1346  0.2647 -0.7211
17046TIP3    H172629   3.961   4.371   3.507 -0.0402 -0.3910 -1.2747
17046TIP3    H272630   3.899   4.470   3.410  0.3511  1.0724 -0.0370
17047TIP3   OH272631   6.116   0.419   5.038  0.4493  0.4355  0.4039
17047TIP3    H172632   6.145   0.493   4.985  0.0630  0.5416  0.3393
17047TIP3    H272633   6.122   0.451   5.128 -0.7527  0.9125  0.3181
17048TIP3   OH272634   5.299   4.451  15.965 -1.0255  0.3369  0.0565
17048TIP3    H172635   5.329   4.465  15.875 -1.4940  2.5557  0.2067
17048TIP3    H272636   5.364   4.392  16.004 -0.2347  0.2175 -1.4059
17049TIP3   OH272637   3.020   4.390  16.609  0.3167  0.3427 -0.3340
17049TIP3    H172638   2.943   4.401  16.553 -0.5923  0.5198  0.9555
17049TIP3    H272639   2.998   4.317  16.667 -0.1030  2.3355  2.0803
17050TIP3   OH272640   2.111   6.812   6.868  0.1208  0.0898  0.5974
17050TIP3    H172641   2.169   6.766   6.929  0.9528  0.8763  0.4166
17050TIP3    H272642   2.135   6.904   6.878 -2.4935  0.6471  1.9679
17051TIP3   OH272643   6.731   4.168   3.524 -0.2270  0.7309  0.6795
17051TIP3    H172644   6.647   4.142   3.486  0.3487 -2.5811  1.4618
17051TIP3    H272645   6.784   4.194   3.449  0.1622 -3.5696 -0.7191
17052TIP3   OH272646   3.850   1.709   5.017  0.1435  0.1380 -0.3798
17052TIP3    H172647   3.885   1.641   5.074  0.4189 -0.4637 -1.2593
17052TIP3    H272648   3.771   1.739   5.061  0.7211  0.1633  0.6598
17053TIP3   OH272649   1.659   4.025  12.984 -0.1960 -0.5288 -0.0223
17053TIP3    H172650   1.626   4.035  13.074  0.9692 -0.5623  0.4213
17053TIP3    H272651   1.582   4.002  12.933 -1.3783  1.9918  0.5134
17054TIP3   OH272652   5.035   4.722  11.303 -0.5929  0.9318 -0.3893
17054TIP3    H172653   5.083   4.802  11.283 -0.4290  0.6367 -1.2073
17054TIP3    H272654   5.038   4.671  11.222  1.4787 -1.0122  0.8389
17055TIP3   OH272655   6.451   4.258   4.185 -0.3623 -0.1320 -0.6329
17055TIP3    H172656   6.508   4.244   4.260  2.6260 -0.2998 -2.8189
17055TIP3    H272657   6.428   4.351   4.188  1.3943  0.3043 -0.6120
17056TIP3   OH272658   0.290   1.348   2.588 -0.1513 -0.2557 -0.5362
17056TIP3    H172659   0.298   1.408   2.663  1.9576  0.2199 -1.1087
17056TIP3    H272660   0.256   1.267   2.626  3.1085 -0.7880  1.3857
17057TIP3   OH272661   5.570   3.161  15.451 -0.0327  0.0823 -0.0755
17057TIP3    H172662   5.497   3.222  15.454 -0.2752 -0.2029 -0.0917
17057TIP3    H272663   5.648   3.216  15.447 -0.1238  0.4309  2.1658
17058TIP3   OH272664   1.464   5.752  17.218 -0.2126 -0.2590 -0.0185
17058TIP3    H172665   1.474   5.843  17.188  0.0241  0.1199  1.1899
17058TIP3    H272666   1.509   5.749  17.302 -0.8878 -1.3065  0.3203
17059TIP3   OH272667   5.701   6.750   3.493  0.2810 -0.5259  0.0452
17059TIP3    H172668   5.627   6.796   3.532  0.1278  0.2903 -1.1550
17059TIP3    H272669   5.774   6.811   3.502  0.9363 -1.5482  1.7060
17060TIP3   OH272670   6.260   5.785   3.316  0.2436  0.3753  0.1037
17060TIP3    H172671   6.177   5.739   3.331  0.3556  0.5289  1.2182
17060TIP3    H272672   6.289   5.754   3.230 -0.9070  0.2330 -0.2490
17061TIP3   OH272673   1.281   1.274   0.317 -0.2786  0.5018 -0.0339
17061TIP3    H172674   1.200   1.228   0.339 -1.8952  3.0072 -0.4428
17061TIP3    H272675   1.318   1.224   0.245 -1.5534 -0.5941  0.0458
17062TIP3   OH272676   4.828   2.936   3.092 -0.2616  0.7635  0.5805
17062TIP3    H172677   4.778   2.863   3.129  0.5882  0.6297  1.4786
17062TIP3    H272678   4.797   2.943   3.002  2.6506 -3.4690 -0.8919
17063TIP3   OH272679   0.421   6.690   4.725 -0.1452 -0.6650 -0.0756
17063TIP3    H172680   0.467   6.717   4.805  0.1647 -0.2996 -0.3805
17063TIP3    H272681   0.372   6.767   4.698  0.8946 -0.3349 -1.0523
17064TIP3   OH272682   1.094   0.840   2.343 -0.3203  0.2942 -0.2473
17064TIP3    H172683   1.168   0.897   2.322 -0.5426  0.7182  0.1202
17064TIP3    H272684   1.047   0.830   2.260  1.1192 -1.4034 -0.9110
17065TIP3   OH272685   5.556   5.779   0.118  0.0938 -0.1228  0.0406
17065TIP3    H172686   5.649   5.778   0.139  0.3453 -0.2199 -1.0301
17065TIP3    H272687   5.512   5.757   0.200  0.9527  1.0814  0.8486
17066TIP3   OH272688   5.560   4.997  12.239 -0.0497  0.0623  0.2484
17066TIP3    H172689   5.527   4.912  12.269 -2.4493  0.2376 -1.7145
17066TIP3    H272690   5.639   5.012  12.291 -0.4805 -2.6105  1.7661
17067TIP3   OH272691   3.263   3.699   0.729  0.2835  0.0860  0.0508
17067TIP3    H172692   3.331   3.685   0.795 -1.6627 -1.3716  1.8008
17067TIP3    H272693   3.255   3.794   0.722  1.9628  0.2588  0.3716
17068TIP3   OH272694   4.438   5.458   2.881 -0.3819 -0.1342  0.1188
17068TIP3    H172695   4.408   5.397   2.814 -0.1788 -0.3746  0.2445
17068TIP3    H272696   4.510   5.412   2.925 -0.5121  0.0217  0.4973
17069TIP3   OH272697   3.841   3.109  12.351 -0.5697 -0.0508 -0.1224
17069TIP3    H172698   3.818   3.090  12.260 -1.1808  3.7749 -0.8450
17069TIP3    H272699   3.918   3.055  12.368 -0.9533 -1.4680 -2.6114
17070TIP3   OH272700   5.307   3.973   2.666  0.3186 -0.9830 -0.0569
17070TIP3    H172701   5.353   4.057   2.674  0.1068 -1.0784  2.3968
17070TIP3    H272702   5.352   3.929   2.594  1.4958  0.5469 -0.3029
17071TIP3   OH272703   6.392   4.791  15.406 -0.0021  0.3945  0.1113
17071TIP3    H172704   6.358   4.747  15.329  0.5419  0.2322 -0.0380
17071TIP3    H272705   6.428   4.874  15.373 -1.8078  1.3642  0.5158
17072TIP3   OH272706   1.853   0.097   5.812 -0.5255  0.1470 -0.4214
17072TIP3    H172707   1.814   0.011   5.829  1.3684 -0.6233  0.1125
17072TIP3    H272708   1.880   0.129   5.898  0.3584  0.5086 -0.8280
17073TIP3   OH272709   5.801   5.869   3.840  0.0036 -0.2744 -0.5940
17073TIP3    H172710   5.811   5.959   3.869  1.0467 -0.9280  1.1488
17073TIP3    H272711   5.865   5.859   3.770  0.0110  0.2795 -0.6648
17074TIP3   OH272712   0.704   4.121   3.290 -0.3927 -0.2698  0.1749
17074TIP3    H172713   0.698   4.029   3.317 -0.6568 -0.9664 -2.0938
17074TIP3    H272714   0.789   4.150   3.322 -0.0492 -1.5001  0.4216
17075TIP3   OH272715   0.406   3.779  15.187  0.2753  0.0346 -0.4835
17075TIP3    H172716   0.445   3.696  15.161  0.1530 -0.2416  0.1931
17075TIP3    H272717   0.478   3.831  15.222  0.2183 -0.0875 -0.1816
17076TIP3   OH272718   6.406   4.072  13.143 -0.3862 -0.2843  0.6811
17076TIP3    H172719   6.479   4.071  13.206  0.1292 -2.5061  0.0968
17076TIP3    H272720   6.349   4.000  13.172 -0.6999 -0.6194 -0.7387
17077TIP3   OH272721   1.453   1.525   3.985 -0.2042 -0.5144  0.4769
17077TIP3    H172722   1.534   1.512   3.935 -0.7989  0.5421 -0.8144
17077TIP3    H272723   1.415   1.437   3.991  1.1706 -1.0557  1.3321
17078TIP3   OH272724   3.922   2.098  12.915 -0.1589  0.0330 -0.2170
17078TIP3    H172725   3.866   2.030  12.876 -2.1442  0.7579  1.2698
17078TIP3    H272726   3.946   2.062  13.001  1.0943  0.0300 -0.5634
17079TIP3   OH272727   6.281   1.554   2.322  0.6295 -0.0406  0.0840
17079TIP3    H172728   6.280   1.467   2.283  1.4090  0.5065 -1.2027
17079TIP3    H272729   6.193   1.566   2.356 -0.0362 -0.6322 -1.3649
17080TIP3   OH272730   2.030   6.678   1.020  0.2998 -0.2750 -0.6629
17080TIP3    H172731   2.026   6.630   1.103  1.8408  1.4998  0.4806
17080TIP3    H272732   1.979   6.757   1.036 -1.3390 -1.0014 -2.1911
17081TIP3   OH272733   4.436   1.218  17.034  0.1212  0.3566  0.2495
17081TIP3    H172734   4.373   1.146  17.028  2.0952 -1.3177 -0.9978
17081TIP3    H272735   4.503   1.198  16.969  3.0427  1.0037  2.9090
17082TIP3   OH272736   2.604   1.940   5.550  0.0605  0.2794  0.3515
17082TIP3    H172737   2.579   1.849   5.566 -1.5910  0.4420 -1.2260
17082TIP3    H272738   2.580   1.956   5.459  1.1331  2.0431  0.3616
17083TIP3   OH272739   3.035   2.047   0.643  0.2425 -0.0483  0.1288
17083TIP3    H172740   3.056   2.016   0.731  0.3752 -0.0062  0.1119
17083TIP3    H272741   3.074   2.134   0.638  0.9607 -0.3936 -0.2677
17084TIP3   OH272742   6.773   0.225   3.749 -0.5396  0.6074  0.4173
17084TIP3    H172743   6.860   0.221   3.788  0.1279 -0.4720 -1.1480
17084TIP3    H272744   6.769   0.311   3.708  0.1795  0.2795 -0.3600
17085TIP3   OH272745   0.735   6.201   0.566 -0.2665 -0.4432  0.1665
17085TIP3    H172746   0.830   6.203   0.561 -0.3632  0.2138 -1.6186
17085TIP3    H272747   0.705   6.268   0.505 -1.8689  0.0785  1.4594
17086TIP3   OH272748   4.672   6.040  12.378  0.0715  0.0350 -0.2225
17086TIP3    H172749   4.752   6.081  12.412 -0.9924  1.4321  0.6381
17086TIP3    H272750   4.609   6.112  12.373 -1.0136 -0.9817 -1.2760
17087TIP3   OH272751   5.892   1.445  12.135  0.5363  0.2902 -0.1612
17087TIP3    H172752   5.909   1.432  12.228 -0.5124  0.1744  0.0139
17087TIP3    H272753   5.931   1.368  12.093 -2.2785 -1.5760  0.5235
17088TIP3   OH272754   2.105   5.003   3.105 -0.4544 -0.4408 -0.2548
17088TIP3    H172755   2.081   5.023   3.196 -1.1178  0.3276 -0.5991
17088TIP3    H272756   2.162   5.074   3.078 -1.3562  0.0530 -0.8831
17089TIP3   OH272757   1.195   5.097   5.934  0.3417 -0.0125  0.6097
17089TIP3    H172758   1.174   5.072   6.024  0.5312 -1.6470  0.2271
17089TIP3    H272759   1.281   5.057   5.918  0.6338  0.8862 -0.0511
17090TIP3   OH272760   0.070   4.042  12.477 -0.1692 -0.2108  0.1428
17090TIP3    H172761   0.013   4.083  12.543 -0.3428 -0.4380  0.1332
17090TIP3    H272762   0.062   3.948  12.493 -0.3170 -0.2742 -0.2928
17091TIP3   OH272763   3.896   3.332  14.023  0.2856 -0.5723 -0.2517
17091TIP3    H172764   3.809   3.317  14.058  0.1300  0.5959 -0.1015
17091TIP3    H272765   3.882   3.389  13.947  0.8192 -1.2481 -0.8537
17092TIP3   OH272766   6.336   5.448   2.420  0.2443 -0.3270  0.2746
17092TIP3    H172767   6.314   5.355   2.416  5.0446 -1.5333 -1.2842
17092TIP3    H272768   6.323   5.481   2.331 -2.1413  0.7623  0.9719
17093TIP3   OH272769   3.787   1.000  11.603 -0.6251  0.5381  0.2965
17093TIP3    H172770   3.855   0.968  11.662 -0.0893  0.3514 -0.4131
17093TIP3    H272771   3.705   0.977  11.646 -0.2447 -0.8036  0.3395
17094TIP3   OH272772   1.565   5.235   0.398 -0.5061  0.0584  0.0129
17094TIP3    H172773   1.555   5.169   0.330 -1.1727 -0.0644  0.2254
17094TIP3    H272774   1.619   5.193   0.465 -0.3679 -0.0338 -0.1566
17095TIP3   OH272775   4.756   4.298   2.683  0.0070  0.0141  0.0218
17095TIP3    H172776   4.677   4.326   2.728 -0.3210  0.3604 -0.7682
17095TIP3    H272777   4.753   4.342   2.598  0.6722 -0.5477 -0.3039
17096TIP3   OH272778   5.722   3.904   0.491  0.0500  0.0623  0.4355
17096TIP3    H172779   5.760   3.828   0.536 -0.3140  0.0823  0.7848
17096TIP3    H272780   5.702   3.965   0.562  1.0664  0.8139  0.0918
17097TIP3   OH272781   2.031   5.031   3.669  0.3728 -0.0448  0.2114
17097TIP3    H172782   2.118   5.067   3.653  0.3317  0.3325  0.8091
17097TIP3    H272783   1.991   5.024   3.583  0.7391  0.4439  0.0018
17098TIP3   OH272784   0.441   1.670  16.856 -0.7243  0.5616 -0.4562
17098TIP3    H172785   0.354   1.680  16.894 -1.1311  1.7334 -1.6738
17098TIP3    H272786   0.457   1.576  16.856 -0.5196  0.5209  3.0211
17099TIP3   OH272787   2.569   6.213   6.498  0.0428 -0.3904  0.0034
17099TIP3    H172788   2.629   6.179   6.564  0.4348 -1.2918 -0.8144
17099TIP3    H272789   2.555   6.304   6.524  1.2141 -0.3657  0.5906
17100TIP3   OH272790   1.689   6.097   5.311 -0.0573 -0.1226 -0.0269
17100TIP3    H172791   1.732   6.012   5.301  1.3168  0.6964 -1.3645
17100TIP3    H272792   1.624   6.098   5.241 -0.9028 -0.5455  0.7417
17101TIP3   OH272793   6.420   6.347   3.104  0.8425 -0.0843 -0.1559
17101TIP3    H172794   6.471   6.364   3.183  1.9211  0.3135 -0.9251
17101TIP3    H272795   6.359   6.421   3.099  0.0434 -0.6613  0.8667
17102TIP3   OH272796   4.702   4.099  14.426 -0.4657 -0.1812 -0.4495
17102TIP3    H172797   4.684   4.117  14.333 -1.6898  0.8214 -0.0248
17102TIP3    H272798   4.658   4.170  14.473 -2.6110 -2.4291  1.0822
17103TIP3   OH272799   4.360   4.651  11.580  0.5237  0.0657 -0.3939
17103TIP3    H172800   4.439   4.662  11.633  0.5430  0.7275 -0.5555
17103TIP3    H272801   4.354   4.556  11.565 -0.5515 -0.3489  2.3879
17104TIP3   OH272802   1.975   5.579  16.591 -0.0476 -0.0607  0.4425
17104TIP3    H172803   2.047   5.634  16.622  0.6682 -1.2870  1.0080
17104TIP3    H272804   2.014   5.492  16.580 -0.9682 -0.2996 -1.1790
17105TIP3   OH272805   2.877   1.034   3.587 -0.5535 -0.3291  0.3425
17105TIP3    H172806   2.908   1.115   3.629 -0.5722  0.8192 -1.8002
17105TIP3    H272807   2.956   0.996   3.548 -1.0642  0.3365 -1.3817
17106TIP3   OH272808   1.547   6.420  14.722  0.3967 -0.9117  0.3785
17106TIP3    H172809   1.483   6.484  14.691  0.0739 -1.0763  0.7143
17106TIP3    H272810   1.597   6.467  14.789  0.0934 -1.0447  0.6974
17107TIP3   OH272811   2.395   5.000  15.029  0.5307 -0.0846 -0.3323
17107TIP3    H172812   2.365   4.957  15.109 -1.3412  1.7487 -0.0304
17107TIP3    H272813   2.453   5.070  15.060  0.4035  0.1439 -0.6085
17108TIP3   OH272814   6.049   5.060   0.054  1.2416 -0.0469  0.0935
17108TIP3    H172815   6.032   4.971   0.084  3.6721 -0.5051  0.1924
17108TIP3    H272816   5.995   5.069  -0.025 -0.2536 -1.0165  0.9773
17109TIP3   OH272817   1.795   0.822   4.479  0.1235 -0.5498 -0.0342
17109TIP3    H172818   1.798   0.895   4.540 -0.3282 -0.0326 -0.6197
17109TIP3    H272819   1.708   0.783   4.493  0.7795 -1.6542  1.0501
17110TIP3   OH272820   5.350   3.289   5.049  0.4877 -0.1328  0.2119
17110TIP3    H172821   5.323   3.202   5.081  2.3170 -0.7397  0.2154
17110TIP3    H272822   5.373   3.274   4.958  0.1639  0.5019  0.0278
17111TIP3   OH272823   3.323   4.772   5.324 -0.3134  0.3924 -0.0256
17111TIP3    H172824   3.311   4.859   5.286  1.0980 -0.0176 -1.4432
17111TIP3    H272825   3.418   4.757   5.320 -0.5038 -1.0241  0.6118
17112TIP3   OH272826   3.910   1.586  17.206  0.0380  0.4552  1.1111
17112TIP3    H172827   3.866   1.666  17.175 -1.0323 -0.3878  0.4260
17112TIP3    H272828   3.864   1.564  17.287  0.1438  0.3601  1.1467
17113TIP3   OH272829   0.099   2.013   1.224 -0.4057 -0.3549 -0.1026
17113TIP3    H172830   0.140   1.983   1.305 -0.5243 -0.2959 -0.0207
17113TIP3    H272831   0.025   2.066   1.252  1.6420  2.6870 -0.1739
17114TIP3   OH272832   4.860   5.113   2.175 -0.0963  0.2143  0.2683
17114TIP3    H172833   4.948   5.077   2.162  0.1700  0.6565  0.8225
17114TIP3    H272834   4.806   5.037   2.197 -0.2216 -0.3127 -1.7365
17115TIP3   OH272835   5.921   1.509   1.209  0.1514 -0.0814  0.5136
17115TIP3    H172836   5.934   1.434   1.150 -3.4116 -1.7398  1.6803
17115TIP3    H272837   5.840   1.549   1.178  0.3969  1.4462  1.8285
17116TIP3   OH272838   4.265   0.494   0.477 -0.5410 -0.2848 -0.5994
17116TIP3    H172839   4.247   0.485   0.384 -0.0658 -0.4000 -0.6808
17116TIP3    H272840   4.337   0.433   0.493  1.1724  1.6987 -0.6770
17117TIP3   OH272841   1.693   2.431   0.844  1.1239 -0.3009  0.8226
17117TIP3    H172842   1.772   2.386   0.814  1.0144  0.8835 -1.2633
17117TIP3    H272843   1.631   2.360   0.862  1.8382 -1.1053  0.1447
17118TIP3   OH272844   1.571   1.517   4.251 -0.0757  0.3482  0.0149
17118TIP3    H172845   1.525   1.521   4.167 -1.5505  3.4938  0.8875
17118TIP3    H272846   1.645   1.578   4.241  0.2926  0.0103  0.6661
17119TIP3   OH272847   4.088   4.013   5.463  0.0910  0.0355  0.0905
17119TIP3    H172848   4.067   4.041   5.552  1.6033 -2.1578  1.1954
17119TIP3    H272849   4.172   4.055   5.444  1.3303 -1.9731  0.9536
17120TIP3   OH272850   1.975   3.159  17.160 -0.1697  0.7541 -0.4039
17120TIP3    H172851   1.997   3.138  17.251 -2.1635 -1.4385 -0.3908
17120TIP3    H272852   1.932   3.245  17.166 -0.3773  0.5858  0.7626
17121TIP3   OH272853   6.137   2.338  16.806 -0.7112  0.5437  0.3747
17121TIP3    H172854   6.162   2.249  16.781  0.8628  0.8091  0.9495
17121TIP3    H272855   6.043   2.343  16.787 -0.2555 -0.3261 -2.3847
17122TIP3   OH272856   2.629   1.202   0.013 -0.3235  0.0127  0.5040
17122TIP3    H172857   2.603   1.131   0.072  2.8781 -0.9811  0.8037
17122TIP3    H272858   2.640   1.159  -0.072  1.0308  0.2159  0.5568
17123TIP3   OH272859   4.771   4.869  11.282  0.4269 -0.1887 -0.4938
17123TIP3    H172860   4.757   4.898  11.372  1.2904  0.9249 -0.7177
17123TIP3    H272861   4.859   4.830  11.283 -0.6995 -2.8921 -0.1868
17124TIP3   OH272862   3.578   2.941  12.757  0.0649 -0.0131  0.4015
17124TIP3    H172863   3.622   2.965  12.675 -0.5329  0.6124  0.2606
17124TIP3    H272864   3.649   2.917  12.816  0.5364  0.0267 -0.1421
17125TIP3   OH272865   1.508   4.745  17.182 -0.3980  0.7456  0.1356
17125TIP3    H172866   1.499   4.779  17.093  0.0759  1.0283  0.1971
17125TIP3    H272867   1.543   4.657  17.170 -0.7079  0.6355  0.0250
17126TIP3   OH272868   4.521   5.345   0.378 -0.4612 -0.0708 -0.1410
17126TIP3    H172869   4.484   5.430   0.401 -0.5240  0.0581 -0.7099
17126TIP3    H272870   4.478   5.322   0.296  0.7990  0.1445 -0.8828
17127TIP3   OH272871   4.782   0.863   5.461  0.1131 -0.0194 -0.1491
17127TIP3    H172872   4.820   0.793   5.408 -1.2684  0.8893 -2.4200
17127TIP3    H272873   4.688   0.853   5.451 -0.2864 -1.3159  4.2129
17128TIP3   OH272874   2.035   1.172   0.486 -0.8112  0.6021 -0.3230
17128TIP3    H172875   1.965   1.236   0.473 -1.0516  0.4921  0.3772
17128TIP3    H272876   2.090   1.211   0.554 -0.0705  0.7895 -1.0349
17129TIP3   OH272877   2.189   6.449  10.577  0.5014 -0.3554  0.0278
17129TIP3    H172878   2.113   6.405  10.615  0.0648 -0.6099 -1.1202
17129TIP3    H272879   2.263   6.421  10.632 -0.5517  1.8029  2.6364
17130TIP3   OH272880   2.762   5.597  12.066  0.6876 -0.7594  0.5706
17130TIP3    H172881   2.769   5.644  11.983  0.2242 -0.1091  0.8897
17130TIP3    H272882   2.840   5.542  12.070  0.7164 -0.7865 -0.2913
17131TIP3   OH272883   3.227   5.888   5.515  0.0247 -0.0874 -0.6064
17131TIP3    H172884   3.164   5.952   5.482  0.0958 -0.1823 -0.9333
17131TIP3    H272885   3.313   5.930   5.504 -0.0271  0.2896  0.4179
17132TIP3   OH272886   4.686   2.069   6.235 -0.4246  0.1114  0.5962
17132TIP3    H172887   4.672   2.140   6.297  0.3826  0.5904  0.2247
17132TIP3    H272888   4.778   2.075   6.211  0.3994 -2.7527  2.6828
17133TIP3   OH272889   5.605   5.886  10.422  0.0617  0.6351 -0.2988
17133TIP3    H172890   5.694   5.862  10.397 -0.7754  1.3448 -4.2175
17133TIP3    H272891   5.616   5.957  10.485  2.2364  0.3930 -0.3710
17134TIP3   OH272892   3.303   1.821  13.380  0.2877  0.4061 -0.0858
17134TIP3    H172893   3.240   1.881  13.421 -1.0075 -1.0095  0.0135
17134TIP3    H272894   3.252   1.744  13.357  1.9640 -0.6980 -0.1766
17135TIP3   OH272895   4.085   1.572   4.761 -0.4645 -0.1142 -0.5177
17135TIP3    H172896   3.998   1.541   4.738 -0.3914 -0.9246  0.2590
17135TIP3    H272897   4.086   1.572   4.857 -0.2647  1.7608 -0.5012
17136TIP3   OH272898   3.668   6.572  15.094 -0.4333 -0.3989 -0.6559
17136TIP3    H172899   3.731   6.589  15.024 -0.6454  1.8490 -0.3561
17136TIP3    H272900   3.713   6.602  15.174 -0.7855 -1.4846 -0.0440
17137TIP3   OH272901   1.558   2.102   4.385 -0.2714 -0.1927 -0.5822
17137TIP3    H172902   1.619   2.066   4.450 -0.7339  0.4144  0.1856
17137TIP3    H272903   1.568   2.044   4.309  0.9074 -0.3873 -0.2878
17138TIP3   OH272904   3.101   5.356   5.113 -0.0498  0.6700  0.1208
17138TIP3    H172905   3.195   5.374   5.106  0.1046  0.5649  1.7366
17138TIP3    H272906   3.067   5.425   5.170 -0.2033 -1.5550  2.8552
17139TIP3   OH272907   0.769   2.291  15.463  0.2274  0.0485  0.0590
17139TIP3    H172908   0.673   2.284  15.464  0.1684  0.7887 -0.0128
17139TIP3    H272909   0.798   2.218  15.518 -0.2903 -1.3481 -1.4775
17140TIP3   OH272910   6.449   3.201  14.199  0.5620 -0.3206  0.0842
17140TIP3    H172911   6.487   3.206  14.286  3.2074 -0.3015 -1.0290
17140TIP3    H272912   6.508   3.144  14.150 -0.0697  0.8512 -2.1035
17141TIP3   OH272913   4.297   1.050  14.257  0.4372 -0.6696  0.0130
17141TIP3    H172914   4.215   1.020  14.296 -1.7155  3.1369 -1.2570
17141TIP3    H272915   4.339   1.101  14.327  0.0526  0.1375 -0.3267
17142TIP3   OH272916   3.427   1.499   2.966 -0.4405 -0.0332  0.1364
17142TIP3    H172917   3.451   1.575   2.914  2.2445 -1.5802 -1.0063
17142TIP3    H272918   3.356   1.529   3.022 -2.0509  2.2140 -2.9962
17143TIP3   OH272919   5.960   3.102  16.660  0.3784 -0.5428 -0.6282
17143TIP3    H172920   5.912   3.155  16.724  0.6799  0.1426 -0.9622
17143TIP3    H272921   5.902   3.029  16.640 -0.6536  0.4416 -1.2628
17144TIP3   OH272922   0.988   5.780   1.757 -0.8600 -0.0149  0.6607
17144TIP3    H172923   1.083   5.790   1.768 -0.9698  0.4721  1.1786
17144TIP3    H272924   0.962   5.721   1.828 -0.9387 -0.1947  0.4836
17145TIP3   OH272925   2.909   3.867   3.089 -0.1386  0.0344 -0.2271
17145TIP3    H172926   2.897   3.917   3.008 -0.6405 -0.7286 -0.6323
17145TIP3    H272927   2.943   3.782   3.060  0.7152  0.1384  0.4584
17146TIP3   OH272928   6.304   2.011  17.182  0.0051  0.2210  0.0758
17146TIP3    H172929   6.264   2.073  17.243  0.7624  0.3683  0.4281
17146TIP3    H272930   6.396   2.037  17.177  0.0311 -0.0080 -0.8575
17147TIP3   OH272931   6.123   1.484  16.658 -0.9618 -0.0761  0.2060
17147TIP3    H172932   6.071   1.410  16.689 -1.1153  0.7802  2.0687
17147TIP3    H272933   6.095   1.558  16.712 -1.4061  1.5607 -2.1667
17148TIP3   OH272934   6.194   4.229  14.578  0.1323 -0.5832 -0.1957
17148TIP3    H172935   6.178   4.136  14.596 -0.4094 -0.8059 -1.8185
17148TIP3    H272936   6.289   4.236  14.572  0.1743 -1.0258 -0.0878
17149TIP3   OH272937   3.534   2.494  15.123 -0.3359 -0.0508 -0.3337
17149TIP3    H172938   3.496   2.408  15.137 -1.1750  0.3072 -0.3573
17149TIP3    H272939   3.606   2.499  15.186 -0.8594 -0.4206  0.3109
17150TIP3   OH272940   1.713   0.469   3.737  0.1712  0.2329 -0.0212
17150TIP3    H172941   1.760   0.386   3.747 -2.4073 -1.1348  1.4491
17150TIP3    H272942   1.733   0.498   3.648  2.0771 -1.3320 -0.1338
17151TIP3   OH272943   3.758   4.003  10.386 -0.5679  0.4428  0.6590
17151TIP3    H172944   3.705   3.938  10.340 -1.5269  1.6038  0.0868
17151TIP3    H272945   3.766   4.076  10.325 -0.4994  1.3558  1.7258
17152TIP3   OH272946   0.259   2.648   5.439  0.3095  0.0959 -0.1411
17152TIP3    H172947   0.171   2.683   5.455 -0.0452 -0.3596 -1.0897
17152TIP3    H272948   0.255   2.611   5.351  1.8291  1.2444 -0.7222
17153TIP3   OH272949   0.542   3.608   5.017 -0.2245  0.1825  0.3955
17153TIP3    H172950   0.507   3.692   4.989 -1.9005 -0.1255  1.5403
17153TIP3    H272951   0.498   3.543   4.962  0.4892 -0.0239  0.0512
17154TIP3   OH272952   3.991   2.909  16.557 -0.5423  0.4050 -0.0786
17154TIP3    H172953   3.944   2.826  16.564  1.7567 -0.8371  0.9678
17154TIP3    H272954   4.026   2.910  16.468  0.6133 -0.4188  0.3550
17155TIP3   OH272955   3.507   5.117  12.686 -0.3376  0.2415  0.1999
17155TIP3    H172956   3.512   5.172  12.607 -0.3008  1.4328  1.0198
17155TIP3    H272957   3.549   5.035  12.661 -0.9587  0.3488 -1.2405
17156TIP3   OH272958   5.604   1.989   2.314 -0.0159 -0.0957  0.8018
17156TIP3    H172959   5.535   2.010   2.251  0.4814 -0.9378 -0.0213
17156TIP3    H272960   5.579   1.904   2.349  1.0053 -0.7681 -0.0678
17157TIP3   OH272961   5.367   0.261  15.373 -0.7128  0.8415 -0.0410
17157TIP3    H172962   5.411   0.346  15.361 -0.8331  0.9439  0.2298
17157TIP3    H272963   5.400   0.207  15.302 -0.7161  1.1497 -0.2816
17158TIP3   OH272964   1.767   6.082   0.100  0.3559 -0.0896 -0.1409
17158TIP3    H172965   1.798   5.996   0.130  0.1851 -0.2946 -0.5461
17158TIP3    H272966   1.675   6.068   0.080 -0.2563  0.7323  1.9109
17159TIP3   OH272967   5.609   1.805   3.643  0.1938  0.8638 -0.1365
17159TIP3    H172968   5.583   1.897   3.649  0.6903  1.0775 -1.1109
17159TIP3    H272969   5.705   1.807   3.649  0.4454  0.7176 -3.2639
17160TIP3   OH272970   5.546   2.192   2.477 -0.4751 -0.6421 -0.1537
17160TIP3    H172971   5.564   2.132   2.406 -2.9422 -0.7792 -0.6833
17160TIP3    H272972   5.526   2.276   2.434  1.5892  0.2298  0.5226
17161TIP3   OH272973   6.555   5.357  10.273 -1.1027  0.3042 -0.3181
17161TIP3    H172974   6.594   5.271  10.292 -1.0416 -0.1392 -2.3902
17161TIP3    H272975   6.558   5.403  10.357  4.2748  0.4741 -0.4196
17162TIP3   OH272976   2.268   5.814  13.022  0.3496  0.6599  0.3719
17162TIP3    H172977   2.335   5.783  13.082  2.0228  1.7435 -0.8906
17162TIP3    H272978   2.308   5.888  12.977 -1.8863  1.6672 -0.0350
17163TIP3   OH272979   0.678   2.849  11.360  0.4913  0.0824  0.7941
17163TIP3    H172980   0.591   2.811  11.371 -0.1521  1.4822  0.7729
17163TIP3    H272981   0.723   2.790  11.300  0.2991 -1.7991  2.4455
17164TIP3   OH272982   1.207   0.631  12.762  0.2174  0.2262 -0.5276
17164TIP3    H172983   1.266   0.557  12.747  0.3415  0.3504 -0.6567
17164TIP3    H272984   1.264   0.702  12.793 -0.1269 -0.2197  1.1414
17165TIP3   OH272985   0.481   5.051  12.784  0.1215 -0.5117  0.2309
17165TIP3    H172986   0.548   5.051  12.853 -0.9739  0.4009  1.3236
17165TIP3    H272987   0.490   4.966  12.742  0.2569 -1.4334  2.0617
17166TIP3   OH272988   1.300   6.130   1.227 -0.1506  0.6987 -0.0339
17166TIP3    H172989   1.380   6.178   1.247 -0.4437  1.6944 -1.1577
17166TIP3    H272990   1.300   6.122   1.131  0.0609 -1.8788  0.1585
17167TIP3   OH272991   1.012   1.992   0.085  0.5449 -0.7221 -0.3933
17167TIP3    H172992   0.946   2.018   0.149  1.0953  0.2171 -0.1999
17167TIP3    H272993   0.962   1.975   0.005  0.0060 -0.5266 -0.1006
17168TIP3   OH272994   2.959   2.047  15.924  0.2922 -0.3219  0.3078
17168TIP3    H172995   2.887   1.984  15.915 -0.3652  0.6429 -1.5666
17168TIP3    H272996   3.038   1.992  15.925 -0.3914 -1.3156  1.1529
17169TIP3   OH272997   1.817   5.253   3.439  0.1289  0.4938 -0.1886
17169TIP3    H172998   1.758   5.213   3.502 -2.0571  2.6356 -0.7435
17169TIP3    H272999   1.758   5.301   3.379  2.4959  4.3204  0.3599
17170TIP3   OH273000   3.638   5.456  15.376  0.1845  0.7633 -0.1364
17170TIP3    H173001   3.640   5.551  15.393  0.0317  0.5722  0.9979
17170TIP3    H273002   3.640   5.449  15.281  3.6600  1.8024 -0.2019
17171TIP3   OH273003   4.959   1.589   2.727  0.4716 -0.0410 -0.5380
17171TIP3    H173004   5.040   1.635   2.746  0.0490  0.6611 -0.3911
17171TIP3    H273005   4.980   1.497   2.738  0.3825  0.2815  2.9600
17172TIP3   OH273006   0.540   3.431   6.428  0.7901 -0.4165  1.0044
17172TIP3    H173007   0.478   3.375   6.476 -1.6181  0.7779 -0.6010
17172TIP3    H273008   0.519   3.520   6.458  0.7659  0.1262 -0.5764
17173TIP3   OH273009   3.886   2.766  17.194  0.0858  0.3460  0.3222
17173TIP3    H173010   3.930   2.682  17.206 -1.0430 -0.6462 -2.1077
17173TIP3    H273011   3.909   2.792  17.104  1.0451  3.0397  1.2911
17174TIP3   OH273012   5.700   6.650  13.599 -0.1978  0.2816  0.0984
17174TIP3    H173013   5.774   6.590  13.606 -0.9570 -0.8470 -1.2239
17174TIP3    H273014   5.707   6.705  13.676  1.3437 -0.5772  0.6069
17175TIP3   OH273015   4.852   0.941   5.090  0.4819  0.6566 -0.1886
17175TIP3    H173016   4.869   1.011   5.028 -2.0122  0.1569 -1.4974
17175TIP3    H273017   4.864   0.982   5.176  2.0060  1.8637 -0.9497
17176TIP3   OH273018   2.168   2.623  10.740  0.6460  0.6095  0.2667
17176TIP3    H173019   2.183   2.587  10.653  1.9750 -2.1104  1.5462
17176TIP3    H273020   2.254   2.654  10.768  1.1637 -2.2631  2.1453
17177TIP3   OH273021   2.260   0.314  16.359 -0.2584  0.0599  0.1605
17177TIP3    H173022   2.346   0.276  16.373 -0.2862 -1.3657 -3.1389
17177TIP3    H273023   2.277   0.401  16.323 -0.1845 -0.7644 -1.8113
17178TIP3   OH273024   0.834   5.950   4.523 -0.7299  0.0103 -0.1194
17178TIP3    H173025   0.830   5.909   4.436  0.3819 -1.3644  0.4597
17178TIP3    H273026   0.808   5.881   4.583  0.9166  0.2292  0.8572
17179TIP3   OH273027   5.955   1.135  12.438  0.7270 -0.2902  0.1585
17179TIP3    H173028   6.020   1.077  12.479  0.8883  0.0006  0.3231
17179TIP3    H273029   5.999   1.221  12.435  0.5122 -0.1911 -0.1320
17180TIP3   OH273030   3.778   3.174   1.783 -0.0992 -0.2775  0.0635
17180TIP3    H173031   3.810   3.230   1.853 -0.2298 -1.5031  1.1181
17180TIP3    H273032   3.838   3.190   1.710 -1.2754  2.6636 -0.3288
17181TIP3   OH273033   4.109   4.561   1.772  0.2322 -0.2684  0.4155
17181TIP3    H173034   4.166   4.509   1.828  1.4423  1.4719  0.8530
17181TIP3    H273035   4.165   4.632   1.741 -1.1492  0.2846 -0.8492
17182TIP3   OH273036   4.490   4.223   3.232 -0.3617  0.5173  0.5287
17182TIP3    H173037   4.548   4.150   3.252 -2.0800 -0.8307  0.7851
17182TIP3    H273038   4.437   4.234   3.310 -0.7939  1.3796  0.1220
17183TIP3   OH273039   5.326   3.560   5.072  0.5953 -0.1593  0.4436
17183TIP3    H173040   5.367   3.591   4.991 -1.0826 -0.5110 -0.5585
17183TIP3    H273041   5.353   3.468   5.078  0.4398 -0.2302  0.0976
17184TIP3   OH273042   0.520   2.449  14.182  0.7205  0.2365  0.8308
17184TIP3    H173043   0.520   2.481  14.092  4.4336 -0.5322  0.5106
17184TIP3    H273044   0.558   2.521  14.233  1.4216 -0.4966  1.3426
17185TIP3   OH273045   3.979   0.107   6.151  0.7036 -0.1546  0.6630
17185TIP3    H173046   3.929   0.178   6.189 -0.6782 -1.6433  1.7111
17185TIP3    H273047   4.067   0.143   6.137 -0.5725  2.4129 -1.0161
17186TIP3   OH273048   2.079   4.210   0.324  0.1994 -0.3574  0.4062
17186TIP3    H173049   2.103   4.243   0.410  2.3684  0.8393 -0.6047
17186TIP3    H273050   2.024   4.278   0.287 -1.1628 -1.1067  1.0303
17187TIP3   OH273051   1.063   2.133  15.913  0.1047 -0.3117  0.3444
17187TIP3    H173052   0.989   2.152  15.970 -0.4315 -0.1292 -0.4138
17187TIP3    H273053   1.121   2.079  15.967 -0.9108 -1.0521  0.7025
17188TIP3   OH273054   5.094   0.746  13.964  0.3610 -0.3299  0.2741
17188TIP3    H173055   5.049   0.816  14.013 -0.1098  0.1480 -0.8212
17188TIP3    H273056   5.023   0.698  13.922  0.9031  1.8935 -3.4528
17189TIP3   OH273057   4.634   6.312   0.903  0.7781 -0.3916  0.2274
17189TIP3    H173058   4.721   6.323   0.941  0.6018 -1.2617  0.8999
17189TIP3    H273059   4.617   6.219   0.909  0.4905 -0.4617 -1.4732
17190TIP3   OH273060   0.868   2.682  13.270  0.1935 -0.4235  0.6139
17190TIP3    H173061   0.892   2.702  13.361 -0.7188 -0.5866  0.9004
17190TIP3    H273062   0.840   2.590  13.272 -0.7086 -0.1626  0.3562
17191TIP3   OH273063   3.306   4.712   5.781 -0.2229  0.4919 -0.1252
17191TIP3    H173064   3.297   4.756   5.865 -0.7856  0.0701  0.0356
17191TIP3    H273065   3.376   4.648   5.794  0.6446  1.3750 -0.3800
17192TIP3   OH273066   1.054   5.758   2.624  0.4364  0.3108  0.1445
17192TIP3    H173067   0.989   5.715   2.568 -1.3756  0.8024  1.8363
17192TIP3    H273068   1.126   5.695   2.629  0.3806  0.0035 -2.2310
17193TIP3   OH273069   4.770   5.814  11.132  0.1470  0.0322 -0.1015
17193TIP3    H173070   4.800   5.739  11.183 -0.3351 -0.9005 -1.1818
17193TIP3    H273071   4.674   5.808  11.134  0.1124 -1.4069 -3.1037
17194TIP3   OH273072   1.221   5.608  16.456  0.0220  0.1034 -0.1184
17194TIP3    H173073   1.274   5.685  16.437  0.3109 -0.1462 -0.3170
17194TIP3    H273074   1.130   5.639  16.446  0.1455  0.3116 -0.5914
17195TIP3   OH273075   6.337   2.472   0.145  0.1157  0.2787  0.0091
17195TIP3    H173076   6.265   2.508   0.197  0.7550  2.2338 -0.4207
17195TIP3    H273077   6.391   2.425   0.208 -1.0049 -0.3511  0.5054
17196TIP3   OH273078   5.608   5.277  11.100 -0.3370  0.5936  0.0931
17196TIP3    H173079   5.613   5.372  11.095  0.0220  0.6552  1.3441
17196TIP3    H273080   5.670   5.253  11.169 -0.5338 -0.5322 -0.1045
17197TIP3   OH273081   6.385   1.344   3.728  0.0851 -0.2756  0.4150
17197TIP3    H173082   6.355   1.276   3.669 -2.1424  1.5808 -0.6729
17197TIP3    H273083   6.314   1.355   3.792  1.6142 -0.8909  2.2697
17198TIP3   OH273084   1.183   2.729  11.795  0.8879  0.2370 -0.6629
17198TIP3    H173085   1.258   2.721  11.737 -0.6492 -0.3617 -2.6186
17198TIP3    H273086   1.117   2.774  11.743  0.1072  1.4205  1.2713
17199TIP3   OH273087   6.225   6.710   5.685  0.2273  0.2429  0.6124
17199TIP3    H173088   6.216   6.625   5.642 -1.7189 -0.0992  1.6140
17199TIP3    H273089   6.157   6.764   5.646  1.0967  1.1773  0.3727
17200TIP3   OH273090   6.217   1.499  12.480  0.2351 -0.0542 -0.6463
17200TIP3    H173091   6.308   1.480  12.457  0.3731  1.5793 -1.5902
17200TIP3    H273092   6.207   1.466  12.569  1.7903 -0.1721 -0.4922
17201TIP3   OH273093   2.738   4.261  12.278  0.0311  0.0978 -0.4280
17201TIP3    H173094   2.710   4.192  12.217  0.8700  1.7808 -2.8256
17201TIP3    H273095   2.816   4.226  12.320 -0.3198 -0.9516 -0.6337
17202TIP3   OH273096   3.304   3.453  11.980 -0.3642  0.2773  0.2453
17202TIP3    H173097   3.304   3.547  11.961  0.6625  0.3074  0.3604
17202TIP3    H273098   3.338   3.412  11.901 -0.2818  0.0450  0.4004
17203TIP3   OH273099   6.732   5.183  17.283 -0.2095  0.1704 -0.2167
17203TIP3    H173100   6.665   5.114  17.283  0.0735 -0.1125 -0.7772
17203TIP3    H273101   6.778   5.172  17.366 -0.4884  0.0023 -0.0818
17204TIP3   OH273102   1.197   5.237  16.819 -0.0494 -0.5564 -0.2636
17204TIP3    H173103   1.265   5.172  16.803  0.2382 -0.4862  0.6551
17204TIP3    H273104   1.119   5.186  16.839  0.0638 -0.6158  0.0176
17205TIP3   OH273105   4.285   4.182  14.635 -0.2915 -0.9487  0.5456
17205TIP3    H173106   4.366   4.132  14.648  0.4773  0.4908  1.4694
17205TIP3    H273107   4.265   4.219  14.722 -2.5254 -2.1390  0.5640
17206TIP3   OH273108   1.409   3.781  15.380  0.1815  0.2369  0.2660
17206TIP3    H173109   1.415   3.834  15.460 -0.8168  0.2746  0.3210
17206TIP3    H273110   1.427   3.692  15.409  0.8480  0.3957  0.3527
17207TIP3   OH273111   4.771   0.162  14.723  0.9489 -0.3710  0.8133
17207TIP3    H173112   4.828   0.214  14.666 -0.7683  0.9309  0.2408
17207TIP3    H273113   4.814   0.164  14.808  1.2260  1.5449  0.6648
17208TIP3   OH273114   4.537   2.684  12.756  0.1870  0.2050 -0.3282
17208TIP3    H173115   4.605   2.738  12.715  1.9493 -1.4890  0.2593
17208TIP3    H273116   4.476   2.663  12.685 -0.1130  2.3059 -0.7180
17209TIP3   OH273117   6.208   3.205  11.866  0.6449 -0.2152  0.7949
17209TIP3    H173118   6.174   3.234  11.781 -1.8997  1.1358  2.2408
17209TIP3    H273119   6.270   3.273  11.891  1.9760 -0.9979 -0.2981
17210TIP3   OH273120   0.138   2.511   0.905  0.1541  0.3680  0.7944
17210TIP3    H173121   0.121   2.605   0.907  1.3379  0.6339 -1.0218
17210TIP3    H273122   0.087   2.478   0.831 -1.1806 -0.6345  2.1180
17211TIP3   OH273123   2.401   6.052  11.504 -0.2380 -0.4286  0.4367
17211TIP3    H173124   2.330   6.087  11.558 -0.2014 -0.1307  0.2946
17211TIP3    H273125   2.441   6.129  11.464 -0.7201 -0.7039 -0.5711
17212TIP3   OH273126   2.467   4.088  11.625  0.3570  0.1995 -0.5572
17212TIP3    H173127   2.443   4.053  11.710 -0.9090  1.6254 -0.2919
17212TIP3    H273128   2.405   4.160  11.611  0.6720  0.1066 -2.5866
17213TIP3   OH273129   2.636   6.154  15.605  0.5039  0.8649  0.0541
17213TIP3    H173130   2.557   6.202  15.628  1.1976  1.8423  0.4362
17213TIP3    H273131   2.646   6.090  15.676  1.1114  2.0352  1.0474
17214TIP3   OH273132   0.590   6.586   3.709  0.4108  0.9970  0.5353
17214TIP3    H173133   0.570   6.674   3.677 -0.2365  1.2063  1.4678
17214TIP3    H273134   0.551   6.583   3.797  1.3857  0.1549  0.9512
17215TIP3   OH273135   0.296   4.146  13.402  0.0494  0.2643  0.1096
17215TIP3    H173136   0.253   4.229  13.422  0.2645  0.4933 -0.3482
17215TIP3    H273137   0.287   4.093  13.481  0.2978  0.8881  0.5539
17216TIP3   OH273138   2.462   5.773  13.214  0.3448  0.0846 -0.9147
17216TIP3    H173139   2.545   5.809  13.184  0.6686  1.1890  1.1749
17216TIP3    H273140   2.482   5.738  13.301 -1.2843 -0.0430 -0.5817
17217TIP3   OH273141   1.340   5.739  13.976 -0.0687 -0.0450  0.5714
17217TIP3    H173142   1.376   5.739  14.065 -0.2106 -1.2020  0.6363
17217TIP3    H273143   1.258   5.790  13.983 -0.2892 -0.4817  1.1913
17218TIP3   OH273144   0.041   3.039  10.962 -0.2487  0.4911  0.1639
17218TIP3    H173145  -0.012   2.959  10.967 -0.0965  0.3978  0.2797
17218TIP3    H273146   0.089   3.041  11.044  0.3003  0.3152 -0.1472
17219TIP3   OH273147   0.241   4.411  15.191  0.3666  0.5822  0.0647
17219TIP3    H173148   0.153   4.375  15.201  0.4023  0.4168 -0.1896
17219TIP3    H273149   0.228   4.497  15.151  0.2889  0.7934  0.5394
17220TIP3   OH273150   5.357   3.476   4.512 -0.1644  0.4604  0.2751
17220TIP3    H173151   5.403   3.544   4.463 -0.8834  0.8006  0.0608
17220TIP3    H273152   5.356   3.400   4.454 -1.5224  1.0413 -0.4808
17221TIP3   OH273153   2.535   5.648  15.622  0.8478 -0.0170 -0.4485
17221TIP3    H173154   2.541   5.671  15.714 -2.0588  0.2369 -0.2949
17221TIP3    H273155   2.556   5.554  15.620 -0.1406 -0.2711  0.6118
17222TIP3   OH273156   3.819   3.787   2.181 -0.3111 -0.6611  0.0364
17222TIP3    H173157   3.857   3.744   2.104  0.0324 -1.0463  0.4207
17222TIP3    H273158   3.759   3.853   2.144  0.9898  0.2015 -0.5685
17223TIP3   OH273159   0.820   6.196  10.618 -0.2494  0.0305  0.0180
17223TIP3    H173160   0.776   6.205  10.533 -0.8940  0.5885  0.4073
17223TIP3    H273161   0.765   6.135  10.667  0.5574 -0.9292 -0.2435
17224TIP3   OH273162   4.704   0.129   1.546 -0.1318 -0.2638  0.8442
17224TIP3    H173163   4.755   0.176   1.612  0.1227 -0.0544  0.5015
17224TIP3    H273164   4.693   0.041   1.582  1.1918 -0.5670  0.5470
17225TIP3   OH273165   1.121   3.317  16.980  0.5245 -0.2343  0.2972
17225TIP3    H173166   1.090   3.340  16.892  0.3805 -0.7767  0.2051
17225TIP3    H273167   1.088   3.387  17.036  0.5414  0.0682 -0.0685
17226TIP3   OH273168   6.191   2.840  13.286  0.1008  0.0780 -0.8741
17226TIP3    H173169   6.124   2.836  13.217 -1.2394  0.2933  0.3984
17226TIP3    H273170   6.206   2.749  13.310  3.1608 -0.2997 -3.8695
17227TIP3   OH273171   4.085   0.780  15.450 -0.2618 -0.1875  0.0383
17227TIP3    H173172   4.065   0.710  15.512 -0.7521 -0.7123 -0.7152
17227TIP3    H273173   4.147   0.836  15.497 -0.9766 -0.3356  1.1701
17228TIP3   OH273174   4.437   4.500   1.479 -0.5298  0.3143 -0.2169
17228TIP3    H173175   4.421   4.452   1.398 -0.5458  0.3774 -0.2511
17228TIP3    H273176   4.481   4.581   1.451  0.6024 -0.2375 -0.0487
17229TIP3   OH273177   5.161   3.176  12.146 -0.3509  0.5280 -0.1759
17229TIP3    H173178   5.196   3.215  12.227 -0.0150  0.5244 -0.3185
17229TIP3    H273179   5.154   3.250  12.086 -1.3926  0.6749  0.1286
17230TIP3   OH273180   4.138   5.579   3.454  0.1752 -0.2484  0.1322
17230TIP3    H173181   4.100   5.492   3.447 -1.0537  0.2296  0.6489
17230TIP3    H273182   4.092   5.631   3.388  0.6311  0.0964  0.0869
17231TIP3   OH273183   3.875   5.643   6.611 -0.2047 -0.0346  0.1374
17231TIP3    H173184   3.878   5.736   6.632  0.4138  0.1900 -0.9479
17231TIP3    H273185   3.796   5.611   6.656 -0.9593  1.2084 -0.2858
17232TIP3   OH273186   2.755   4.380   6.193 -0.3549 -0.1385  0.0331
17232TIP3    H173187   2.848   4.389   6.211 -0.9029  0.2332  2.9091
17232TIP3    H273188   2.720   4.469   6.198 -0.7151 -0.1512 -2.0127
17233TIP3   OH273189   6.467   4.383   0.022  0.1123 -0.1924 -0.3463
17233TIP3    H173190   6.477   4.370   0.117 -1.7953 -0.1111 -0.1273
17233TIP3    H273191   6.531   4.322  -0.016 -0.2508 -1.4370  0.9630
17234TIP3   OH273192   5.129   5.621   2.590  0.3734 -0.1719  0.0531
17234TIP3    H173193   5.180   5.688   2.545  1.3547 -0.9771 -0.0658
17234TIP3    H273194   5.189   5.586   2.656 -0.3258 -0.5236  0.5116
17235TIP3   OH273195   5.732   3.803   1.803 -0.4652 -0.5275  0.0346
17235TIP3    H173196   5.702   3.894   1.798  2.3559  0.4485 -0.1373
17235TIP3    H273197   5.750   3.780   1.712 -0.2134 -0.9276  0.1875
17236TIP3   OH273198   4.890   5.096  16.774  0.1899 -0.0268 -0.0072
17236TIP3    H173199   4.965   5.084  16.716  0.4292  0.8152  0.1162
17236TIP3    H273200   4.896   5.024  16.836 -0.2043 -1.0721 -1.1662
17237TIP3   OH273201   5.528   5.362  15.317  0.1525  0.5573 -0.0702
17237TIP3    H173202   5.620   5.366  15.343  0.4420 -0.1433 -0.9575
17237TIP3    H273203   5.531   5.355  15.222 -0.8113 -0.0839 -0.0520
17238TIP3   OH273204   0.615   4.045   4.022 -0.0461 -0.4375  0.2077
17238TIP3    H173205   0.596   4.035   3.929  0.4951  0.4346  0.0067
17238TIP3    H273206   0.547   4.104   4.055 -0.1749 -0.6606  0.3456
17239TIP3   OH273207   6.482   1.176  15.309 -0.1284 -0.2534  0.0192
17239TIP3    H173208   6.390   1.175  15.335 -0.3442 -0.9806 -0.7610
17239TIP3    H273209   6.510   1.267  15.322 -0.6993 -0.2371  1.1322
17240TIP3   OH273210   4.421   1.520   1.157  0.3017 -0.3879  0.2266
17240TIP3    H173211   4.500   1.529   1.210  1.1170 -1.6267 -0.7562
17240TIP3    H273212   4.453   1.507   1.068 -0.9834 -1.7830 -0.0495
17241TIP3   OH273213   6.679   3.152  15.859 -0.0115 -0.2320  0.2300
17241TIP3    H173214   6.594   3.115  15.883  1.2820 -2.5582  1.3603
17241TIP3    H273215   6.691   3.126  15.767 -1.6161  2.2831 -0.7404
17242TIP3   OH273216   5.545   4.558  16.928 -0.0472 -0.6674 -0.4069
17242TIP3    H173217   5.622   4.569  16.984  0.1509 -2.5931 -0.2686
17242TIP3    H273218   5.580   4.560  16.839  0.2947 -2.2597 -0.3298
17243TIP3   OH273219   3.313   4.178  12.111 -0.4044 -0.1731 -0.0732
17243TIP3    H173220   3.231   4.168  12.062  0.5465  1.3312 -2.0648
17243TIP3    H273221   3.329   4.092  12.149 -2.7528 -0.5696  0.1076
17244TIP3   OH273222   6.784   1.227   2.091  0.1910 -0.7405 -0.6021
17244TIP3    H173223   6.782   1.266   2.003 -0.6510  0.2600 -0.1590
17244TIP3    H273224   6.705   1.261   2.133  2.1641  1.2811  1.6043
17245TIP3   OH273225   2.952   0.259   5.964  0.3478 -0.0046  0.0361
17245TIP3    H173226   2.961   0.228   6.054  0.9127 -1.3551 -0.4706
17245TIP3    H273227   2.886   0.328   5.969  0.4602  0.0128  1.4981
17246TIP3   OH273228   3.871   3.003   2.051  0.3353 -0.2597 -0.0668
17246TIP3    H173229   3.806   2.971   1.988  1.3675 -0.3104 -1.1205
17246TIP3    H273230   3.831   3.081   2.090 -0.1924 -0.0583 -1.0045
17247TIP3   OH273231   6.221   3.926   4.832 -0.6726  0.1619  0.2566
17247TIP3    H173232   6.289   3.880   4.783 -0.5530  2.2271 -1.5858
17247TIP3    H273233   6.248   3.919   4.923  0.6742 -1.2012 -0.2383
17248TIP3   OH273234   1.646   6.709   1.907  0.3407  0.4653 -0.8122
17248TIP3    H173235   1.606   6.789   1.874  0.0396  0.5367 -0.2738
17248TIP3    H273236   1.681   6.732   1.993 -1.1395 -0.3874  0.0303
17249TIP3   OH273237   3.182   2.342  13.893  0.6111 -0.9295 -0.0100
17249TIP3    H173238   3.150   2.281  13.959  0.0031 -0.6786 -0.0747
17249TIP3    H273239   3.275   2.355  13.916  0.8118 -2.0733 -0.1585
17250TIP3   OH273240   5.203   5.688   5.958 -0.5072  0.3179 -0.1261
17250TIP3    H173241   5.207   5.630   5.882  0.2746  1.2103 -0.7780
17250TIP3    H273242   5.231   5.774   5.925 -1.9821  1.1579  0.7397
17251TIP3   OH273243   4.437   1.943   1.571 -0.4555  0.2194 -0.4682
17251TIP3    H173244   4.419   1.972   1.660  1.2123  0.4766 -0.1994
17251TIP3    H273245   4.532   1.928   1.569 -0.2212  1.7149 -2.6276
17252TIP3   OH273246   5.895   6.064  14.754 -0.4859  0.3792  0.1269
17252TIP3    H173247   5.925   6.005  14.685  0.6044  1.2120 -0.1459
17252TIP3    H273248   5.848   6.133  14.707 -0.4921  0.4886  0.2940
17253TIP3   OH273249   0.238   0.986  17.102  0.0215  0.6365 -0.1418
17253TIP3    H173250   0.305   0.938  17.054 -0.4904  0.6519 -0.8794
17253TIP3    H273251   0.170   0.921  17.122 -0.5207  0.9803 -0.8596
17254TIP3   OH273252   0.436   5.009   4.984  0.2321  0.3083  0.4457
17254TIP3    H173253   0.347   4.998   5.016  0.0332 -0.6387 -0.4308
17254TIP3    H273254   0.430   5.074   4.915 -0.0162 -0.8301 -0.6161
17255TIP3   OH273255   2.222   5.979   3.122  0.3831 -0.6900 -0.6745
17255TIP3    H173256   2.247   6.064   3.086 -1.1224 -0.6141 -1.5881
17255TIP3    H273257   2.300   5.925   3.112  1.1485  0.3997 -0.6745
17256TIP3   OH273258   1.646   2.935   3.350 -0.1969  0.0642 -0.5996
17256TIP3    H173259   1.676   2.958   3.438 -1.6801  0.0667 -0.0906
17256TIP3    H273260   1.686   2.850   3.333 -0.6404 -0.3589  0.4454
17257TIP3   OH273261   2.511   0.029   0.329  0.2768 -0.3142 -0.5706
17257TIP3    H173262   2.442   0.093   0.349 -0.3790 -0.8867 -0.9721
17257TIP3    H273263   2.476  -0.055   0.360  1.4442 -0.3694  0.6344
17258TIP3   OH273264   6.564   2.854   0.797  0.5854 -0.2087  0.0468
17258TIP3    H173265   6.648   2.897   0.813  1.0369 -0.7707 -0.7895
17258TIP3    H273266   6.585   2.761   0.790 -0.2512 -0.4692  0.8602
17259TIP3   OH273267   2.310   4.232  13.344 -0.0808 -0.0296  0.0881
17259TIP3    H173268   2.360   4.308  13.317  0.3080 -0.5656 -0.7483
17259TIP3    H273269   2.346   4.160  13.291  0.7757 -1.1499  2.1457
17260TIP3   OH273270   2.819   6.207  15.422  0.0209  0.4669 -0.0905
17260TIP3    H173271   2.869   6.127  15.441  0.7027  0.9823  0.2956
17260TIP3    H273272   2.739   6.197  15.473  0.7190  0.6573  1.0552
17261TIP3   OH273273   3.199   6.273  16.541 -0.1950  0.0044  0.6346
17261TIP3    H173274   3.219   6.307  16.454 -0.4272  1.5506  1.1648
17261TIP3    H273275   3.108   6.245  16.536 -0.5346  1.0707  0.6600
17262TIP3   OH273276   1.534   5.956   6.203 -0.0407  0.4429 -0.4081
17262TIP3    H173277   1.470   5.967   6.273  0.0334  0.7919 -0.3908
17262TIP3    H273278   1.526   6.037   6.152 -2.3790 -1.1435 -2.6869
17263TIP3   OH273279   3.744   1.024  17.019  0.4003  0.2086 -0.1236
17263TIP3    H173280   3.820   1.076  16.993  0.0679  0.6722 -0.1631
17263TIP3    H273281   3.706   1.071  17.093  0.5344 -0.3760  0.3264
17264TIP3   OH273282   5.622   4.293  14.226 -0.4021 -0.4255  0.4687
17264TIP3    H173283   5.667   4.340  14.296  0.4293 -0.8102  0.2011
17264TIP3    H273284   5.544   4.256  14.268 -0.0047 -0.4947  1.1413
17265TIP3   OH273285   4.917   5.994   4.089 -0.1562 -0.2130  0.2569
17265TIP3    H173286   4.940   6.036   4.172  1.7943 -0.0907 -0.3483
17265TIP3    H273287   4.939   5.902   4.103 -0.5433 -0.3304  0.1186
17266TIP3   OH273288   0.084   2.656  15.598  0.2848  0.0392  0.0238
17266TIP3    H173289   0.094   2.716  15.524 -1.0007  0.2707  0.0112
17266TIP3    H273290   0.167   2.661  15.645  1.3534 -0.5927 -1.7509
17267TIP3   OH273291   1.791   6.671   0.023  0.2741 -0.0276  0.0958
17267TIP3    H173292   1.755   6.759   0.025 -0.0729 -0.1875  1.6184
17267TIP3    H273293   1.864   6.673   0.085  1.2578 -0.4054 -1.0293
17268TIP3   OH273294   0.576   1.972   5.201  0.0775  0.4005 -0.1919
17268TIP3    H173295   0.521   1.989   5.124  1.3400  0.0195 -1.1831
17268TIP3    H273296   0.613   1.886   5.185  0.3654  0.3368  0.8404
17269TIP3   OH273297   2.317   1.851  10.238  0.2427 -0.0133  0.3106
17269TIP3    H173298   2.257   1.925  10.226 -0.0152 -0.6558 -2.8135
17269TIP3    H273299   2.278   1.799  10.307 -1.0746  1.3019  0.5827
17270TIP3   OH273300   6.064   5.295   4.453  0.2461 -0.1913 -0.0652
17270TIP3    H173301   6.009   5.284   4.375  2.0677 -1.2048 -1.2419
17270TIP3    H273302   6.145   5.332   4.419  1.1585 -0.8934  1.3226
17271TIP3   OH273303   2.801   3.810  13.665 -0.4822  0.1843 -0.1213
17271TIP3    H173304   2.896   3.807  13.677 -0.7479 -0.4578  2.1283
17271TIP3    H273305   2.768   3.744  13.726 -2.4632  1.4113  0.1609
17272TIP3   OH273306   1.200   3.442   5.074 -0.2310  0.2806 -0.2319
17272TIP3    H173307   1.234   3.527   5.102  0.6390 -0.6911  1.7328
17272TIP3    H273308   1.105   3.454   5.070 -0.1917  1.0953  0.9072
17273TIP3   OH273309   6.475   0.254  10.382 -0.7713  0.2342  0.2615
17273TIP3    H173310   6.424   0.178  10.412 -1.6985  0.1274 -1.5598
17273TIP3    H273311   6.445   0.270  10.293 -0.0084  2.2667  0.3443
17274TIP3   OH273312   4.931   2.437  10.340 -0.2783  0.3493  0.2958
17274TIP3    H173313   4.984   2.452  10.262 -1.8767  1.5158 -0.5904
17274TIP3    H273314   4.847   2.406  10.306 -2.1100  3.9743  1.3513
17275TIP3   OH273315   2.483   3.262   3.133 -0.6479 -0.5488  0.0873
17275TIP3    H173316   2.569   3.303   3.128  0.2498 -2.4640 -0.8637
17275TIP3    H273317   2.481   3.219   3.219 -1.0209  0.2634  0.4873
17276TIP3   OH273318   2.566   2.070  13.285 -0.1835  1.2310 -0.1293
17276TIP3    H173319   2.589   2.157  13.252 -0.7766  0.1446 -3.5574
17276TIP3    H273320   2.507   2.034  13.220 -0.6966 -1.4225  1.7045
17277TIP3   OH273321   6.657   4.012   4.710  0.4676 -0.2939  0.2600
17277TIP3    H173322   6.616   3.931   4.740  0.7469 -0.7185 -0.5083
17277TIP3    H273323   6.714   3.986   4.637  1.1350  0.4776  0.4920
17278TIP3   OH273324   0.164   3.558  11.060  0.3220  0.8210 -0.2385
17278TIP3    H173325   0.088   3.568  11.003  0.1039 -0.5033 -0.1989
17278TIP3    H273326   0.229   3.514  11.005  0.7684  1.2135 -0.0252
17279TIP3   OH273327   0.831   6.193   5.140 -0.0673  0.3281  0.8173
17279TIP3    H173328   0.862   6.158   5.223 -0.4264  2.2093  1.7900
17279TIP3    H273329   0.832   6.288   5.152 -0.0160  0.6362 -1.3775
17280TIP3   OH273330   1.875   1.553   0.047  0.1507 -0.8757 -0.2604
17280TIP3    H173331   1.903   1.585   0.132 -0.7553 -2.1795  0.5487
17280TIP3    H273332   1.888   1.627  -0.012 -1.7633  0.9326  1.5246
17281TIP3   OH273333   0.876   5.579   1.602 -0.1905 -0.0354  0.8106
17281TIP3    H173334   0.916   5.656   1.645 -2.8699  0.8989  1.7391
17281TIP3    H273335   0.835   5.531   1.674 -1.6881 -0.3610 -0.2454
17282TIP3   OH273336   5.729   1.294  14.096  0.3180 -0.2482 -0.4976
17282TIP3    H173337   5.784   1.367  14.126  0.3348 -0.3279 -0.3365
17282TIP3    H273338   5.764   1.272  14.009 -0.3865  0.6694 -1.0345
17283TIP3   OH273339   3.182   3.553  11.337  0.9597 -0.0993 -0.0120
17283TIP3    H173340   3.125   3.516  11.403  1.5307  1.8939  1.6316
17283TIP3    H273341   3.215   3.477  11.288 -1.6992 -1.3665  0.1105
17284TIP3   OH273342   0.742   2.620  15.300  0.7759  0.0723  0.4209
17284TIP3    H173343   0.702   2.701  15.332  0.9433  0.2846  0.1018
17284TIP3    H273344   0.818   2.607  15.356  1.3176  0.6783 -0.1660
17285TIP3   OH273345   3.323   2.634  15.288  0.2422  0.2699 -0.5596
17285TIP3    H173346   3.329   2.719  15.244  1.2866  0.6245  0.2265
17285TIP3    H273347   3.391   2.581  15.246  0.3318  0.1788 -0.3018
17286TIP3   OH273348   1.281   2.456  14.237  0.2693  0.5380 -0.5793
17286TIP3    H173349   1.223   2.421  14.305  0.9389 -0.8787 -0.7382
17286TIP3    H273350   1.274   2.551  14.248 -1.1230  0.3666  0.2102
17287TIP3   OH273351   5.064   5.131  16.011 -0.4779  0.4543  0.6163
17287TIP3    H173352   5.069   5.038  16.033 -0.4395  0.5559  1.0515
17287TIP3    H273353   5.086   5.135  15.918  0.1405  0.0945  0.7432
17288TIP3   OH273354   2.154   2.423  11.118  0.0827 -0.1413 -0.4076
17288TIP3    H173355   2.074   2.405  11.167  0.9538 -0.8517  0.7848
17288TIP3    H273356   2.146   2.514  11.091 -0.9666 -0.1066  0.0178
17289TIP3   OH273357   6.431   3.066   1.209 -0.2467  0.0303 -0.2419
17289TIP3    H173358   6.388   3.115   1.139 -0.5061 -0.7618 -0.6391
17289TIP3    H273359   6.464   2.987   1.167  0.7325  0.1518  0.2654
17290TIP3   OH273360   0.837   4.302   3.090 -0.4584 -0.2746  0.1183
17290TIP3    H173361   0.805   4.292   3.180  0.1293  0.8140  0.4513
17290TIP3    H273362   0.865   4.393   3.084 -0.8422 -0.2339 -1.2893
17291TIP3   OH273363   6.805   5.486   5.219  0.2586 -0.1835 -0.1425
17291TIP3    H173364   6.839   5.532   5.143  0.8730 -0.4568 -0.0343
17291TIP3    H273365   6.872   5.498   5.287 -0.2587  0.0158  0.3405
17292TIP3   OH273366   3.432   3.072   3.024  0.1556 -0.5446 -0.4585
17292TIP3    H173367   3.436   2.978   3.037 -0.9253 -0.3707  1.3312
17292TIP3    H273368   3.431   3.108   3.113 -0.2072  1.1097 -1.1170
17293TIP3   OH273369   5.248   3.613  10.792  0.2340 -0.5575  0.0573
17293TIP3    H173370   5.283   3.547  10.733 -1.2008 -0.4693 -0.9074
17293TIP3    H273371   5.197   3.563  10.856 -2.6458 -0.2708 -1.9301
17294TIP3   OH273372   1.944   2.575   0.724 -0.6602 -0.1789 -0.2638
17294TIP3    H173373   1.923   2.606   0.812 -1.7033  0.4916 -0.7350
17294TIP3    H273374   2.020   2.626   0.698 -1.6264  1.1393 -0.5609
17295TIP3   OH273375   4.699   5.684  11.865  0.2856  0.1523  0.2305
17295TIP3    H173376   4.746   5.602  11.884  0.3770  0.2600  0.4700
17295TIP3    H273377   4.654   5.705  11.947  1.1350  0.9202  0.5050
17296TIP3   OH273378   1.112   6.718  15.982 -0.4752 -0.2458 -0.3220
17296TIP3    H173379   1.163   6.780  16.033 -0.3982 -1.4392  1.0802
17296TIP3    H273380   1.035   6.699  16.036 -2.8116  2.0586 -2.6950
17297TIP3   OH273381   6.711   4.973  14.694  0.4163 -0.3290  0.0727
17297TIP3    H173382   6.793   4.929  14.718  0.3237  0.5820  2.1989
17297TIP3    H273383   6.693   5.031  14.768 -1.1054  0.9684 -1.2800
17298TIP3   OH273384   6.203   4.768  13.405  0.0667  0.6155  0.3276
17298TIP3    H173385   6.250   4.802  13.480 -0.1386 -1.4803  1.4470
17298TIP3    H273386   6.140   4.837  13.382  0.0883  1.2514  2.1188
17299TIP3   OH273387   2.879   1.580  15.754 -0.5419 -0.0811 -0.5763
17299TIP3    H173388   2.945   1.519  15.787  0.4159 -0.1273 -2.5006
17299TIP3    H273389   2.844   1.537  15.675  0.9637  2.3473 -2.6094
17300TIP3   OH273390   1.778   1.996   4.500  0.4533 -0.1087 -0.3370
17300TIP3    H173391   1.775   2.028   4.590 -3.0762  0.2186 -0.5144
17300TIP3    H273392   1.822   1.911   4.506  0.3792 -0.0177  1.6885
17301TIP3   OH273393   5.853   4.719  15.177 -0.3150 -0.1983 -0.1742
17301TIP3    H173394   5.821   4.768  15.101 -2.2315  1.3064  1.5466
17301TIP3    H273395   5.925   4.772  15.211 -1.7610  1.0038  1.1120
17302TIP3   OH273396   2.185   3.882  16.237  0.6892 -0.1633  0.1491
17302TIP3    H173397   2.118   3.814  16.247  0.5415  0.0640  0.6971
17302TIP3    H273398   2.163   3.948  16.302  1.1239  0.1788 -0.0451
17303TIP3   OH273399   0.159   2.686   3.483  0.5225  0.4400  0.6533
17303TIP3    H173400   0.117   2.771   3.501  2.7313  1.4609  1.1630
17303TIP3    H273401   0.107   2.623   3.532 -0.6102  1.6329  1.0077
17304TIP3   OH273402   6.789   3.948   0.043 -0.0826  0.3702  0.0313
17304TIP3    H173403   6.876   3.910   0.054 -0.7826 -0.6559  2.5739
17304TIP3    H273404   6.799   4.039   0.071  0.3085  0.4107 -0.2451
17305TIP3   OH273405   1.911   6.120  15.952 -0.6353 -0.4047  0.4881
17305TIP3    H173406   1.815   6.119  15.950 -0.6991  2.3125 -1.5037
17305TIP3    H273407   1.936   6.101  15.862  0.6004  1.5602  0.3924
17306TIP3   OH273408   5.498   4.901   1.355 -0.4776  0.1665  0.0295
17306TIP3    H173409   5.544   4.930   1.434 -0.2751 -1.0958  0.3873
17306TIP3    H273410   5.523   4.965   1.288  1.3660 -0.1856  0.3586
17307TIP3   OH273411   0.271   1.757   5.238  0.1274  0.1737 -0.0632
17307TIP3    H173412   0.357   1.775   5.275  0.2244 -1.0373  0.3457
17307TIP3    H273413   0.221   1.718   5.310 -0.3010 -0.4484 -0.6854
17308TIP3   OH273414   6.391   0.802   3.456 -0.6512 -0.4091  0.5346
17308TIP3    H173415   6.461   0.853   3.495 -0.0904 -2.2164  1.9147
17308TIP3    H273416   6.402   0.815   3.361  1.7775 -1.0003  0.7146
17309TIP3   OH273417   3.253   6.531   1.524 -0.3039 -0.3031 -0.1803
17309TIP3    H173418   3.158   6.531   1.538 -0.2795 -1.6799  0.0763
17309TIP3    H273419   3.264   6.519   1.430 -0.3801  0.8367 -0.3476
17310TIP3   OH273420   2.174   1.513   5.857 -0.0083  0.4706  0.0598
17310TIP3    H173421   2.267   1.502   5.838  0.0181  3.1241 -1.5889
17310TIP3    H273422   2.170   1.528   5.952  1.1172 -0.7071  0.3003
17311TIP3   OH273423   5.036   2.160  10.685 -0.0007 -0.0373  0.4171
17311TIP3    H173424   5.110   2.100  10.672  1.0576  0.8898  1.9714
17311TIP3    H273425   4.994   2.129  10.766 -0.7546  0.0000  0.0417
17312TIP3   OH273426   0.704   0.278   2.066  0.3886  0.1836 -0.1306
17312TIP3    H173427   0.797   0.272   2.043  0.3134  0.8143 -0.6097
17312TIP3    H273428   0.700   0.343   2.136  0.5706 -1.4727  1.4556
17313TIP3   OH273429   2.672   4.807  11.513 -1.0015 -0.0286 -0.7845
17313TIP3    H173430   2.761   4.814  11.549 -0.0392 -1.5570 -2.7497
17313TIP3    H273431   2.617   4.788  11.589  1.0327 -3.6402 -0.1035
17314TIP3   OH273432   2.731   0.905  16.650  0.0764 -0.4628 -0.7484
17314TIP3    H173433   2.686   0.873  16.572  0.1780 -1.1235 -0.5359
17314TIP3    H273434   2.743   0.828  16.706 -1.0922  0.2115  0.4640
17315TIP3   OH273435   3.529   1.573  13.342  0.5492 -0.1848  0.5411
17315TIP3    H173436   3.512   1.511  13.413  1.1224 -1.7804 -0.6810
17315TIP3    H273437   3.460   1.639  13.351 -1.7710 -2.4665  0.2384
17316TIP3   OH273438   4.437   3.378  10.948 -0.1008  0.1104  0.2453
17316TIP3    H173439   4.483   3.373  10.864 -1.5000  0.9964 -0.6035
17316TIP3    H273440   4.361   3.320  10.937 -0.4876  0.5102  0.7635
17317TIP3   OH273441   5.824   5.262   3.152  0.4949  0.0021 -0.2853
17317TIP3    H173442   5.868   5.178   3.137 -0.4287 -0.3196 -1.2839
17317TIP3    H273443   5.778   5.251   3.235  0.5707 -0.4073 -0.2973
17318TIP3   OH273444   5.814   4.566   0.520  0.2040  0.5247  0.4745
17318TIP3    H173445   5.747   4.527   0.462 -0.5758  1.7835  0.5043
17318TIP3    H273446   5.764   4.627   0.575  0.8866 -0.9278  2.7296
17319TIP3   OH273447   4.503   4.638  12.069  0.4386  0.3565  0.3273
17319TIP3    H173448   4.552   4.581  12.127  3.3971  2.6308  0.2122
17319TIP3    H273449   4.460   4.702  12.127 -0.7759 -0.4203  0.3010
17320TIP3   OH273450   5.663   0.076   5.911  0.5269  0.0325  0.3041
17320TIP3    H173451   5.675   0.164   5.949 -0.8836  0.6868 -0.7351
17320TIP3    H273452   5.577   0.048   5.941  0.8905 -0.9394  0.4674
17321TIP3   OH273453   3.558   5.416   4.629  0.3985  0.1193  0.0507
17321TIP3    H173454   3.476   5.373   4.653  0.4811  0.2913  0.6452
17321TIP3    H273455   3.597   5.442   4.712  0.7881  0.5335 -0.2560
17322TIP3   OH273456   2.037   0.726   3.099  0.3852 -0.0437  0.1512
17322TIP3    H173457   2.106   0.722   3.032 -1.1185 -1.0820 -1.4076
17322TIP3    H273458   2.053   0.650   3.154 -0.2912 -1.0894 -1.0494
17323TIP3   OH273459   5.842   3.235  11.690  0.0115  0.3464  0.4402
17323TIP3    H173460   5.857   3.144  11.716  1.2734  0.4585  0.1393
17323TIP3    H273461   5.778   3.268  11.754 -2.0214 -1.3203 -0.6777
17324TIP3   OH273462   3.242   3.640   2.363  0.5869  0.1542 -0.2228
17324TIP3    H173463   3.253   3.729   2.396  1.9093  0.5660 -1.7048
17324TIP3    H273464   3.316   3.592   2.400  0.3305 -0.1375 -0.0873
17325TIP3   OH273465   4.176   6.083  15.146 -0.3834 -0.4336  0.0592
17325TIP3    H173466   4.263   6.120  15.160 -1.1697  1.3327  0.4180
17325TIP3    H273467   4.182   5.995  15.182  0.2931  0.8514  3.2954
17326TIP3   OH273468   3.587   0.383   2.723 -0.3235 -0.3528  0.5104
17326TIP3    H173469   3.657   0.448   2.727 -0.7518  0.1734 -0.3841
17326TIP3    H273470   3.588   0.342   2.810  0.0094  0.7755  1.0532
17327TIP3   OH273471   2.334   0.579   4.951 -0.0713 -0.2239  0.2756
17327TIP3    H173472   2.310   0.565   4.859  0.1146  1.2745 -0.0196
17327TIP3    H273473   2.428   0.562   4.954 -0.1564 -0.6844  0.2688
17328TIP3   OH273474   2.952   0.825  11.060 -0.9406  0.8329  0.4032
17328TIP3    H173475   2.858   0.841  11.048 -1.1640 -1.3828 -1.1997
17328TIP3    H273476   2.974   0.763  10.991  1.3919  0.1528  1.7151
17329TIP3   OH273477   4.326   1.008   6.835 -0.1487  0.9261  0.2743
17329TIP3    H173478   4.313   0.950   6.910 -2.2750  0.8903 -0.1088
17329TIP3    H273479   4.417   0.991   6.808  0.6920  1.0238  2.8805
17330TIP3   OH273480   5.411   3.142   5.395 -0.0766 -0.2982  0.0302
17330TIP3    H173481   5.376   3.218   5.348 -1.6782 -1.2692 -0.4113
17330TIP3    H273482   5.345   3.123   5.462  1.6087  0.3228  1.9018
17331TIP3   OH273483   3.231   5.952  14.590  0.0707 -0.6959  0.1619
17331TIP3    H173484   3.285   6.027  14.567 -0.1557 -0.5281  0.1791
17331TIP3    H273485   3.143   5.974  14.560 -0.2787 -0.3644  1.3870
17332TIP3   OH273486   0.244   5.409   4.980 -0.3061  0.3666  0.2621
17332TIP3    H173487   0.209   5.498   4.981 -1.0041  0.0913  1.1884
17332TIP3    H273488   0.325   5.414   5.031  0.1391  0.6533 -0.4621
17333TIP3   OH273489   6.596   3.437  13.199 -0.5125  0.0428 -0.1212
17333TIP3    H173490   6.619   3.364  13.142  0.0788 -0.6742  1.0073
17333TIP3    H273491   6.587   3.397  13.286 -1.4277  1.1036  0.2816
17334TIP3   OH273492   5.715   5.349   5.372 -0.2238  0.0728 -0.1011
17334TIP3    H173493   5.698   5.429   5.322 -2.3883  0.5020  1.2412
17334TIP3    H273494   5.697   5.373   5.462  2.7111 -0.9620  0.8160
17335TIP3   OH273495   3.119   0.276  16.826 -0.8285  0.3534 -0.1238
17335TIP3    H173496   3.151   0.274  16.916  0.6718  2.0685 -0.5799
17335TIP3    H273497   3.068   0.356  16.820 -0.8957  0.2608 -0.8048
17336TIP3   OH273498   2.175   0.285   6.885 -0.0187  0.6956  0.4878
17336TIP3    H173499   2.260   0.325   6.864 -0.1092  1.3727  1.3984
17336TIP3    H273500   2.111   0.349   6.853 -0.1691  0.9171  1.2219
17337TIP3   OH273501   6.445   0.093  16.358  0.0075 -0.6026  0.1897
17337TIP3    H173502   6.429   0.043  16.439 -2.7022 -0.5486 -0.2864
17337TIP3    H273503   6.444   0.184  16.387 -0.3621 -0.6078  0.1971
17338TIP3   OH273504   1.015   3.494  15.364  0.7277  0.0027 -0.8166
17338TIP3    H173505   1.037   3.411  15.408  2.0665  0.3699 -0.7617
17338TIP3    H273506   1.092   3.512  15.309 -0.3169  0.2902 -2.1984
17339TIP3   OH273507   1.257   0.433  13.622 -0.0604  0.4251  0.4671
17339TIP3    H173508   1.238   0.412  13.530  0.4669  0.7699  0.2780
17339TIP3    H273509   1.173   0.421  13.667  0.0900 -1.5983  0.2712
17340TIP3   OH273510   1.308   0.728  13.325  0.5297  0.3342  0.2055
17340TIP3    H173511   1.381   0.788  13.338  0.6314 -0.0744  1.6177
17340TIP3    H273512   1.254   0.739  13.404  0.5655 -1.4405  0.4967
17341TIP3   OH273513   4.270   1.784  16.639 -0.1611  0.2196  0.0151
17341TIP3    H173514   4.268   1.845  16.565 -2.0925  0.9973  0.6768
17341TIP3    H273515   4.266   1.698  16.599  0.7952  0.5565 -0.8518
17342TIP3   OH273516   5.552   4.751  10.935 -0.0090 -0.3472  0.5190
17342TIP3    H173517   5.562   4.842  10.907 -0.9576 -0.0825  1.0401
17342TIP3    H273518   5.589   4.700  10.863  0.6086  0.4451  0.2577
17343TIP3   OH273519   2.779   6.361  12.004 -0.3277  0.2056 -0.6084
17343TIP3    H173520   2.834   6.426  12.047 -1.5802  0.9621 -0.0997
17343TIP3    H273521   2.818   6.277  12.026 -0.6532  0.6070  1.6187
17344TIP3   OH273522   5.473   2.341   0.541  0.0047 -0.3843 -0.6102
17344TIP3    H173523   5.528   2.406   0.496 -0.7938  0.1338 -0.8474
17344TIP3    H273524   5.520   2.258   0.530  1.1075  0.1692 -0.1889
17345TIP3   OH273525   3.029   6.199  16.095 -0.4299  0.3136  0.2245
17345TIP3    H173526   2.934   6.199  16.082 -0.3349  1.0480 -0.5007
17345TIP3    H273527   3.059   6.281  16.057  0.6822 -0.6023 -0.9396
17346TIP3   OH273528   2.673   1.164  12.263  0.4572  0.5228  0.0476
17346TIP3    H173529   2.766   1.161  12.241  0.0342  1.0231 -1.9791
17346TIP3    H273530   2.636   1.085  12.223  0.0564  0.1660  1.1071
17347TIP3   OH273531   2.661   3.338   2.470  0.2895  0.7968 -0.5309
17347TIP3    H173532   2.663   3.423   2.425  2.5984  1.0678  0.0080
17347TIP3    H273533   2.599   3.351   2.542  1.4291  2.4168  0.2116
17348TIP3   OH273534   0.399   3.556   4.278 -0.1484 -0.0458 -0.2346
17348TIP3    H173535   0.358   3.642   4.294  0.3411  0.5018 -1.8199
17348TIP3    H273536   0.421   3.524   4.365 -3.0677  0.0691  0.6160
17349TIP3   OH273537   4.583   0.870   0.201 -0.1737 -0.8056 -0.1819
17349TIP3    H173538   4.499   0.848   0.242 -0.3712 -2.3289 -1.3518
17349TIP3    H273539   4.560   0.899   0.113  0.4220  0.1985 -0.0081
17350TIP3   OH273540   2.010   3.929   0.547  0.4839 -0.0343 -0.1466
17350TIP3    H173541   2.104   3.917   0.532  0.5203 -0.1052  0.1239
17350TIP3    H273542   1.981   3.986   0.477  0.6470 -0.3625 -0.4823
17351TIP3   OH273543   5.413   4.812   3.841  0.5728 -0.5875 -0.3418
17351TIP3    H173544   5.495   4.764   3.828  0.4998 -0.3456 -1.7705
17351TIP3    H273545   5.358   4.785   3.768 -0.4396 -0.3430  0.3245
17352TIP3   OH273546   2.981   2.027   4.597  0.1502  0.6222  0.6292
17352TIP3    H173547   3.028   2.021   4.514  0.0094 -0.0679  0.5921
17352TIP3    H273548   2.972   1.936   4.626 -1.4138  0.7128  0.4906
17353TIP3   OH273549   5.271   3.663  12.994 -0.4265  0.0662 -0.2491
17353TIP3    H173550   5.360   3.695  13.008 -0.2781 -0.4103 -0.0917
17353TIP3    H273551   5.281   3.568  12.982 -1.1177 -0.3075  1.8652
17354TIP3   OH273552   5.407   6.076  15.745 -0.0745  0.3433 -0.5847
17354TIP3    H173553   5.502   6.072  15.758  0.0181  2.8859 -0.1720
17354TIP3    H273554   5.395   6.056  15.652  0.9497  0.8757 -0.8401
17355TIP3   OH273555   1.368   1.016  14.620 -0.6029  1.0721 -0.9238
17355TIP3    H173556   1.278   0.991  14.598 -1.2887  2.3885  0.3455
17355TIP3    H273557   1.368   1.026  14.715  1.0939  0.3144 -0.8236
17356TIP3   OH273558   2.202   3.024   1.601 -0.0443 -0.0152 -0.0717
17356TIP3    H173559   2.235   3.000   1.688 -1.4719 -2.1001 -0.0589
17356TIP3    H273560   2.280   3.049   1.552  1.0486 -0.8829  1.1813
17357TIP3   OH273561   6.549   3.830   1.716 -0.4031 -0.2494  0.5480
17357TIP3    H173562   6.601   3.841   1.637 -1.1490 -2.3607 -0.2927
17357TIP3    H273563   6.545   3.917   1.756  1.6331  0.4246 -0.6814
17358TIP3   OH273564   3.335   0.734   1.236 -0.1086 -0.6112 -0.1181
17358TIP3    H173565   3.315   0.812   1.183  1.5179 -0.4472 -0.5165
17358TIP3    H273566   3.340   0.766   1.326  0.4079 -0.2639 -0.2649
17359TIP3   OH273567   0.879   0.338  15.046 -1.0756 -0.4969 -0.3078
17359TIP3    H173568   0.929   0.378  15.117 -1.3023 -1.0533  0.1757
17359TIP3    H273569   0.919   0.251  15.034 -1.3154 -0.5741 -0.5635
17360TIP3   OH273570   2.872   6.646  17.129 -0.4330 -0.1080  0.4737
17360TIP3    H173571   2.811   6.585  17.168  0.6484 -1.0496  0.7220
17360TIP3    H273572   2.945   6.591  17.099 -0.5086  0.7772 -1.3912
17361TIP3   OH273573   0.529   5.345   2.271  0.0145 -0.9551  0.7938
17361TIP3    H173574   0.595   5.280   2.246  0.8165 -0.4450  1.5310
17361TIP3    H273575   0.446   5.307   2.243  0.8077 -0.6178 -2.1514
17362TIP3   OH273576   4.891   0.350  16.017 -0.0808 -0.1855  0.1576
17362TIP3    H173577   4.867   0.411  15.947 -0.2410 -0.0825  0.3008
17362TIP3    H273578   4.982   0.369  16.036 -0.0509 -0.1830  0.0064
17363TIP3   OH273579   4.947   1.858  11.314 -0.2057  0.1416 -0.0630
17363TIP3    H173580   4.955   1.874  11.220 -0.1512  0.5073  0.0061
17363TIP3    H273581   4.971   1.940  11.355  0.8709 -0.3536  0.3147
17364TIP3   OH273582   6.786   3.959   1.170 -0.4827 -0.4911  0.3922
17364TIP3    H173583   6.870   3.920   1.192 -0.4940 -0.2455  0.8766
17364TIP3    H273584   6.779   4.035   1.228 -1.1735 -0.6860  0.5733
17365TIP3   OH273585   1.840   6.183   5.558 -0.2332  0.5575 -0.0297
17365TIP3    H173586   1.822   6.275   5.542 -0.8532  0.2038 -1.4181
17365TIP3    H273587   1.765   6.137   5.520  0.5467 -0.5693 -0.2355
17366TIP3   OH273588   0.051   3.279  12.722  0.6327  0.3288  0.0262
17366TIP3    H173589  -0.000   3.204  12.752 -0.2346  1.0900  0.4709
17366TIP3    H273590   0.093   3.248  12.641 -2.5686  0.4653 -1.7777
17367TIP3   OH273591   6.738   5.998   6.587  0.4104 -0.6155  0.0373
17367TIP3    H173592   6.762   5.938   6.658 -0.0502  0.7091  1.3369
17367TIP3    H273593   6.700   5.942   6.520  0.6141 -1.8587  0.9430
17368TIP3   OH273594   5.174   2.433  14.125  0.3457 -0.4073 -0.4790
17368TIP3    H173595   5.251   2.464  14.079 -0.3741  1.6518 -0.3732
17368TIP3    H273596   5.194   2.342  14.148  1.9284 -0.5077 -2.1431
17369TIP3   OH273597   0.677   0.032   4.712 -0.1880 -0.2329  0.1173
17369TIP3    H173598   0.602   0.056   4.657 -0.5809 -1.2725  0.1887
17369TIP3    H273599   0.639  -0.023   4.781  0.3442  0.7921  1.2440
17370TIP3   OH273600   5.219   4.306  11.270  0.5515  0.5241 -0.2280
17370TIP3    H173601   5.304   4.346  11.291  0.2774  1.0390 -0.1052
17370TIP3    H273602   5.158   4.380  11.265 -0.8245 -0.1386  4.0950
17371TIP3   OH273603   3.024   3.473  11.578  0.4687  0.3419 -0.2847
17371TIP3    H173604   2.998   3.428  11.658  1.3586  0.8173  0.2697
17371TIP3    H273605   3.107   3.515  11.599  0.2090  1.3173 -1.1444
17372TIP3   OH273606   3.873   6.406  16.753 -0.0926 -0.0130 -0.1621
17372TIP3    H173607   3.953   6.458  16.757  1.5076 -2.4686  0.6990
17372TIP3    H273608   3.824   6.444  16.679  1.8704  1.4859 -0.7427
17373TIP3   OH273609   5.892   0.136   6.105  0.0829  0.1048  0.4742
17373TIP3    H173610   5.842   0.057   6.125  2.5502 -1.9905 -1.2222
17373TIP3    H273611   5.827   0.206   6.100 -1.9794 -1.5005  3.5713
17374TIP3   OH273612   6.743   1.986  16.741  0.5464 -0.5260 -0.1704
17374TIP3    H173613   6.801   1.946  16.806  1.8297  3.3445  1.1650
17374TIP3    H273614   6.800   2.005  16.666 -0.4189 -2.6461 -1.5069
17375TIP3   OH273615   6.787   5.032   3.133  0.6219 -0.2351  0.5272
17375TIP3    H173616   6.733   5.108   3.153 -0.7847 -1.1152  0.1520
17375TIP3    H273617   6.814   5.046   3.042  2.0877  0.8196  1.1022
17376TIP3   OH273618   5.822   3.815  16.220  0.2265 -0.1033 -0.0467
17376TIP3    H173619   5.869   3.798  16.302  0.1910 -2.7155 -0.5210
17376TIP3    H273620   5.892   3.831  16.156  0.2765  1.1989  0.3192
17377TIP3   OH273621   4.681   4.204  14.172  0.2430 -0.4056  0.4608
17377TIP3    H173622   4.598   4.197  14.125 -0.4118  2.0995  1.2017
17377TIP3    H273623   4.695   4.297  14.184  2.9528 -0.8048  0.7909
17378TIP3   OH273624   2.665   0.204   3.311  0.0750  0.3450  0.3314
17378TIP3    H173625   2.619   0.284   3.285 -2.7251 -1.4069 -0.3486
17378TIP3    H273626   2.684   0.216   3.404  0.6843  2.2479 -0.0111
17379TIP3   OH273627   5.128   3.049   3.817 -0.3765 -0.2866  0.0531
17379TIP3    H173628   5.106   3.013   3.731 -0.2707  1.7126 -0.8215
17379TIP3    H273629   5.222   3.034   3.826  0.1073  1.8571 -1.3162
17380TIP3   OH273630   0.785   3.273  15.652 -0.6123 -0.0881 -0.2596
17380TIP3    H173631   0.800   3.295  15.744 -3.9379  1.2878  0.0100
17380TIP3    H273632   0.761   3.180  15.654 -2.4067  0.3618  0.5260
17381TIP3   OH273633   3.987   2.598  12.314 -0.2501  0.7515 -0.1839
17381TIP3    H173634   3.925   2.670  12.326 -0.3658  0.6556 -0.2061
17381TIP3    H273635   4.048   2.606  12.388  0.1677  1.3092 -0.5784
17382TIP3   OH273636   4.313   1.291   6.775 -0.1155  0.1841  0.2269
17382TIP3    H173637   4.287   1.199   6.787  1.1934 -0.2205  0.0538
17382TIP3    H273638   4.405   1.293   6.801  0.0691  1.2926 -0.4957
17383TIP3   OH273639   4.479   4.487  14.042  0.3968  0.5513  0.6837
17383TIP3    H173640   4.574   4.474  14.050  0.4466  1.5683  1.8517
17383TIP3    H273641   4.454   4.434  13.966  1.7936 -0.2448  0.7620
17384TIP3   OH273642   5.566   4.306   3.833 -0.0462 -0.2367 -0.2220
17384TIP3    H173643   5.626   4.308   3.759 -0.9897 -1.5960 -1.0589
17384TIP3    H273644   5.595   4.377   3.890  1.3172  0.1761 -1.4035
17385TIP3   OH273645   1.199   2.674  12.302  0.1680 -0.2720  0.0639
17385TIP3    H173646   1.162   2.720  12.227  0.7546 -1.2348 -0.8278
17385TIP3    H273647   1.293   2.693  12.298 -0.0941  1.5582  1.8932
17386TIP3   OH273648   6.668   2.586   1.873  0.0011 -0.6410  0.1334
17386TIP3    H173649   6.587   2.537   1.882  0.1207 -0.8007  0.3425
17386TIP3    H273650   6.660   2.632   1.790 -0.6379 -0.0291  0.5278
17387TIP3   OH273651   4.847   0.190  11.649  0.1582  0.7657  0.8014
17387TIP3    H173652   4.794   0.201  11.570  0.0648  1.0804  0.9091
17387TIP3    H273653   4.788   0.212  11.721  1.0751  3.3108  0.8129
17388TIP3   OH273654   5.974   0.009   1.090  0.1471  0.0470  0.0686
17388TIP3    H173655   6.058   0.037   1.052  0.3643 -1.2437 -0.4519
17388TIP3    H273656   5.993  -0.003   1.183  0.7287 -0.8964 -0.1620
17389TIP3   OH273657   2.348   5.119   5.946 -0.1890  0.2342 -0.4127
17389TIP3    H173658   2.422   5.064   5.973 -0.4852 -1.3115 -2.5869
17389TIP3    H273659   2.368   5.206   5.981  2.3264 -0.3054 -0.4219
17390TIP3   OH273660   6.362   3.706  12.896 -0.5619 -0.4030 -0.0168
17390TIP3    H173661   6.433   3.745  12.948 -0.1379  0.2446 -1.0566
17390TIP3    H273662   6.330   3.633  12.949  0.3732 -0.2224  0.8072
17391TIP3   OH273663   0.531   3.520  15.928  0.1773  0.0014  0.0751
17391TIP3    H173664   0.534   3.537  16.022  1.4517 -1.3937  0.3016
17391TIP3    H273665   0.460   3.576  15.896  0.5731  1.4597  1.6539
17392TIP3   OH273666   4.543   6.138   5.594 -0.0371 -0.3574 -0.1299
17392TIP3    H173667   4.478   6.188   5.643  0.4000  0.6531 -0.5670
17392TIP3    H273668   4.597   6.096   5.661 -1.0034 -1.0250  0.2343
17393TIP3   OH273669   3.772   3.401   5.452  0.0521  0.2419  0.0066
17393TIP3    H173670   3.684   3.379   5.484  0.4676  2.1313  2.5660
17393TIP3    H273671   3.772   3.370   5.361 -2.3077 -2.2758  0.7913
17394TIP3   OH273672   3.187   4.159   2.755  0.2636  0.0582  0.1861
17394TIP3    H173673   3.210   4.133   2.666 -0.7831 -0.7149  0.1340
17394TIP3    H273674   3.175   4.254   2.751 -0.8987 -0.1279 -0.7396
17395TIP3   OH273675   1.298   0.079   0.822  0.1723 -0.0876  0.3504
17395TIP3    H173676   1.317  -0.009   0.855  0.2348 -0.1891  0.0450
17395TIP3    H273677   1.373   0.100   0.767  0.3684  0.3367  0.7788
17396TIP3   OH273678   0.454   5.303  16.149 -0.9251  0.0059 -0.3995
17396TIP3    H173679   0.497   5.388  16.161  1.9089 -1.2674 -1.1001
17396TIP3    H273680   0.441   5.296  16.055 -0.6818 -0.5510 -0.3913
17397TIP3   OH273681   4.464   4.225  15.841 -0.5395  0.2336  0.2461
17397TIP3    H173682   4.529   4.174  15.792 -0.4282 -0.0146  0.6427
17397TIP3    H273683   4.473   4.314  15.808  0.2338  0.2645  0.5198
17398TIP3   OH273684   3.984   6.548   4.207  0.2234 -0.1423 -0.3597
17398TIP3    H173685   4.056   6.495   4.241  0.0171 -1.2220 -1.5587
17398TIP3    H273686   4.025   6.608   4.144 -0.1853 -2.4125 -2.9019
17399TIP3   OH273687   1.328   6.007   4.251  0.4690 -0.4286 -0.2552
17399TIP3    H173688   1.278   6.088   4.258 -1.0870 -1.1875 -2.0915
17399TIP3    H273689   1.375   6.015   4.168  0.7430 -1.1714 -0.1756
17400TIP3   OH273690   4.893   2.670   1.229  0.1543  0.1873  0.6269
17400TIP3    H173691   4.978   2.643   1.263 -0.2597 -0.4716  1.1724
17400TIP3    H273692   4.833   2.600   1.256 -0.5607  0.6468  0.2638
17401TIP3   OH273693   6.745   1.433   5.139  0.2068 -0.3749 -0.3498
17401TIP3    H173694   6.731   1.512   5.192  2.9978  0.1675 -0.3357
17401TIP3    H273695   6.685   1.443   5.065 -0.0435  1.3684  0.0653
17402TIP3   OH273696   0.264   6.247  16.121  0.5841  0.4443 -0.0933
17402TIP3    H173697   0.176   6.257  16.160  0.4083  0.4999 -0.5042
17402TIP3    H273698   0.324   6.262  16.194  0.2503  0.4256  0.1889
17403TIP3   OH273699   4.756   1.948  14.833  0.4152 -0.6292 -0.0352
17403TIP3    H173700   4.674   1.991  14.808  0.9597  0.1028 -0.5446
17403TIP3    H273701   4.754   1.865  14.785  0.6644  0.0328 -1.2107
17404TIP3   OH273702   5.768   2.003  11.159 -0.1761  0.0439  0.1986
17404TIP3    H173703   5.825   2.019  11.234  1.0401  0.3736 -0.7952
17404TIP3    H273704   5.824   2.013  11.083 -0.9981 -1.9804 -0.7058
17405TIP3   OH273705   4.097   5.016  13.726  0.2950  0.6132 -0.0199
17405TIP3    H173706   4.172   4.967  13.758 -0.4919  0.2804  1.3353
17405TIP3    H273707   4.021   4.967  13.757 -0.4854  1.4568 -0.5806
17406TIP3   OH273708   5.858   6.342  10.675 -0.3723  0.4278 -0.7796
17406TIP3    H173709   5.874   6.407  10.744  0.4046  2.4309 -2.7854
17406TIP3    H273710   5.915   6.269  10.697  1.8769  2.1444 -0.7221
17407TIP3   OH273711   2.463   3.485  11.247  0.1117 -0.6153 -0.1590
17407TIP3    H173712   2.520   3.517  11.177 -1.1568 -0.6542 -1.2354
17407TIP3    H273713   2.506   3.406  11.279  0.5121 -0.8213 -1.1843
17408TIP3   OH273714   2.802   0.163   4.209 -0.0808  0.3512  0.1942
17408TIP3    H173715   2.723   0.194   4.253 -0.1062  3.0866 -1.6782
17408TIP3    H273716   2.863   0.236   4.213  1.9833 -1.3320  0.6045
17409TIP3   OH273717   5.284   6.606  15.539  0.3085 -0.5946  0.1113
17409TIP3    H173718   5.252   6.695  15.554  0.5848 -0.3630 -0.6133
17409TIP3    H273719   5.351   6.616  15.471 -2.6175 -1.8780 -3.0935
17410TIP3   OH273720   6.587   1.918   2.227  0.2570 -0.2588  0.1965
17410TIP3    H173721   6.529   1.967   2.169 -0.7844 -0.1930  1.2613
17410TIP3    H273722   6.657   1.979   2.249  0.9069 -0.4434 -1.3590
17411TIP3   OH273723   5.644   5.271   3.372  0.5752 -0.3506 -0.0892
17411TIP3    H173724   5.651   5.356   3.417 -0.4064 -0.0230 -0.5417
17411TIP3    H273725   5.568   5.229   3.412 -0.2890 -0.0717 -1.4110
17412TIP3   OH273726   2.102   6.129   4.532  0.1137 -0.0414 -0.4120
17412TIP3    H173727   2.076   6.096   4.446 -0.6417 -0.3577 -0.0757
17412TIP3    H273728   2.121   6.050   4.583 -1.5515  0.0095  0.3529
17413TIP3   OH273729   4.209   6.152   1.509  0.1445  0.3772  0.0656
17413TIP3    H173730   4.203   6.248   1.514 -0.6925  0.2737  1.2329
17413TIP3    H273731   4.302   6.133   1.521  0.6999  1.1595 -2.5894
17414TIP3   OH273732   6.261   0.637  14.901  0.1167  0.0838 -0.1461
17414TIP3    H173733   6.246   0.714  14.847 -0.3183 -0.5672 -0.9579
17414TIP3    H273734   6.350   0.609  14.881  0.7480  1.1319  1.1185
17415TIP3   OH273735   0.438   1.119  13.293  0.0555  0.3392  0.9489
17415TIP3    H173736   0.520   1.129  13.245  0.6531 -0.5181  1.7840
17415TIP3    H273737   0.441   1.030  13.328 -1.3203  0.2286  0.8100
17416TIP3   OH273738   1.737   2.410   2.429 -0.7961 -0.2901  0.1680
17416TIP3    H173739   1.648   2.447   2.420 -0.4201  0.8676  1.0243
17416TIP3    H273740   1.795   2.483   2.406  0.0015  0.2375  3.6402
17417TIP3   OH273741   6.436   4.449  13.640 -0.2811  0.2062  0.1726
17417TIP3    H173742   6.343   4.429  13.624 -0.0887 -1.9169  1.4405
17417TIP3    H273743   6.483   4.397  13.574  0.1273 -1.7203  1.9104
17418TIP3   OH273744   3.394   3.540  14.778 -0.4106 -0.6112  0.3216
17418TIP3    H173745   3.396   3.574  14.867  2.8905 -1.8860  0.7995
17418TIP3    H273746   3.486   3.533  14.753 -1.2595 -1.1127 -2.8857
17419TIP3   OH273747   0.766   2.110   0.990 -0.1004  0.0494  0.5589
17419TIP3    H173748   0.738   2.032   0.941  1.0036  1.0478 -1.7382
17419TIP3    H273749   0.861   2.113   0.978  0.0463  0.9145  1.9021
17420TIP3   OH273750   2.107   2.677  11.038  0.5828 -0.1783 -0.0820
17420TIP3    H173751   2.187   2.712  10.998 -0.9437  1.4404 -1.8531
17420TIP3    H273752   2.055   2.647  10.963 -0.5025 -1.1847  1.0577
17421TIP3   OH273753   5.828   3.597   5.472  0.1396  0.1942 -0.6065
17421TIP3    H173754   5.734   3.581   5.471 -0.3238  2.4870  1.2232
17421TIP3    H273755   5.857   3.576   5.383 -2.1219 -0.3189 -1.2617
17422TIP3   OH273756   4.833   6.795  16.993 -0.3496  0.5732  0.0531
17422TIP3    H173757   4.766   6.825  17.055 -0.4520 -1.3973  0.9362
17422TIP3    H273758   4.791   6.724  16.945  0.3533  0.8494 -0.9844
17423TIP3   OH273759   0.822   3.909  14.260  0.2585 -0.9330 -0.0417
17423TIP3    H173760   0.814   3.939  14.351  0.2156 -1.6935  0.2129
17423TIP3    H273761   0.898   3.956  14.225  1.6676 -2.3419  1.0834
17424TIP3   OH273762   3.504   3.097  11.235 -0.2501 -0.3115  0.1347
17424TIP3    H173763   3.502   3.003  11.218 -0.4312 -0.1514 -0.7205
17424TIP3    H273764   3.519   3.137  11.150 -1.3385  0.4891  0.3047
17425TIP3   OH273765   5.967   5.729  16.132 -0.0806  0.0806 -0.5223
17425TIP3    H173766   6.050   5.710  16.175  0.0628  0.4300 -0.6425
17425TIP3    H273767   5.916   5.774  16.199 -0.0156  0.2434 -0.5815
17426TIP3   OH273768   2.776   3.143  12.635  1.0689 -0.0668 -0.0053
17426TIP3    H173769   2.842   3.185  12.691  1.4905  0.8793 -1.1923
17426TIP3    H273770   2.721   3.094  12.696  1.2541  1.2963  1.2839
17427TIP3   OH273771   4.470   3.139  11.578  0.7907  0.3864  0.3502
17427TIP3    H173772   4.517   3.111  11.657 -0.0680 -0.7819  0.4524
17427TIP3    H273773   4.421   3.062  11.551  0.8564  0.8678 -1.1727
17428TIP3   OH273774   2.828   4.601  11.366 -0.3557 -0.2762 -0.5113
17428TIP3    H173775   2.878   4.572  11.443 -1.2117 -0.5924 -0.0613
17428TIP3    H273776   2.770   4.669  11.400  0.0829  0.4096 -1.1215
17429TIP3   OH273777   5.820   5.863  15.395 -0.0781  0.5433  0.5657
17429TIP3    H173778   5.841   5.953  15.368 -1.3447  0.5707 -0.3733
17429TIP3    H273779   5.821   5.867  15.491  0.3079  1.4553  0.5347
17430TIP3   OH273780   1.396   5.401  13.477  0.0423 -0.3360 -0.1114
17430TIP3    H173781   1.422   5.437  13.392 -4.9310  0.2409 -1.5403
17430TIP3    H273782   1.380   5.308  13.460 -0.9793 -0.2180  0.1560
17431TIP3   OH273783   2.853   0.871  13.681  0.6035 -0.0521  0.1577
17431TIP3    H173784   2.820   0.961  13.684  0.8182 -0.0166  2.5872
17431TIP3    H273785   2.939   0.878  13.641  1.4340  1.1050  2.0911
17432TIP3   OH273786   6.576   6.214  16.636 -0.4659  0.1374 -0.3207
17432TIP3    H173787   6.657   6.257  16.608 -0.5365 -0.6366 -1.7544
17432TIP3    H273788   6.597   6.121  16.637 -0.9328  0.0325  0.6956
17433TIP3   OH273789   5.637   1.040  15.741  0.6691 -0.2374 -0.5681
17433TIP3    H173790   5.594   0.980  15.681  0.8629 -2.8440  1.7909
17433TIP3    H273791   5.731   1.027  15.724  0.6878  0.0848 -0.7060
17434TIP3   OH273792   3.440   4.470   0.325 -0.5254 -0.4115  0.3533
17434TIP3    H173793   3.381   4.542   0.347 -1.1211 -0.5269 -0.8016
17434TIP3    H273794   3.492   4.503   0.251  1.8140  0.1721  2.2089
17435TIP3   OH273795   2.932   2.085  14.822  0.1246 -0.0132 -0.3030
17435TIP3    H173796   2.935   2.141  14.900  0.7208 -0.0140 -0.3207
17435TIP3    H273797   2.889   2.005  14.851 -2.8703  1.3265 -0.8461
17436TIP3   OH273798   4.387   1.181  14.482 -0.1814 -0.1602 -0.4011
17436TIP3    H173799   4.477   1.182  14.514  0.0622  0.8785 -1.0905
17436TIP3    H273800   4.384   1.252  14.418 -1.1765 -0.9436 -1.2376
17437TIP3   OH273801   5.443   6.539   3.199 -0.4736 -0.2284 -0.2820
17437TIP3    H173802   5.522   6.496   3.232 -1.4955 -1.0815  1.0639
17437TIP3    H273803   5.438   6.621   3.248 -0.3053 -0.0631 -0.5379
17438TIP3   OH273804   1.790   3.723  15.579  0.2657  0.0419 -0.2627
17438TIP3    H173805   1.697   3.723  15.602  0.4040  0.6918  0.3357
17438TIP3    H273806   1.794   3.769  15.495  0.0007 -0.3943 -0.5175
17439TIP3   OH273807   2.996   2.004  11.109 -0.3706 -0.1878 -0.2578
17439TIP3    H173808   2.951   1.948  11.046  2.3982 -2.1209 -0.6451
17439TIP3    H273809   2.929   2.030  11.172 -2.3823 -1.3178 -1.8950
17440TIP3   OH273810   2.309   1.303  14.408  0.5192  0.0450  0.7160
17440TIP3    H173811   2.234   1.360  14.388  0.4074 -0.2388  0.3251
17440TIP3    H273812   2.275   1.214  14.397  1.4184 -0.0668 -1.3153
17441TIP3   OH273813   5.507   2.306   4.461 -0.4425  0.1663  0.0165
17441TIP3    H173814   5.511   2.397   4.435  2.7936 -0.5221 -2.0767
17441TIP3    H273815   5.503   2.257   4.379  0.8252 -1.6708  1.0049
17442TIP3   OH273816   4.455   1.757   0.291 -0.1275 -0.4892 -0.1569
17442TIP3    H173817   4.539   1.738   0.251  1.0932  1.1158  1.5173
17442TIP3    H273818   4.432   1.844   0.259 -0.5736 -0.4282  0.3177
17443TIP3   OH273819   5.116   0.458  16.754 -0.4392  0.3433  0.0562
17443TIP3    H173820   5.074   0.533  16.712  1.4973  1.7217  0.4895
17443TIP3    H273821   5.045   0.411  16.798 -1.8590  1.2262 -1.2453
17444TIP3   OH273822   6.412   5.109   0.750  0.6896 -0.2800  0.3413
17444TIP3    H173823   6.482   5.082   0.809  0.6200 -0.0174  0.5422
17444TIP3    H273824   6.352   5.160   0.804  1.5245  1.4710 -0.3415
17445TIP3   OH273825   3.614   0.711   1.643 -0.5357  0.8066  0.3362
17445TIP3    H173826   3.706   0.686   1.642 -0.4322  1.1334  1.1998
17445TIP3    H273827   3.593   0.719   1.736 -0.5901  3.8986  0.0932
17446TIP3   OH273828   5.331   5.186  14.907  0.1067  0.3101 -0.2092
17446TIP3    H173829   5.314   5.178  14.813 -1.1504  2.4474 -0.2148
17446TIP3    H273830   5.262   5.134  14.949 -0.2647  0.5991 -0.4550
17447TIP3   OH273831   2.286   5.716   5.313 -0.0606  0.2386 -0.0604
17447TIP3    H173832   2.205   5.727   5.262 -0.8911 -0.9144  0.9815
17447TIP3    H273833   2.291   5.622   5.331 -0.2024  0.6969  2.6102
17448TIP3   OH273834   2.391   6.069   0.691  0.0244  0.2329  0.2298
17448TIP3    H173835   2.389   6.112   0.605  0.4408 -1.4581 -0.6594
17448TIP3    H273836   2.325   6.000   0.684 -0.7620  0.8330  1.6873
17449TIP3   OH273837   0.564   1.297   3.548 -0.7288  0.7873  0.6252
17449TIP3    H173838   0.635   1.351   3.513  0.1679 -1.1222 -0.6223
17449TIP3    H273839   0.609   1.220   3.584 -1.9496  0.9545  2.5349
17450TIP3   OH273840   0.254   6.223   0.854  0.8865 -0.4307 -0.4820
17450TIP3    H173841   0.328   6.165   0.831  0.4696 -1.5593  0.9399
17450TIP3    H273842   0.207   6.235   0.771 -0.1178 -3.7286 -0.4878
17451TIP3   OH273843   4.865   3.949   2.961 -0.2782 -0.1910 -0.1461
17451TIP3    H173844   4.781   3.994   2.975 -0.5844 -0.3801 -1.3071
17451TIP3    H273845   4.880   3.901   3.042 -1.3992 -0.3051  0.0073
17452TIP3   OH273846   0.286   0.741   5.413 -0.3567 -0.4980  0.3786
17452TIP3    H173847   0.346   0.813   5.393 -1.5133  0.3102 -0.2564
17452TIP3    H273848   0.308   0.674   5.349  0.1082 -0.3355  0.3661
17453TIP3   OH273849   0.715   0.825  15.504  0.4035  0.3208  0.0249
17453TIP3    H173850   0.686   0.890  15.440  0.0138  0.0527 -0.0721
17453TIP3    H273851   0.809   0.841  15.513  1.0767 -1.6034 -2.9293
17454TIP3   OH273852   6.301   4.349  15.291 -0.2462 -0.6697 -0.1252
17454TIP3    H173853   6.345   4.375  15.372  0.6791 -2.1564 -0.1252
17454TIP3    H273854   6.332   4.260  15.275 -2.2672 -1.2546 -0.8421
17455TIP3   OH273855   1.543   0.536  17.028 -0.2454  0.4084 -0.1465
17455TIP3    H173856   1.627   0.505  17.061 -0.4096 -1.1463 -1.1214
17455TIP3    H273857   1.565   0.581  16.946 -0.2291  0.9896  0.1821
17456TIP3   OH273858   2.058   4.359   6.144 -0.5209  0.0343  0.4689
17456TIP3    H173859   2.024   4.316   6.066 -1.0137 -0.0667  0.7379
17456TIP3    H273860   1.997   4.335   6.214  0.8620 -1.3043  1.2521
17457TIP3   OH273861   0.942   6.561  15.054  0.2195  0.1851  0.2401
17457TIP3    H173862   0.908   6.631  15.110 -0.1217 -0.9146  1.4429
17457TIP3    H273863   0.987   6.502  15.115 -0.3158 -1.1350 -0.6289
17458TIP3   OH273864   1.870   4.969   2.948 -0.3428 -0.1831 -0.1110
17458TIP3    H173865   1.870   5.064   2.962 -0.7101 -0.5043  2.2567
17458TIP3    H273866   1.953   4.939   2.982 -0.4047 -0.7864 -0.4766
17459TIP3   OH273867   2.771   6.783  11.298  0.0071 -0.2578  0.7132
17459TIP3    H173868   2.781   6.740  11.213  0.5739  0.2438  0.5240
17459TIP3    H273869   2.861   6.796  11.329 -0.1471  1.0997  0.6122
17460TIP3   OH273870   0.751   4.209  13.453 -0.6494  0.4651  0.3939
17460TIP3    H173871   0.670   4.195  13.404 -0.2002  0.8369 -0.4614
17460TIP3    H273872   0.737   4.291  13.500  0.2436  2.0022 -1.9046
17461TIP3   OH273873   1.509   2.262  14.284  0.0287  0.2805  0.0764
17461TIP3    H173874   1.571   2.324  14.323 -0.4363  0.4269  0.5873
17461TIP3    H273875   1.433   2.315  14.259  0.1263  0.1108 -0.5961
17462TIP3   OH273876   0.677   1.479   2.432  0.4493  0.0368 -0.5411
17462TIP3    H173877   0.616   1.407   2.448 -0.0983  0.6411  0.0990
17462TIP3    H273878   0.662   1.540   2.504  0.2098  1.2610 -1.6054
17463TIP3   OH273879   1.102   5.792  13.193  0.0559 -0.5311 -0.1516
17463TIP3    H173880   1.083   5.744  13.274  0.2916  0.5816  0.5827
17463TIP3    H273881   1.015   5.814  13.158 -0.0482  0.7328  0.8763
17464TIP3   OH273882   3.752   2.062  13.931  0.0882 -0.3405  0.2695
17464TIP3    H173883   3.722   2.016  13.853  1.2087  2.0470 -1.6561
17464TIP3    H273884   3.844   2.082  13.913 -0.2064  2.0609  1.2823
17465TIP3   OH273885   0.767   5.236   5.589 -0.3026  0.0346  0.4145
17465TIP3    H173886   0.861   5.218   5.592 -0.3057  0.0575  0.7190
17465TIP3    H273887   0.754   5.288   5.510 -0.3408 -1.5964 -0.6878
17466TIP3   OH273888   1.641   5.123  10.717 -0.5495 -0.0294 -0.2568
17466TIP3    H173889   1.561   5.151  10.761 -0.8049 -0.0693 -0.6943
17466TIP3    H273890   1.650   5.182  10.642 -0.1999 -0.0578 -0.2395
17467TIP3   OH273891   3.083   2.705   5.060  0.0001  0.3392 -0.1496
17467TIP3    H173892   3.119   2.655   5.134 -1.2416 -0.3656 -0.0066
17467TIP3    H273893   3.107   2.653   4.983  0.1005  0.3644 -0.1363
17468TIP3   OH273894   4.959   3.704   1.678 -0.0401 -0.1028 -0.0051
17468TIP3    H173895   4.912   3.785   1.695 -0.9861 -0.4347 -1.0426
17468TIP3    H273896   4.992   3.677   1.764  1.8763  2.3361  0.0715
17469TIP3   OH273897   1.157   0.729  13.583 -0.3187  0.1963  0.2787
17469TIP3    H173898   1.228   0.772  13.631 -0.8452  1.2551  0.1035
17469TIP3    H273899   1.116   0.672  13.649 -0.8644  1.4414  1.0203
17470TIP3   OH273900   1.264   5.098   5.453 -0.2099  0.0463  0.1049
17470TIP3    H173901   1.233   5.127   5.367  0.4029  2.4231  0.6390
17470TIP3    H273902   1.185   5.070   5.499 -0.7632  0.3535 -0.6495
17471TIP3   OH273903   4.222   6.070   4.379 -0.1173  0.1358  0.0106
17471TIP3    H173904   4.297   6.012   4.366 -0.1060  0.1253  0.1180
17471TIP3    H273905   4.244   6.119   4.458 -0.9091 -0.9516  0.9144
17472TIP3   OH273906   1.336   5.902  16.681  0.2792  0.3183 -0.4166
17472TIP3    H173907   1.415   5.853  16.704 -0.5261 -1.3122 -1.0428
17472TIP3    H273908   1.368   5.976  16.630  1.5110  0.3649  0.4089
17473TIP3   OH273909   3.785   3.545   6.195  0.2788  0.5864  0.3625
17473TIP3    H173910   3.838   3.618   6.224 -0.1924 -0.2406  3.4515
17473TIP3    H273911   3.699   3.560   6.235 -0.5701 -0.3160 -1.0790
17474TIP3   OH273912   1.978   3.836  11.157 -0.8105  0.6443 -0.2378
17474TIP3    H173913   2.027   3.890  11.095  0.1739  0.4615  0.3683
17474TIP3    H273914   1.998   3.746  11.133 -0.9192  0.5661 -0.0393
17475TIP3   OH273915   2.744   0.675  16.825  0.3118  0.4945  0.3374
17475TIP3    H173916   2.743   0.699  16.918 -0.4486  0.9407  0.2182
17475TIP3    H273917   2.757   0.580  16.825 -1.7047  0.1927  0.9728
17476TIP3   OH273918   0.635   4.451  16.435  0.6799  0.2945 -0.2206
17476TIP3    H173919   0.589   4.382  16.387 -1.7403  1.5105  0.2503
17476TIP3    H273920   0.627   4.528  16.380 -1.7826  1.6136  1.8698
17477TIP3   OH273921   4.148   3.621   1.876  0.3081  0.2070  0.0997
17477TIP3    H173922   4.112   3.567   1.947 -2.6951  1.3805 -0.4416
17477TIP3    H273923   4.163   3.559   1.804  1.8853 -0.7285  1.2008
17478TIP3   OH273924   3.670   2.993  16.665 -0.4524  0.2067 -0.1617
17478TIP3    H173925   3.595   3.044  16.694  0.0849  0.1040  1.4591
17478TIP3    H273926   3.676   3.010  16.571 -2.2318  0.5503 -0.2240
17479TIP3   OH273927   2.730   1.501  11.685  0.0296 -0.1763  0.1300
17479TIP3    H173928   2.785   1.578  11.704 -0.4566 -0.1007  1.2430
17479TIP3    H273929   2.773   1.460  11.610 -0.0290  1.5137 -0.8732
17480TIP3   OH273930   0.520   0.143   3.991  0.5493 -0.3748  0.5918
17480TIP3    H173931   0.508   0.049   3.973 -0.5081  0.2175 -2.0274
17480TIP3    H273932   0.614   0.157   3.981  0.7289 -1.1765  1.1228
17481TIP3   OH273933   0.674   3.259   2.807  0.0066  0.5630  0.1011
17481TIP3    H173934   0.736   3.304   2.864 -0.2937 -0.0200  0.8933
17481TIP3    H273935   0.710   3.271   2.719  1.0111  0.6082  0.5051
17482TIP3   OH273936   0.090   5.978  16.325  0.2253 -0.4262 -0.4324
17482TIP3    H173937   0.032   6.054  16.316  0.1886 -0.4297 -0.2359
17482TIP3    H273938   0.150   6.003  16.396  0.0892 -0.6622 -0.2357
17483TIP3   OH273939   5.104   1.940  17.236 -0.5747  0.1191  0.0851
17483TIP3    H173940   5.133   1.852  17.214  0.6124 -0.4509  3.4928
17483TIP3    H273941   5.186   1.991  17.241 -1.2965  1.6033 -2.4813
17484TIP3   OH273942   4.101   4.425  13.841 -0.0520 -0.3893 -0.3566
17484TIP3    H173943   4.061   4.490  13.899 -0.5029 -1.9302  1.0918
17484TIP3    H273944   4.073   4.451  13.753 -2.7807 -0.3894  0.4609
17485TIP3   OH273945   5.210   5.926  15.188 -0.3111 -0.0127  0.1347
17485TIP3    H173946   5.298   5.928  15.227 -0.1522 -0.4241 -0.1982
17485TIP3    H273947   5.195   6.016  15.160  0.8046 -0.3339 -1.5654
17486TIP3   OH273948   4.491   5.686   2.373  0.0888  0.1407 -0.3208
17486TIP3    H173949   4.500   5.721   2.461  0.3489 -0.1076 -0.2438
17486TIP3    H273950   4.515   5.758   2.315  0.0613  0.2591 -0.1830
17487TIP3   OH273951   5.676   6.549   0.054  0.5279  0.2955 -0.0872
17487TIP3    H173952   5.666   6.494  -0.022 -0.3293  0.8062 -0.3474
17487TIP3    H273953   5.646   6.636   0.026  1.6072  0.8418  0.3837
17488TIP3   OH273954   2.075   4.516  13.580 -0.2892  0.8030 -0.2906
17488TIP3    H173955   2.027   4.599  13.582 -1.2332  0.2524  0.3084
17488TIP3    H273956   2.167   4.541  13.591 -0.6468  1.7071  0.6606
17489TIP3   OH273957   2.035   0.071   2.252 -0.0539 -0.5002  0.2317
17489TIP3    H173958   2.013   0.078   2.345 -0.3960 -0.2935  0.1395
17489TIP3    H273959   2.122   0.109   2.245  0.3542 -1.3524  0.6108
17490TIP3   OH273960   1.781   0.272   3.197 -0.2663  0.4079 -0.6280
17490TIP3    H173961   1.705   0.215   3.210  1.7251 -3.3706 -4.3061
17490TIP3    H273962   1.752   0.333   3.129 -0.2922 -0.5149 -1.4591
17491TIP3   OH273963   5.008   3.629  11.852 -0.6497 -0.0007  0.2802
17491TIP3    H173964   5.064   3.624  11.774 -0.6229  0.1077  0.2917
17491TIP3    H273965   4.958   3.710  11.840  0.3890  0.7701  1.0624
17492TIP3   OH273966   4.304   3.252   1.242  0.4674 -0.3067 -0.5235
17492TIP3    H173967   4.312   3.289   1.154 -1.6922 -1.7589 -1.3819
17492TIP3    H273968   4.234   3.187   1.234 -0.1955 -0.0201  2.4223
17493TIP3   OH273969   4.249   5.517  17.051  0.4877  0.1120 -0.1610
17493TIP3    H173970   4.310   5.496  16.981  2.5675 -1.5095  2.0537
17493TIP3    H273971   4.299   5.571  17.112 -0.7149 -0.0293  0.9817
17494TIP3   OH273972   0.421   3.868   3.136 -0.2142  0.0832  0.2266
17494TIP3    H173973   0.411   3.862   3.041  0.8966 -2.0022  0.2200
17494TIP3    H273974   0.495   3.928   3.148  1.7279 -2.1677 -0.3312
17495TIP3   OH273975   4.861   1.947   5.367  0.0958 -0.1293  0.5714
17495TIP3    H173976   4.843   1.895   5.445  1.4351  0.5858  1.3966
17495TIP3    H273977   4.775   1.973   5.334 -0.4912 -0.6219  1.6976
17496TIP3   OH273978   4.286   6.681   1.019  0.5705 -0.0378 -0.3312
17496TIP3    H173979   4.373   6.721   1.011  0.6288  0.0272  0.6722
17496TIP3    H273980   4.232   6.749   1.059  0.6919 -0.9818  1.4956
17497TIP3   OH273981   1.742   6.169   2.037 -0.4698 -0.0738  0.0843
17497TIP3    H173982   1.658   6.152   2.079  1.4134  0.1396  4.1174
17497TIP3    H273983   1.805   6.115   2.085  1.8438  0.3394 -2.3600
17498TIP3   OH273984   3.126   4.069   4.313 -0.3559  0.2197 -0.0797
17498TIP3    H173985   3.193   4.022   4.362 -0.5557 -0.0691 -0.0828
17498TIP3    H273986   3.091   4.004   4.252 -0.5499  0.4034 -0.1639
17499TIP3   OH273987   3.750   2.987   1.031 -0.1881 -0.4736 -0.3079
17499TIP3    H173988   3.661   2.994   0.996 -0.9710  0.0544  1.6533
17499TIP3    H273989   3.754   3.056   1.098  0.9826 -1.8564  1.0897
17500TIP3   OH273990   6.447   2.821   0.174  0.1602  0.4632  0.0719
17500TIP3    H173991   6.380   2.792   0.236  0.7067  0.8660  0.8672
17500TIP3    H273992   6.507   2.875   0.227  0.0667  1.6694 -1.0247
17501TIP3   OH273993   1.287   0.041  14.925 -0.1923  0.4200 -0.1792
17501TIP3    H173994   1.201   0.011  14.895 -0.6445  0.4231  1.1084
17501TIP3    H273995   1.274   0.067  15.016  1.3304 -0.2218  0.2380
17502TIP3   OH273996   4.300   6.667   6.608 -0.2659  0.1467  0.1603
17502TIP3    H173997   4.281   6.759   6.624 -0.1122  0.0162  1.1191
17502TIP3    H273998   4.244   6.619   6.669 -1.1744 -0.4445 -1.1188
17503TIP3   OH273999   5.207   1.865   2.557  0.4986  0.0085 -0.3391
17503TIP3    H174000   5.299   1.877   2.579  0.9540 -1.6356 -1.2498
17503TIP3    H274001   5.207   1.844   2.463 -0.8730  0.7449 -0.5223
17504TIP3   OH274002   0.521   6.093  12.865 -0.5079 -0.1540 -0.0722
17504TIP3    H174003   0.585   6.146  12.911 -0.2154  1.3687 -2.1812
17504TIP3    H274004   0.454   6.155  12.836 -0.3253 -0.9432 -2.2742
17505TIP3   OH274005   6.267   1.742  13.388  0.2342  0.4148  0.0450
17505TIP3    H174006   6.178   1.752  13.422  0.0567  2.9191 -1.1212
17505TIP3    H274007   6.255   1.720  13.296  0.8025  4.2252 -1.0135
17506TIP3   OH274008   3.016   1.118  16.243 -0.4558 -0.2752  0.5297
17506TIP3    H174009   3.029   1.164  16.161  0.1377 -0.7312  0.3682
17506TIP3    H274010   2.936   1.156  16.279 -0.1096  0.7069  0.2794
17507TIP3   OH274011   0.673   5.398  11.543 -0.2386 -0.2752 -0.4029
17507TIP3    H174012   0.638   5.379  11.630  0.2071 -1.3936 -0.4695
17507TIP3    H274013   0.712   5.316  11.513  2.9105  1.0266 -0.1248
17508TIP3   OH274014   6.024   0.069  12.931  0.3018  0.4212  0.0259
17508TIP3    H174015   6.033   0.032  13.019  1.8316 -2.9174 -1.4724
17508TIP3    H274016   6.075   0.150  12.934  0.5024  0.2396  2.1614
17509TIP3   OH274017   6.372   3.547  13.102  0.3864  0.0237 -0.5913
17509TIP3    H174018   6.456   3.506  13.122  1.5763  1.6880 -2.0241
17509TIP3    H274019   6.362   3.616  13.168 -0.0126 -0.3894 -0.2209
17510TIP3   OH274020   6.016   5.836   0.950  0.4076 -0.3895 -0.2061
17510TIP3    H174021   6.001   5.802   1.038 -1.1476  0.3212 -0.1899
17510TIP3    H274022   6.028   5.931   0.963  2.2014 -0.5444 -0.5411
17511TIP3   OH274023   0.578   4.984  13.286  0.0183 -0.3796  0.0347
17511TIP3    H174024   0.532   4.998  13.369  0.4588  0.4239  0.1416
17511TIP3    H274025   0.667   5.016  13.302  1.2351 -3.7823  0.4944
17512TIP3   OH274026   4.462   1.430   5.492  0.3379  0.1700 -0.2443
17512TIP3    H174027   4.482   1.514   5.450 -1.9307  0.6274 -0.4230
17512TIP3    H274028   4.422   1.377   5.423  0.0485 -0.4151  0.3629
17513TIP3   OH274029   3.525   1.365  16.244 -0.2760 -0.5869 -0.1800
17513TIP3    H174030   3.608   1.332  16.210 -0.3261 -1.5645  0.6346
17513TIP3    H274031   3.539   1.460  16.252  0.6625 -0.7080 -0.3128
17514TIP3   OH274032   4.164   6.733   4.033  0.1253 -0.3127  0.4696
17514TIP3    H174033   4.241   6.737   3.975  0.1440 -1.2515  0.4260
17514TIP3    H274034   4.091   6.716   3.974  0.0620 -0.6910  0.6607
17515TIP3   OH274035   6.391   1.083  10.386 -0.0417  0.1812 -0.5552
17515TIP3    H174036   6.331   1.012  10.405  0.3697 -0.2352 -0.7947
17515TIP3    H274037   6.476   1.053  10.420  0.9323 -1.0116 -3.8610
17516TIP3   OH274038   2.818   6.085   3.882 -0.2425  0.1537 -0.5803
17516TIP3    H174039   2.870   6.007   3.865  1.9082  1.9111 -2.3341
17516TIP3    H274040   2.859   6.153   3.829 -2.7199  2.2345  0.0854
17517TIP3   OH274041   6.051   2.895   5.152  0.8578  0.1790 -0.6940
17517TIP3    H174042   6.115   2.828   5.129 -0.2481 -1.0750 -0.2053
17517TIP3    H274043   5.989   2.894   5.079  0.5701  0.3292 -0.4517
17518TIP3   OH274044   6.283   0.021  11.345 -0.6402 -0.3808 -0.3000
17518TIP3    H174045   6.288  -0.021  11.431 -1.8071 -0.8645 -0.4622
17518TIP3    H274046   6.367   0.066  11.335 -0.1121 -1.1473  0.6652
17519TIP3   OH274047   4.150   0.295   3.126  0.0021 -0.0955 -0.8101
17519TIP3    H174048   4.093   0.311   3.202 -0.1330  0.1511 -0.9637
17519TIP3    H274049   4.112   0.217   3.084 -0.9761  0.8112 -1.6337
17520TIP3   OH274050   0.515   0.625   2.894  0.2583 -0.8985  0.4456
17520TIP3    H174051   0.552   0.712   2.879 -0.4789 -0.4118  1.3819
17520TIP3    H274052   0.453   0.612   2.822  1.6840 -1.4100 -0.7125
17521TIP3   OH274053   4.491   6.544  16.746 -0.4019 -0.0443 -0.7715
17521TIP3    H174054   4.414   6.596  16.724  0.1832  0.4562 -1.6535
17521TIP3    H274055   4.468   6.455  16.723 -1.8482 -0.4014  1.8230
17522TIP3   OH274056   2.642   5.075   1.938  0.3622 -0.6660 -0.0432
17522TIP3    H174057   2.610   5.054   2.025 -0.6179 -1.7446 -0.6499
17522TIP3    H274058   2.735   5.095   1.951 -0.4622  2.3471  1.7045
17523TIP3   OH274059   2.787   5.332  15.268 -0.3817 -0.5761  0.5611
17523TIP3    H174060   2.872   5.310  15.306 -0.5807 -3.1768 -0.3468
17523TIP3    H274061   2.799   5.318  15.174 -1.5254  0.0227  0.3199
17524TIP3   OH274062   3.143   4.521  14.491 -0.5709  0.7027  0.4458
17524TIP3    H174063   3.077   4.553  14.552 -1.3555 -0.5199  0.2483
17524TIP3    H274064   3.136   4.426  14.495  0.1102  0.5897 -0.7448
17525TIP3   OH274065   0.942   2.436  16.162  0.2935  0.4203 -0.1456
17525TIP3    H174066   0.935   2.500  16.092 -1.9822  1.0095  0.6016
17525TIP3    H274067   0.907   2.355  16.125  0.3565  0.3736 -0.1061
17526TIP3   OH274068   6.236   4.432  11.806  0.2867  0.8456  0.4474
17526TIP3    H174069   6.160   4.376  11.790 -0.2889  1.4122  1.1119
17526TIP3    H274070   6.263   4.412  11.895 -0.1057  1.8166  0.7955
17527TIP3   OH274071   4.723   4.491  14.220  0.4900  0.1143 -0.3692
17527TIP3    H174072   4.797   4.532  14.263 -0.4412 -0.1255  1.5077
17527TIP3    H274073   4.646   4.536  14.254 -0.2874 -0.1706 -1.6797
17528TIP3   OH274074   4.566   5.744   6.590 -0.2270 -0.8325  0.3770
17528TIP3    H174075   4.492   5.795   6.622  0.5213  0.4816  0.0302
17528TIP3    H274076   4.528   5.659   6.567 -1.0833 -1.2865  3.2338
17529TIP3   OH274077   1.677   1.492   5.404 -0.0964  0.2589  0.4271
17529TIP3    H174078   1.679   1.412   5.351  1.6829  0.7750 -0.3056
17529TIP3    H274079   1.768   1.510   5.423 -0.5066  1.9829  0.8095
17530TIP3   OH274080   5.054   1.350  16.096 -0.3962  0.2980 -0.1458
17530TIP3    H174081   4.983   1.288  16.112  0.1569  0.6584  4.2487
17530TIP3    H274082   5.010   1.432  16.074 -1.1953 -0.5532 -1.8196
17531TIP3   OH274083   4.543   0.988  12.706 -0.2539 -0.5429  0.2863
17531TIP3    H174084   4.593   0.915  12.742  1.2932  0.3274 -0.0838
17531TIP3    H274085   4.552   0.980  12.612 -1.5691 -0.8941  0.1743
17532TIP3   OH274086   2.083   3.303  15.500  1.0007  0.3968 -0.0099
17532TIP3    H174087   2.038   3.363  15.441  0.3413  1.5628  1.6537
17532TIP3    H274088   2.014   3.245  15.532  0.8868  1.4172  1.6108
17533TIP3   OH274089   5.610   0.872   0.086  0.1598 -0.0737  0.1131
17533TIP3    H174090   5.653   0.938   0.140 -0.9825  0.2462  0.6612
17533TIP3    H274091   5.681   0.822   0.046  1.0418  1.1967  0.0619
17534TIP3   OH274092   3.929   1.752   5.926 -0.0462  0.3784  0.2580
17534TIP3    H174093   3.923   1.834   5.974  0.9734 -0.3521  1.6691
17534TIP3    H274094   3.998   1.703   5.970  0.7735 -0.4034 -1.8342
17535TIP3   OH274095   6.603   3.900  14.110  0.0540 -0.0469  0.2293
17535TIP3    H174096   6.548   3.863  14.042  0.6710 -0.0994 -0.2414
17535TIP3    H274097   6.619   3.990  14.081  1.3062 -0.4321 -0.3057
17536TIP3   OH274098   4.388   6.481   3.064 -0.3404 -0.0502  0.1352
17536TIP3    H174099   4.473   6.472   3.108  0.4875 -0.5551 -1.5346
17536TIP3    H274100   4.400   6.554   3.004 -1.7666  1.2502  1.3792
17537TIP3   OH274101   0.773   5.317   4.076 -0.1028  0.5678  0.0858
17537TIP3    H174102   0.830   5.394   4.069 -0.4091  0.6714 -1.3502
17537TIP3    H274103   0.832   5.245   4.097  0.4214  0.8596 -0.3719
17538TIP3   OH274104   6.337   4.732  12.457  0.3622  0.2176  0.0651
17538TIP3    H174105   6.353   4.768  12.544  0.0827  0.1174  0.1585
17538TIP3    H274106   6.381   4.793  12.398 -0.4027  0.9087  0.1993
17539TIP3   OH274107   4.217   2.276   0.808 -0.3031 -0.0141 -0.3175
17539TIP3    H174108   4.236   2.183   0.823 -2.6839 -0.4927 -0.1462
17539TIP3    H274109   4.169   2.278   0.726  0.5253  1.1813 -0.7823
17540TIP3   OH274110   4.245   0.628  16.956 -0.0294 -0.0758  0.2565
17540TIP3    H174111   4.293   0.545  16.964 -1.3182 -0.7692  1.0270
17540TIP3    H274112   4.242   0.645  16.862  1.3934 -0.2104  0.1742
17541TIP3   OH274113   5.128   3.011  11.326 -0.0649  0.6134  0.3767
17541TIP3    H174114   5.091   2.988  11.241  2.1113  0.9058 -0.6834
17541TIP3    H274115   5.102   3.102  11.340 -1.7171  0.1099  0.7722
17542TIP3   OH274116   1.731   1.253   0.747  0.1829 -0.1482 -0.2496
17542TIP3    H174117   1.670   1.234   0.676  0.1434  0.6859 -0.4436
17542TIP3    H274118   1.743   1.348   0.744  0.1111 -0.0913  0.9102
17543TIP3   OH274119   5.672   2.548  17.219 -0.3040 -0.3071  0.5604
17543TIP3    H174120   5.761   2.519  17.201 -0.6765 -0.2161 -1.6572
17543TIP3    H274121   5.618   2.500  17.155 -1.5847  1.0815  0.5646
17544TIP3   OH274122   0.323   0.736  13.194  0.2535  0.5450 -0.0783
17544TIP3    H174123   0.234   0.732  13.230  0.7135 -1.1637  0.9255
17544TIP3    H274124   0.373   0.780  13.263  0.0122  2.4743 -1.0833
17545TIP3   OH274125   5.081   0.191  12.617  0.3166 -0.0477  0.4495
17545TIP3    H174126   5.154   0.189  12.678  1.1639  1.0473 -0.5141
17545TIP3    H274127   5.012   0.239  12.664  1.2150  1.4241  0.2780
17546TIP3   OH274128   3.691   1.489   1.248 -0.3113 -0.0178  0.0477
17546TIP3    H174129   3.784   1.468   1.260  0.1693  0.8529 -1.9582
17546TIP3    H274130   3.646   1.405   1.262  0.7005 -0.3208  1.6605
17547TIP3   OH274131   6.313   2.955   0.816  0.1886  0.2978 -0.0504
17547TIP3    H174132   6.331   3.042   0.780  0.0963 -1.0858 -3.6459
17547TIP3    H274133   6.400   2.919   0.834  0.2399  0.9596  1.0707
17548TIP3   OH274134   4.334   2.153  14.519 -0.2795 -0.1683 -0.0626
17548TIP3    H174135   4.307   2.155  14.428  0.8596 -1.3751 -0.4342
17548TIP3    H274136   4.269   2.098  14.563  0.5665 -1.6395 -0.6269
17549TIP3   OH274137   3.669   4.393   5.736 -0.0110  0.4533 -0.1200
17549TIP3    H174138   3.647   4.411   5.644  2.5618  0.2787 -0.8380
17549TIP3    H274139   3.765   4.400   5.738 -0.0839  1.1169  2.7090
17550TIP3   OH274140   5.627   4.552  10.472 -0.4385  0.1993 -0.2874
17550TIP3    H174141   5.562   4.489  10.439  0.2619 -0.4453 -0.4631
17550TIP3    H274142   5.641   4.612  10.398  0.4898 -0.7302 -0.8767
17551TIP3   OH274143   3.534   5.536  10.607 -0.2270  0.4653 -0.3304
17551TIP3    H174144   3.486   5.495  10.535 -1.3987 -0.1621  0.7833
17551TIP3    H274145   3.626   5.512  10.591 -0.8140 -2.1353 -0.0153
17552TIP3   OH274146   0.868   2.223  11.643  0.4241  0.5791  0.1745
17552TIP3    H174147   0.934   2.161  11.611 -0.7605  0.0903 -1.4010
17552TIP3    H274148   0.855   2.199  11.734  1.1883 -0.4167  0.0377
17553TIP3   OH274149   2.828   3.196   0.312  0.4579 -0.1860 -0.1842
17553TIP3    H174150   2.909   3.155   0.343  1.7302 -0.0237 -3.0473
17553TIP3    H274151   2.776   3.211   0.390  2.4914 -1.8695  1.5416
17554TIP3   OH274152   4.271   4.775  11.307 -0.2904  0.6697  0.3948
17554TIP3    H174153   4.269   4.792  11.212 -0.1042  0.7735  0.4100
17554TIP3    H274154   4.179   4.781  11.333 -0.6683 -1.7742 -0.2117
17555TIP3   OH274155   1.677   4.757   1.896 -0.7199  0.0299  0.1409
17555TIP3    H174156   1.755   4.709   1.869 -0.0104  0.8651  0.6770
17555TIP3    H274157   1.709   4.845   1.918 -1.7099  0.1761  1.0216
17556TIP3   OH274158   3.618   1.413  11.372 -0.4729 -0.2778 -0.0192
17556TIP3    H174159   3.569   1.343  11.328 -0.9916  0.5112 -0.7276
17556TIP3    H274160   3.693   1.428  11.315 -0.2310 -0.4300  0.2622
17557TIP3   OH274161   4.172   0.712   3.950 -0.4111  0.0975 -0.1029
17557TIP3    H174162   4.245   0.764   3.915 -2.1306  1.0667 -2.3876
17557TIP3    H274163   4.166   0.637   3.891 -0.6797 -0.4498  0.6161
17558TIP3   OH274164   1.637   2.894  11.199  0.2161  0.7170 -0.1763
17558TIP3    H174165   1.722   2.852  11.188 -0.0979 -0.5201  1.9586
17558TIP3    H274166   1.578   2.844  11.143  0.2762 -0.3925  0.7364
17559TIP3   OH274167   5.052   5.705   1.186  0.3351 -0.3043  0.1790
17559TIP3    H174168   5.022   5.710   1.095 -0.2458  2.1391  0.4710
17559TIP3    H274169   5.147   5.716   1.180  0.1399  1.2897 -0.0195
17560TIP3   OH274170   5.047   3.387  16.121 -0.4442  0.6893 -0.7339
17560TIP3    H174171   5.143   3.387  16.114 -0.3842  1.0700 -0.0231
17560TIP3    H274172   5.031   3.401  16.215 -1.1994  2.7751 -1.1581
17561TIP3   OH274173   2.763   6.682  14.559  0.1411 -0.2870 -0.1466
17561TIP3    H174174   2.687   6.680  14.501  0.8469  2.2269 -1.2271
17561TIP3    H274175   2.729   6.717  14.642 -0.5176 -2.2854  0.4594
17562TIP3   OH274176   2.069   1.879   0.787  0.0375 -0.2597  0.3362
17562TIP3    H174177   2.071   1.855   0.694  0.7609 -1.3081  0.6226
17562TIP3    H274178   2.156   1.912   0.805 -1.0077  2.9415 -0.1165
17563TIP3   OH274179   4.675   2.251  11.558 -0.1645  0.0659 -0.5379
17563TIP3    H174180   4.584   2.220  11.558 -0.5321  1.0817  0.4714
17563TIP3    H274181   4.674   2.329  11.503  0.5962 -1.2140 -2.4240
17564TIP3   OH274182   4.663   6.211  12.774  0.2636 -0.0409  0.6201
17564TIP3    H174183   4.668   6.120  12.801  1.6018  0.0648  0.7256
17564TIP3    H274184   4.739   6.225  12.718  0.9549  1.4184  1.8607
17565TIP3   OH274185   6.711   2.613  13.871  0.0453 -0.1379  0.5939
17565TIP3    H174186   6.731   2.580  13.783 -0.4001  0.8987  0.0910
17565TIP3    H274187   6.767   2.562  13.929  0.5886 -0.6083 -0.3249
17566TIP3   OH274188   5.141   2.566   2.840  0.3357 -0.2695  0.7012
17566TIP3    H174189   5.214   2.518   2.802  0.3763  0.5558 -0.2901
17566TIP3    H274190   5.064   2.515   2.817  0.2843  0.5900 -1.1666
17567TIP3   OH274191   0.220   6.739   1.176 -0.8803  0.0561  0.0461
17567TIP3    H174192   0.147   6.710   1.230  0.2708 -1.1308  1.0184
17567TIP3    H274193   0.209   6.694   1.092 -1.0184 -0.4847  0.3540
17568TIP3   OH274194   3.986   2.100   2.276  0.0232  0.1473 -0.3166
17568TIP3    H174195   4.059   2.125   2.333 -0.8150  1.0197  0.3962
17568TIP3    H274196   3.908   2.136   2.319 -0.6860  0.3988 -1.7777
17569TIP3   OH274197   1.450   3.304   0.287  0.4943 -0.4178  0.3368
17569TIP3    H174198   1.496   3.223   0.306 -0.8676 -1.1978  0.3932
17569TIP3    H274199   1.488   3.369   0.346 -0.3470 -1.6689  2.2933
17570TIP3   OH274200   2.324   1.587  16.594  0.1200 -0.4894 -0.8349
17570TIP3    H174201   2.343   1.499  16.563  2.1621 -0.4674  0.3120
17570TIP3    H274202   2.230   1.585  16.612  0.5279 -3.1303  1.3243
17571TIP3   OH274203   6.171   3.418  12.949  0.0331 -0.2560  0.2520
17571TIP3    H174204   6.114   3.480  12.994  0.6384 -0.0932  0.8162
17571TIP3    H274205   6.257   3.432  12.989  0.8442  0.6989 -1.8052
17572TIP3   OH274206   1.933   1.944  16.310  0.0280  0.1241 -0.9460
17572TIP3    H174207   1.925   1.852  16.287 -1.1814  0.1419 -0.6383
17572TIP3    H274208   1.999   1.947  16.378 -0.6589 -0.6428 -0.2331
17573TIP3   OH274209   3.184   1.933   4.879 -0.0020 -0.0643 -0.0812
17573TIP3    H174210   3.231   2.011   4.907 -1.7403  1.3980 -1.1600
17573TIP3    H274211   3.248   1.883   4.829  0.9445  0.9727  0.0814
17574TIP3   OH274212   3.760   3.765  13.772 -0.2221 -0.8077  0.0613
17574TIP3    H174213   3.807   3.782  13.853 -0.2967  1.3517 -0.3049
17574TIP3    H274214   3.828   3.762  13.705 -0.5286  2.4782 -0.4932
17575TIP3   OH274215   6.252   3.923   3.671  0.2917  0.8640  0.2882
17575TIP3    H174216   6.179   3.929   3.610 -0.6971 -1.5898  1.1602
17575TIP3    H274217   6.213   3.938   3.757  0.9867  0.4328  0.6878
17576TIP3   OH274218   6.441   2.307   0.599 -0.0512  0.1704 -0.1233
17576TIP3    H174219   6.491   2.256   0.663  0.5725  2.7517  1.5094
17576TIP3    H274220   6.415   2.243   0.534  2.0839 -1.9640  1.0125
17577TIP3   OH274221   4.609   5.581  13.122  0.6851  0.6595 -0.4223
17577TIP3    H174222   4.613   5.490  13.151  0.5186  0.7287 -0.1788
17577TIP3    H274223   4.515   5.597  13.109  0.7597  0.6297 -0.9987
17578TIP3   OH274224   0.925   2.290   2.103 -0.3036 -0.1896 -0.4282
17578TIP3    H174225   0.902   2.320   2.191  1.6052  0.9824 -0.3193
17578TIP3    H274226   0.976   2.210   2.117  0.7573  0.4866 -0.4351
17579TIP3   OH274227   0.259   6.050  16.522  0.0041 -0.0363  0.0288
17579TIP3    H174228   0.276   5.996  16.599  1.4801 -0.9444 -0.9136
17579TIP3    H274229   0.300   6.134  16.542 -2.8192  0.9995  1.7533
17580TIP3   OH274230   6.579   5.695  14.029 -0.8509  0.2157  0.0229
17580TIP3    H174231   6.667   5.687  13.994 -1.0781 -2.4076 -0.0735
17580TIP3    H274232   6.534   5.756  13.970  0.2714 -0.1286 -1.1898
17581TIP3   OH274233   1.492   2.995  16.470  0.1600  0.3840  0.6753
17581TIP3    H174234   1.460   2.987  16.560  2.0185 -2.4421  1.1635
17581TIP3    H274235   1.450   2.922  16.424  1.1200  0.3638 -0.1713
17582TIP3   OH274236   5.915   5.058  11.178  0.3157 -0.1757  0.0685
17582TIP3    H174237   5.856   5.048  11.103  0.6273  1.2804 -0.3717
17582TIP3    H274238   5.900   4.979  11.230 -1.0339 -0.4637 -0.7362
17583TIP3   OH274239   2.038   0.716   4.424  0.2655  0.3793 -0.1617
17583TIP3    H174240   1.951   0.731   4.462 -0.3258  0.6194 -1.5844
17583TIP3    H274241   2.098   0.763   4.481 -0.4110 -0.7255  1.4884
17584TIP3   OH274242   2.771   3.326  12.413 -0.0114  0.4927  0.0415
17584TIP3    H174243   2.765   3.409  12.461 -1.0512  0.9465 -0.8530
17584TIP3    H274244   2.758   3.259  12.480 -0.7621  1.1010  0.5150
17585TIP3   OH274245   5.745   4.014  12.909  0.5832 -0.7645 -0.6248
17585TIP3    H174246   5.784   4.094  12.875  0.7899 -1.0441 -1.0501
17585TIP3    H274247   5.749   3.952  12.836 -0.5028 -0.8539 -0.6111
17586TIP3   OH274248   3.110   5.356   2.112  0.2191 -0.2249  0.7860
17586TIP3    H174249   3.192   5.360   2.161  0.2438  0.0986  0.7235
17586TIP3    H274250   3.057   5.291   2.159  0.6398 -0.6884  0.6206
17587TIP3   OH274251   4.853   5.604   2.020 -0.2120  0.2485 -0.4839
17587TIP3    H174252   4.915   5.656   2.070  1.0473  0.1458 -1.8984
17587TIP3    H274253   4.773   5.604   2.073  1.1649 -0.1440  1.6412
17588TIP3   OH274254   5.074   1.705  15.443  0.2406 -0.2708  0.8568
17588TIP3    H174255   5.090   1.742  15.356 -0.3826 -2.6230 -0.2830
17588TIP3    H274256   5.160   1.679  15.474  0.3681 -0.1066  0.6459
17589TIP3   OH274257   3.620   0.529  14.403  0.0347 -0.3878  0.1595
17589TIP3    H174258   3.539   0.577  14.382 -0.0723 -0.8813 -0.5590
17589TIP3    H274259   3.593   0.438  14.410  0.4876 -0.5207  0.1805
17590TIP3   OH274260   5.810   3.941   2.811 -0.7172 -0.2642  0.2102
17590TIP3    H174261   5.810   3.984   2.725 -1.0801 -0.3174  0.1814
17590TIP3    H274262   5.830   4.012   2.872  1.1721 -0.5387 -0.0552
17591TIP3   OH274263   4.567   3.134  13.323  0.4075 -0.5257  0.4073
17591TIP3    H174264   4.630   3.092  13.382 -0.0237  1.4925  2.3731
17591TIP3    H274265   4.524   3.061  13.279 -0.3498 -2.2171  3.7714
17592TIP3   OH274266   2.241   0.714   2.108  0.1017  0.1788 -0.2657
17592TIP3    H174267   2.201   0.676   2.186 -2.1228  2.8283 -0.0376
17592TIP3    H274268   2.259   0.639   2.051  0.3832 -1.6466  2.1405
17593TIP3   OH274269   1.185   0.290   0.632 -0.8790  0.3014  0.2608
17593TIP3    H174270   1.125   0.320   0.701 -0.7830  0.6560  0.1901
17593TIP3    H274271   1.200   0.198   0.652 -1.6253  0.1480  0.1579
17594TIP3   OH274272   1.580   1.519  10.576  0.0972  0.0968 -0.3602
17594TIP3    H174273   1.600   1.549  10.665 -0.5650 -0.6827  0.0645
17594TIP3    H274274   1.664   1.493  10.539  0.4800  1.1230 -0.2349
17595TIP3   OH274275   1.303   2.123   0.054 -0.1268 -0.2199  0.3002
17595TIP3    H174276   1.247   2.200   0.041  2.2129  1.4608 -0.2805
17595TIP3    H274277   1.266   2.056  -0.003 -1.7526  0.7310  0.1996
17596TIP3   OH274278   6.402   5.424  13.859 -0.1043  0.3581 -0.2331
17596TIP3    H174279   6.413   5.394  13.949  2.1322  0.8443 -0.3035
17596TIP3    H274280   6.379   5.516  13.867 -0.2297  0.3183 -0.1451
17597TIP3   OH274281   1.573   0.374  10.974  0.4152 -0.4660  0.2182
17597TIP3    H174282   1.592   0.409  10.887 -2.6063 -2.2585 -1.2636
17597TIP3    H274283   1.583   0.279  10.964  2.4200 -0.5413  2.5113
17598TIP3   OH274284   5.109   2.023   4.600 -0.5382  0.0619  0.4741
17598TIP3    H174285   5.131   2.115   4.593  1.0914 -0.0977  2.9426
17598TIP3    H274286   5.055   2.016   4.679 -2.7163 -0.7752 -1.0217
17599TIP3   OH274287   0.313   5.382  14.078  0.6742 -0.3830  0.3931
17599TIP3    H174288   0.239   5.347  14.127 -0.3866  0.3655 -0.6636
17599TIP3    H274289   0.362   5.433  14.144  0.3555 -1.0192  1.1296
17600TIP3   OH274290   4.467   4.805   0.691  0.3699  0.2660  0.0373
17600TIP3    H174291   4.425   4.720   0.704 -0.2708  0.7630  1.2707
17600TIP3    H274292   4.420   4.843   0.617 -0.2969  0.1414  0.3884
17601TIP3   OH274293   6.506   4.534   6.007 -0.3447  0.2383  0.6110
17601TIP3    H174294   6.456   4.475   5.951  0.8965 -0.0188 -0.2513
17601TIP3    H274295   6.440   4.580   6.059 -1.4019 -0.9147  0.3142
17602TIP3   OH274296   2.613   4.738  13.162 -0.4643  0.2149 -0.1220
17602TIP3    H174297   2.523   4.706  13.169  0.0221 -0.9603  1.0145
17602TIP3    H274298   2.607   4.815  13.105 -2.3111  0.6791  0.6654
17603TIP3   OH274299   4.707   3.368  13.383  0.5548  0.3346  0.6551
17603TIP3    H174300   4.645   3.299  13.360  1.6429  0.0386 -1.5868
17603TIP3    H274301   4.664   3.449  13.354  0.3880  0.3229  0.8704
17604TIP3   OH274302   2.124   1.861  14.578 -0.2894  0.7173  0.3001
17604TIP3    H174303   2.054   1.924  14.561 -0.3312  0.4292 -0.6644
17604TIP3    H274304   2.205   1.907  14.553 -0.4825 -0.2119 -2.1533
17605TIP3   OH274305   2.803   4.429   4.510 -0.5228  0.2208  0.0434
17605TIP3    H174306   2.849   4.353   4.472 -1.4558  0.2278 -1.1219
17605TIP3    H274307   2.867   4.467   4.571 -0.3211 -1.9629  1.2635
17606TIP3   OH274308   1.688   0.206   4.844  0.0725 -0.0429  0.0878
17606TIP3    H174309   1.604   0.190   4.888  0.7114 -0.0392  1.3469
17606TIP3    H274310   1.751   0.211   4.916  1.2565 -0.7571 -0.8923
17607TIP3   OH274311   3.480   0.348  14.789  0.1764  0.0728 -0.0919
17607TIP3    H174312   3.408   0.402  14.758  0.0280 -0.1476 -0.1345
17607TIP3    H274313   3.542   0.410  14.829 -0.5567  0.1440  0.9607
17608TIP3   OH274314   3.919   0.286   4.883  0.5950 -0.3091  0.5394
17608TIP3    H174315   4.004   0.327   4.898  1.1271 -0.6173 -1.4229
17608TIP3    H274316   3.868   0.353   4.836  0.7358 -1.1171 -0.7855
17609TIP3   OH274317   2.703   2.525  12.858  0.4216  0.0879 -0.3697
17609TIP3    H174318   2.618   2.482  12.849 -0.3543  2.0540 -2.9334
17609TIP3    H274319   2.700   2.566  12.945 -0.8078 -0.7283 -0.0146
17610TIP3   OH274320   3.085   2.034  12.111  0.6859 -0.2934  0.4689
17610TIP3    H174321   3.089   1.940  12.130  0.2810 -0.6060 -0.9546
17610TIP3    H274322   2.995   2.058  12.132  0.4530 -0.4813 -0.2883
17611TIP3   OH274323   6.203   1.840  12.081 -0.0487  0.1995  0.3285
17611TIP3    H174324   6.213   1.779  12.155  1.1482 -1.2045 -0.9625
17611TIP3    H274325   6.255   1.916  12.107 -1.2522  0.5653  1.7916
17612TIP3   OH274326   5.171   4.933  12.722  0.0913  0.3705  0.1456
17612TIP3    H174327   5.168   5.021  12.684 -0.0370 -1.0579 -3.2672
17612TIP3    H274328   5.255   4.898  12.695 -0.7718 -1.3500 -0.3727
17613TIP3   OH274329   0.696   0.862   4.338  0.7159 -0.3420  0.6700
17613TIP3    H174330   0.621   0.886   4.392  2.4714  2.2438  2.0872
17613TIP3    H274331   0.660   0.848   4.251 -1.7928 -1.9909  1.9067
17614TIP3   OH274332   1.118   6.633  15.709  0.2198 -0.2122  0.0022
17614TIP3    H174333   1.126   6.660  15.801  0.4380  0.1836 -0.1341
17614TIP3    H274334   1.190   6.572  15.696  1.2704  1.0735 -0.3888
17615TIP3   OH274335   2.286   3.128   6.238  0.1627  0.0870 -0.1139
17615TIP3    H174336   2.225   3.059   6.263  2.4433 -1.2265  2.0637
17615TIP3    H274337   2.321   3.100   6.153 -0.1472 -0.5858 -0.0221
17616TIP3   OH274338   2.510   0.349  15.188  0.2925  0.4419  0.0587
17616TIP3    H174339   2.605   0.356  15.200  0.2155  0.8573  0.4288
17616TIP3    H274340   2.486   0.270  15.237  0.6276 -0.3843 -1.0854
17617TIP3   OH274341   6.671   4.457   1.467  0.3627  0.0557  0.4734
17617TIP3    H174342   6.577   4.475   1.470  0.7127  1.9991  0.2776
17617TIP3    H274343   6.685   4.417   1.381 -0.2791 -0.1634  0.4747
17618TIP3   OH274344   3.969   1.667  12.620 -0.0157  0.0779 -0.1689
17618TIP3    H174345   3.915   1.703  12.690 -2.0668 -0.5109 -1.3945
17618TIP3    H274346   3.907   1.646  12.550  1.7518 -1.1151 -1.4358
17619TIP3   OH274347   4.874   1.437   0.926  0.3468 -0.4303  0.7518
17619TIP3    H174348   4.950   1.495   0.934 -0.1316  0.3910 -0.5016
17619TIP3    H274349   4.810   1.489   0.879 -1.3406 -0.7975  2.5768
17620TIP3   OH274350   0.996   3.693   6.100 -0.0195 -0.1468 -0.4352
17620TIP3    H174351   1.080   3.673   6.060  0.4152  2.2230 -0.7264
17620TIP3    H274352   0.975   3.781   6.071 -1.7984 -0.0614  1.0077
17621TIP3   OH274353   2.969   2.705   3.644 -0.2832 -0.4406  0.4816
17621TIP3    H174354   2.978   2.756   3.564  1.8826  1.2325  1.7646
17621TIP3    H274355   3.031   2.633   3.633  1.9993  1.2773  1.7564
17622TIP3   OH274356   4.184   2.039   2.068  0.1387 -0.1941  0.0984
17622TIP3    H174357   4.254   2.089   2.111 -0.7137  0.3405  0.8956
17622TIP3    H274358   4.105   2.089   2.086 -0.4995 -0.9686 -0.5196
17623TIP3   OH274359   2.976   1.003  15.285  0.1801 -0.2065  0.1737
17623TIP3    H174360   3.011   0.994  15.374  0.1816  1.5873  0.3802
17623TIP3    H274361   3.049   0.979  15.228  1.0829  1.3190  0.6367
17624TIP3   OH274362   0.686   5.389   3.721  0.2313  0.2367  0.1299
17624TIP3    H174363   0.747   5.334   3.771 -0.4447  0.6709  1.4495
17624TIP3    H274364   0.694   5.476   3.760 -0.9406  0.3835  0.0661
17625TIP3   OH274365   0.548   3.162   3.321 -0.0456  0.4967 -0.4593
17625TIP3    H174366   0.602   3.234   3.354 -0.9684  0.2848  1.5744
17625TIP3    H274367   0.611   3.104   3.278  1.2593  0.7315  1.0522
17626TIP3   OH274368   0.862   4.420  12.685 -0.1716 -0.3905 -0.4669
17626TIP3    H174369   0.956   4.423  12.702  0.0082  0.1260 -1.5204
17626TIP3    H274370   0.850   4.474  12.607 -1.4979  0.5486  0.3527
17627TIP3   OH274371   2.461   2.388   5.307 -0.2312  0.1241 -0.0399
17627TIP3    H174372   2.411   2.456   5.351  1.4374  2.0342 -1.0455
17627TIP3    H274373   2.526   2.360   5.372 -2.2302 -2.0250  1.1004
17628TIP3   OH274374   3.718   1.042  12.536 -0.4580 -0.2839  0.4491
17628TIP3    H174375   3.754   1.021  12.622  0.5012  0.2222  0.1780
17628TIP3    H274376   3.773   0.992  12.475 -1.1565 -0.6667  0.1356
17629TIP3   OH274377   0.849   2.874  14.331  0.0589  0.2558 -0.1619
17629TIP3    H174378   0.869   2.921  14.250 -1.4194 -0.3942 -0.9208
17629TIP3    H274379   0.924   2.892  14.388  1.5068  0.0740 -1.9470
17630TIP3   OH274380   5.621   0.851   5.148 -0.0767  0.6278  0.0520
17630TIP3    H174381   5.644   0.904   5.224 -1.5743  1.6278 -0.1849
17630TIP3    H274382   5.706   0.830   5.108  0.5503  3.0633  0.0119
17631TIP3   OH274383   3.373   2.254  14.268  0.1445  0.5787  0.4602
17631TIP3    H174384   3.301   2.303  14.308 -0.6474 -0.2745  0.0802
17631TIP3    H274385   3.430   2.231  14.342 -0.9559 -0.3935  1.0199
17632TIP3   OH274386   3.508   0.798   2.573 -0.2447 -0.1471 -0.1761
17632TIP3    H174387   3.523   0.721   2.518 -0.0696  0.5697 -1.1413
17632TIP3    H274388   3.583   0.855   2.556 -0.9308  0.7232 -0.2973
17633TIP3   OH274389   2.739   0.585   6.791  0.7409  0.0227  0.2462
17633TIP3    H174390   2.818   0.633   6.816  1.2145 -0.7229  0.2007
17633TIP3    H274391   2.693   0.569   6.873  0.8737  0.0584  0.3277
17634TIP3   OH274392   3.201   2.362   6.240  0.1450 -0.5159 -0.7098
17634TIP3    H174393   3.225   2.452   6.216  0.0624 -0.5158 -0.7930
17634TIP3    H274394   3.163   2.326   6.160  0.0084 -0.5647 -0.6223
17635TIP3   OH274395   3.433   1.983   2.283  0.2895  0.7035 -0.5646
17635TIP3    H174396   3.495   2.004   2.214  0.6192 -1.0133 -0.8161
17635TIP3    H274397   3.487   1.951   2.356 -0.2974 -0.9427 -0.8436
17636TIP3   OH274398   4.823   0.285  12.779 -0.7365 -0.2418 -0.6003
17636TIP3    H174399   4.818   0.378  12.798 -2.4578 -0.8577  2.2037
17636TIP3    H274400   4.741   0.265  12.733  0.2487 -0.1282 -2.4399
17637TIP3   OH274401   0.521   4.441   0.318 -0.4292  0.3087  0.4687
17637TIP3    H174402   0.597   4.440   0.377 -0.5687  0.4261  0.6526
17637TIP3    H274403   0.514   4.532   0.290 -1.2493  0.5417  1.4284
17638TIP3   OH274404   4.407   0.161  11.228 -0.0033  0.2394  0.3192
17638TIP3    H174405   4.415   0.169  11.323  0.5975  1.0379  0.2087
17638TIP3    H274406   4.389   0.250  11.198 -1.7244 -0.2659 -0.1788
17639TIP3   OH274407   4.027   5.811  10.581  0.6052 -0.4399  0.6375
17639TIP3    H174408   4.118   5.831  10.561  0.6753  0.6933  2.0208
17639TIP3    H274409   4.031   5.745  10.650  0.4471  1.7973  2.8838
17640TIP3   OH274410   2.307   6.159  16.062 -0.6269 -0.0726 -0.7897
17640TIP3    H174411   2.242   6.140  16.129  0.6036  0.3888  0.5719
17640TIP3    H274412   2.278   6.109  15.985 -2.9075  0.6335 -0.4296
17641TIP3   OH274413   5.104   0.799   5.055  0.0351 -0.5197  0.0292
17641TIP3    H174414   5.156   0.860   5.002  0.1376 -0.4969  0.1539
17641TIP3    H274415   5.022   0.845   5.070  0.1622 -0.3530  0.2354
17642TIP3   OH274416   6.566   1.045   4.215  0.2262  0.3485 -0.0901
17642TIP3    H174417   6.632   1.030   4.282  1.4432  1.0567 -1.1197
17642TIP3    H274418   6.608   1.020   4.133 -1.0178  0.1551 -0.6892
17643TIP3   OH274419   2.100   2.624   1.819 -0.3179  0.0227 -0.1514
17643TIP3    H174420   2.099   2.557   1.887 -3.0003  0.8517  0.6661
17643TIP3    H274421   2.066   2.580   1.741  1.5963 -0.5888 -0.6719
17644TIP3   OH274422   5.835   0.394  14.196 -0.4540 -0.1090  1.0660
17644TIP3    H174423   5.860   0.478  14.157 -0.7197 -1.2070 -1.5664
17644TIP3    H274424   5.908   0.335  14.177 -1.9838 -1.5204 -0.7465
17645TIP3   OH274425   5.112   6.150   1.335 -0.0732  0.2145 -0.3307
17645TIP3    H174426   5.057   6.162   1.258 -2.8480 -1.9201  1.2246
17645TIP3    H274427   5.130   6.239   1.365 -1.7312  0.9966 -1.5564
17646TIP3   OH274428   0.828   2.857   1.323  0.0029 -0.2017 -0.0139
17646TIP3    H174429   0.863   2.945   1.308  0.9305 -0.4691  0.5039
17646TIP3    H274430   0.887   2.799   1.275 -0.7369 -0.5246 -0.5352
17647TIP3   OH274431   1.585   5.193   2.004 -0.2526 -0.1320 -0.3652
17647TIP3    H174432   1.667   5.145   1.990 -0.9133 -0.7584 -2.4061
17647TIP3    H274433   1.551   5.206   1.916 -0.3020  3.8223  0.1766
17648TIP3   OH274434   4.007   0.407  17.011 -0.1874  0.3560 -0.3350
17648TIP3    H174435   3.990   0.348  17.085  1.5178  0.6181  0.2784
17648TIP3    H274436   4.039   0.350  16.942  0.9336  0.4873  0.0740
17649TIP3   OH274437   4.598   4.284  11.523  0.1047  0.2617  0.1020
17649TIP3    H174438   4.531   4.215  11.520 -0.9759  1.2185  1.6911
17649TIP3    H274439   4.679   4.239  11.499 -0.7075 -1.4065  0.3827
17650TIP3   OH274440   1.491   2.685   3.049 -0.0631 -0.4502  0.9107
17650TIP3    H174441   1.455   2.774   3.042 -0.8678 -0.7565  1.1181
17650TIP3    H274442   1.583   2.698   3.072  0.0729  0.3583 -0.0195
17651TIP3   OH274443   5.898   2.597   1.530 -0.1728  0.6707  0.1881
17651TIP3    H174444   5.934   2.518   1.572 -0.4507  1.2399  1.5037
17651TIP3    H274445   5.835   2.563   1.466 -1.7303 -0.1217  2.1015
17652TIP3   OH274446   5.702   6.531   2.206 -0.7344  0.1158 -0.4232
17652TIP3    H174447   5.638   6.583   2.158 -0.8223  0.1529 -0.2641
17652TIP3    H274448   5.772   6.593   2.226 -0.4391 -0.0276 -0.9899
17653TIP3   OH274449   2.272   0.673   3.781  0.6545  0.1786  0.5629
17653TIP3    H174450   2.297   0.691   3.690 -0.6668 -1.5122 -0.1835
17653TIP3    H274451   2.209   0.601   3.774  2.2948 -1.5751  2.9878
17654TIP3   OH274452   0.115   3.104   5.031  0.4497  0.1330  0.6948
17654TIP3    H174453   0.042   3.116   4.971  0.7514  0.6636  0.4294
17654TIP3    H274454   0.132   3.010   5.031 -1.6164 -0.2613  2.3988
17655TIP3   OH274455   5.788   2.769  14.471  0.0886 -0.2563 -0.6356
17655TIP3    H174456   5.804   2.697  14.409  0.2541  0.7137 -1.7348
17655TIP3    H274457   5.875   2.795  14.500  0.2613  1.4424 -2.5101
17656TIP3   OH274458   4.053   2.147  12.654 -0.2228  0.1828  0.0642
17656TIP3    H174459   4.086   2.235  12.634  0.9146 -0.0859  0.7467
17656TIP3    H274460   4.015   2.155  12.742  1.5881 -0.4480  0.9272
17657TIP3   OH274461   2.529   0.269  16.211  0.8385 -0.0944  0.3333
17657TIP3    H174462   2.472   0.336  16.172  1.1777  0.1638  0.2810
17657TIP3    H274463   2.617   0.306  16.205  0.9082 -0.1004  1.2331
17658TIP3   OH274464   6.601   0.596   1.087 -0.3530  0.5829  0.0818
17658TIP3    H174465   6.675   0.623   1.141 -0.3708  1.1470 -0.1756
17658TIP3    H274466   6.527   0.647   1.120 -0.7525 -0.3619  0.6895
17659TIP3   OH274467   0.990   2.732   3.433  0.0011  0.1770  0.1402
17659TIP3    H174468   0.946   2.710   3.516  0.1247 -1.1218 -0.1179
17659TIP3    H274469   1.078   2.759   3.459  0.0038 -0.1202  0.4426
17660TIP3   OH274470   1.357   1.521  16.380 -0.4876 -0.2355 -0.2626
17660TIP3    H174471   1.277   1.528  16.328 -0.6410  1.3022  0.1509
17660TIP3    H274472   1.407   1.599  16.357  0.7528 -1.0187 -0.2637
17661TIP3   OH274473   3.115   0.346   4.444  1.1735  0.0928  0.5778
17661TIP3    H174474   3.208   0.338   4.467  0.5970  1.1232  3.5026
17661TIP3    H274475   3.075   0.388   4.520 -1.7004 -0.2642 -0.6658
17662TIP3   OH274476   4.205   2.835   4.244 -0.6959 -0.0762 -0.0154
17662TIP3    H174477   4.141   2.906   4.254 -0.4439  0.1700 -0.1322
17662TIP3    H274478   4.258   2.862   4.169  0.8693  0.7572  1.3476
17663TIP3   OH274479   3.616   5.493   2.032 -0.3496  0.0744 -0.0804
17663TIP3    H174480   3.639   5.563   1.971 -1.1365  0.7942  0.4427
17663TIP3    H274481   3.633   5.412   1.983  0.5506  0.6216 -0.6901
17664TIP3   OH274482   1.592   6.546   1.678 -0.1391  0.2869 -0.1056
17664TIP3    H174483   1.636   6.583   1.601 -0.4788  0.8402 -0.0387
17664TIP3    H274484   1.620   6.602   1.750 -0.0462 -0.0595  0.1251
17665TIP3   OH274485   5.685   4.271  11.539  0.0567 -0.1190 -0.3017
17665TIP3    H174486   5.690   4.357  11.497  0.1069 -0.0160 -0.0876
17665TIP3    H274487   5.746   4.216  11.491  3.0147  1.0024  2.0266
17666TIP3   OH274488   5.063   3.872   6.105 -0.2723  1.4029 -0.1328
17666TIP3    H174489   5.058   3.962   6.074 -1.4395  0.8897 -1.5249
17666TIP3    H274490   5.030   3.820   6.031 -0.9293 -0.0490  1.1530
17667TIP3   OH274491   6.805   6.485  12.455  0.2113  0.1537  0.6922
17667TIP3    H174492   6.760   6.446  12.380  0.5744 -2.7698  1.9172
17667TIP3    H274493   6.808   6.578  12.436 -2.6635 -0.1250 -1.3621
17668TIP3   OH274494   0.560   5.008   3.199 -0.0505  0.4484 -0.4720
17668TIP3    H174495   0.499   5.028   3.128 -2.1070 -0.3466  0.9997
17668TIP3    H274496   0.514   5.036   3.279  1.0405 -1.1581  0.7634
17669TIP3   OH274497   3.397   0.377  12.850  0.1979  0.7391  0.7797
17669TIP3    H174498   3.318   0.333  12.818  0.1867  2.0033 -1.0425
17669TIP3    H274499   3.468   0.338  12.798  0.7406 -0.1201  2.1439
17670TIP3   OH274500   6.697   4.513   5.414  0.0289 -0.1065  0.1072
17670TIP3    H174501   6.775   4.555   5.448 -0.0173  0.6420 -0.7006
17670TIP3    H274502   6.667   4.457   5.485  1.4607 -0.6243  0.3132
17671TIP3   OH274503   0.039   1.884  14.894  0.0489 -0.4348 -0.2220
17671TIP3    H174504  -0.054   1.875  14.917 -0.2647 -1.1056 -1.7124
17671TIP3    H274505   0.081   1.909  14.976 -1.2936 -1.1633  0.7154
17672TIP3   OH274506   3.074   4.741   6.308 -0.7838  0.7939  0.2729
17672TIP3    H174507   3.097   4.708   6.221  0.3478  1.5658  0.2626
17672TIP3    H274508   3.091   4.667   6.366  1.1109  1.1188  0.1690
17673TIP3   OH274509   6.386   6.249   3.944  0.1104  0.4747  0.1973
17673TIP3    H174510   6.408   6.274   3.854  0.0788 -1.6329 -0.4185
17673TIP3    H274511   6.292   6.265   3.951  0.3485  1.9655  0.3311
17674TIP3   OH274512   6.255   0.941   3.888 -0.1931 -0.3040 -0.1047
17674TIP3    H174513   6.265   0.878   3.816  1.2912 -0.2899  0.0874
17674TIP3    H274514   6.291   0.897   3.964  0.3616  0.5730  0.1459
17675TIP3   OH274515   0.223   2.877   2.815  0.0276 -0.5023 -0.2290
17675TIP3    H174516   0.189   2.955   2.859 -0.9787  0.1826 -2.1454
17675TIP3    H274517   0.289   2.911   2.754  0.4556 -1.2788 -0.2034
17676TIP3   OH274518   3.303   0.392   0.462 -0.0584  0.6729 -0.4019
17676TIP3    H174519   3.398   0.383   0.450 -0.1272 -1.2648  0.4422
17676TIP3    H274520   3.267   0.382   0.374  0.1242 -4.3416 -0.0261
17677TIP3   OH274521   0.398   1.043  12.239 -0.0732 -0.3696 -0.5307
17677TIP3    H174522   0.386   1.126  12.286 -0.0102 -0.9794  0.5873
17677TIP3    H274523   0.319   1.034  12.186 -0.1862  0.3026 -0.4772
17678TIP3   OH274524   2.758   5.028  16.261 -0.2894  0.1940  0.2806
17678TIP3    H174525   2.740   4.990  16.175  2.1822  0.9325 -0.5862
17678TIP3    H274526   2.848   5.004  16.280 -0.2060  1.6350  1.8318
17679TIP3   OH274527   5.128   2.126   5.421 -0.2142  0.2146 -0.2401
17679TIP3    H174528   5.166   2.178   5.491  0.5438  1.3736 -1.4847
17679TIP3    H274529   5.089   2.051   5.465 -0.4655  1.3354  1.4872
17680TIP3   OH274530   5.954   3.877   5.281 -0.4536  0.5120  0.5585
17680TIP3    H174531   6.005   3.847   5.356  0.1346 -0.7458 -0.3304
17680TIP3    H274532   5.877   3.918   5.320  0.9480  1.9660  1.9005
17681TIP3   OH274533   2.587   5.114  16.976  0.4076  0.2346  0.4299
17681TIP3    H174534   2.613   5.137  17.065  1.5856 -1.2637  0.4971
17681TIP3    H274535   2.631   5.179  16.921 -0.8694  1.5812  0.9547
17682TIP3   OH274536   6.573   5.430  12.093  0.2048  0.2716 -0.1509
17682TIP3    H174537   6.608   5.439  12.181  0.2925  0.7948 -0.2339
17682TIP3    H274538   6.478   5.429  12.104  0.1306  2.6713 -0.2279
17683TIP3   OH274539   4.189   0.808  15.021 -0.2986  0.1951  0.8394
17683TIP3    H174540   4.198   0.761  14.939  0.8807  0.6557  0.6964
17683TIP3    H274541   4.137   0.749  15.076  0.7490 -1.0900  0.5072
17684TIP3   OH274542   2.224   0.419  16.031  0.7821  0.4971  0.5880
17684TIP3    H174543   2.306   0.383  15.999  1.9861  1.4319  2.5575
17684TIP3    H274544   2.158   0.356  16.001  2.2261 -0.4311 -0.7401
17685TIP3   OH274545   5.186   5.371  16.067 -0.5829  0.4684  0.2205
17685TIP3    H174546   5.260   5.325  16.107  0.2590  1.3605 -0.2748
17685TIP3    H274547   5.141   5.304  16.016 -0.8649 -0.3682  1.5371
17686TIP3   OH274548   2.333   1.782  14.937 -0.0849  0.5768  0.3048
17686TIP3    H174549   2.295   1.774  15.024  1.4968  1.4309  1.0977
17686TIP3    H274550   2.387   1.860  14.941  0.0755  0.5871 -1.4311
17687TIP3   OH274551   1.723   2.281   2.166 -0.1148 -0.1895  0.2539
17687TIP3    H174552   1.658   2.224   2.124  0.9577 -0.0269 -1.6856
17687TIP3    H274553   1.687   2.298   2.253 -3.1856  0.6621 -1.0825
17688TIP3   OH274554   0.695   6.475  12.681 -0.4053 -0.3695 -0.1624
17688TIP3    H174555   0.723   6.383  12.682 -0.8424 -0.4897  1.2896
17688TIP3    H274556   0.713   6.504  12.591  0.8028 -1.5460 -0.3178
17689TIP3   OH274557   6.598   1.385  12.660 -0.6890 -0.4310 -0.3711
17689TIP3    H174558   6.679   1.436  12.664 -1.0787  0.1037  0.9381
17689TIP3    H274559   6.552   1.405  12.742 -2.2069 -0.6264 -1.1427
17690TIP3   OH274560   0.235   5.642   6.001 -0.0982 -0.2103 -0.3221
17690TIP3    H174561   0.201   5.569   6.054 -1.0349 -0.6503 -1.5048
17690TIP3    H274562   0.175   5.714   6.020  0.4149  0.0584  0.3066
17691TIP3   OH274563   0.004   2.211  10.576  0.0354  0.7064 -0.2388
17691TIP3    H174564  -0.008   2.169  10.491  1.0178 -2.7078  1.2358
17691TIP3    H274565  -0.071   2.182  10.629  1.7875 -0.9359  1.4311
17692TIP3   OH274566   1.749   4.307   4.360  0.2274 -0.5494  0.1007
17692TIP3    H174567   1.761   4.277   4.270 -2.0513 -0.9346 -0.1085
17692TIP3    H274568   1.837   4.305   4.398  1.2533 -0.1604 -2.1735
17693TIP3   OH274569   0.227   4.087  16.349 -0.2824 -0.0545  0.4279
17693TIP3    H174570   0.245   4.140  16.271  0.2374 -0.4573  0.2723
17693TIP3    H274571   0.194   4.004  16.315 -1.8025  0.4209  0.6890
17694TIP3   OH274572   1.731   1.700  16.563  0.4742 -0.3240 -0.0617
17694TIP3    H174573   1.644   1.674  16.595  0.4611 -0.7465 -0.4397
17694TIP3    H274574   1.714   1.778  16.511  0.4370  0.1108  0.5981
17695TIP3   OH274575   5.886   5.765   5.797  0.0303  0.2968  0.1092
17695TIP3    H174576   5.953   5.833   5.794 -0.6464  1.0895  2.2952
17695TIP3    H274577   5.888   5.732   5.887 -0.3035 -1.9384 -0.6500
17696TIP3   OH274578   5.754   3.071  12.470  0.4379  0.4375 -0.4132
17696TIP3    H174579   5.808   3.075  12.549  2.0933 -0.5443 -1.4649
17696TIP3    H274580   5.729   3.162  12.454  1.7735  0.9145  0.1134
17697TIP3   OH274581   1.641   2.271  15.463 -0.0680  0.0298 -0.5060
17697TIP3    H174582   1.724   2.259  15.418  0.2274 -1.5331  0.3909
17697TIP3    H274583   1.579   2.217  15.414 -0.4374  0.8122 -0.8944
17698TIP3   OH274584   5.667   3.135  16.493  0.5572  0.1400  0.1976
17698TIP3    H174585   5.603   3.205  16.504  0.4776  0.3061 -1.2727
17698TIP3    H274586   5.752   3.177  16.504  0.6896  1.2421 -4.1733
17699TIP3   OH274587   0.822   3.678   1.662  0.2750 -0.3422 -0.5396
17699TIP3    H174588   0.761   3.614   1.626  0.6434  0.1998 -2.1495
17699TIP3    H274589   0.877   3.704   1.588  0.5349  1.3669  0.2250
17700TIP3   OH274590   6.463   1.708  16.803  0.2750 -0.1735 -0.2713
17700TIP3    H174591   6.548   1.684  16.840  0.1854  0.1698  0.1699
17700TIP3    H274592   6.409   1.630  16.814  0.5080 -0.3614 -0.4678
17701TIP3   OH274593   0.746   0.787   2.250 -0.1297  0.0685  0.6480
17701TIP3    H174594   0.826   0.819   2.208 -0.3984  0.6096  0.5551
17701TIP3    H274595   0.777   0.718   2.309  0.3446 -0.1033  0.2045
17702TIP3   OH274596   2.093   4.110   2.795  0.2658 -0.5008 -0.0608
17702TIP3    H174597   2.012   4.100   2.844  0.8846 -0.6689  0.9465
17702TIP3    H274598   2.151   4.159   2.854  0.5217  0.5893 -1.1889
17703TIP3   OH274599   0.071   4.736   3.657  0.0822 -0.1186  0.6949
17703TIP3    H174600   0.031   4.807   3.608  2.2276 -1.2181 -2.8237
17703TIP3    H274601   0.005   4.667   3.659 -1.2720  1.2069  2.4001
17704TIP3   OH274602   4.672   0.361  16.215  0.1562  0.2042  0.5258
17704TIP3    H174603   4.699   0.403  16.297  1.1056 -0.5972  0.6261
17704TIP3    H274604   4.753   0.334  16.173 -0.0791  3.3917 -2.2353
17705TIP3   OH274605   6.611   0.653  14.356  0.4559 -0.4643  0.5375
17705TIP3    H174606   6.558   0.710  14.411  0.7915  0.0780  0.2997
17705TIP3    H274607   6.690   0.636  14.408  0.9065  0.2880  0.1151
17706TIP3   OH274608   2.305   2.582   6.043  0.5100  0.1622  0.3798
17706TIP3    H174609   2.325   2.628   5.961  0.3029  1.5077  1.0607
17706TIP3    H274610   2.255   2.646   6.094 -1.4189 -1.4830  0.6041
17707TIP3   OH274611   0.827   2.199  16.053  0.3471 -0.7576 -0.4278
17707TIP3    H174612   0.776   2.128  16.092 -1.1000  0.5902  0.1694
17707TIP3    H274613   0.767   2.241  15.992  1.3886 -0.4149 -1.2209
17708TIP3   OH274614   0.261   2.679  14.871  0.7449 -0.2878 -0.6431
17708TIP3    H174615   0.280   2.585  14.868 -1.2219 -0.6681 -1.9973
17708TIP3    H274616   0.179   2.688  14.822 -0.0623  1.8931  1.0568
17709TIP3   OH274617   6.546   0.714  15.968 -0.1158  0.3197  0.0098
17709TIP3    H174618   6.545   0.789  16.026  0.8024  0.3067  0.0558
17709TIP3    H274619   6.630   0.720  15.922  0.5607 -1.3631  0.9459
17710TIP3   OH274620   2.465   2.591   2.559 -0.0368  0.4486  0.0272
17710TIP3    H174621   2.495   2.679   2.583  0.6004  0.1174  0.4600
17710TIP3    H274622   2.543   2.548   2.525  0.0694 -0.5332  1.4856
17711TIP3   OH274623   1.252   6.584   1.332 -0.2014  0.2459  0.5897
17711TIP3    H174624   1.263   6.665   1.382  0.6934 -0.7729  2.0998
17711TIP3    H274625   1.337   6.540   1.340  0.0627  0.2159 -2.1563
17712TIP3   OH274626   5.986   6.543   2.751 -0.2071  0.0578  0.2658
17712TIP3    H174627   6.027   6.626   2.725  1.3127 -0.9773 -0.7672
17712TIP3    H274628   6.057   6.494   2.794 -0.5541 -1.4732 -0.8629
17713TIP3   OH274629   2.429   3.129  11.984 -0.0841 -0.2004 -0.3628
17713TIP3    H174630   2.440   3.145  12.078 -2.0101 -0.8097 -0.0221
17713TIP3    H274631   2.348   3.174  11.962 -1.5591 -3.0619 -0.9743
17714TIP3   OH274632   6.439   5.588   6.342  0.1397  0.5696  0.1678
17714TIP3    H174633   6.490   5.524   6.392 -0.9725  0.2135  0.8719
17714TIP3    H274634   6.348   5.561   6.355 -0.1750  0.2071 -2.4039
17715TIP3   OH274635   1.178   6.453  15.211  0.8787  0.0111  0.2870
17715TIP3    H174636   1.162   6.450  15.305  0.6121 -2.2824  0.2001
17715TIP3    H274637   1.268   6.485  15.202  1.3331 -0.9662  1.3600
17716TIP3   OH274638   5.707   4.523  11.404  0.2792 -0.1863 -0.6964
17716TIP3    H174639   5.684   4.604  11.450 -1.6090 -0.6253 -0.8251
17716TIP3    H274640   5.762   4.552  11.331 -0.8730  1.0646 -1.0932
17717TIP3   OH274641   4.786   6.319   3.009 -0.9234  0.2682  0.0511
17717TIP3    H174642   4.855   6.258   3.033  0.5348  1.7594 -0.3014
17717TIP3    H274643   4.712   6.295   3.065  0.0287 -1.0268  0.7619
17718TIP3   OH274644   3.594   6.704  11.500  0.8165  0.3012 -0.2797
17718TIP3    H174645   3.645   6.623  11.504  0.4342  0.1015  1.1090
17718TIP3    H274646   3.549   6.708  11.585  0.4155  1.6990 -0.5356
17719TIP3   OH274647   4.159   1.766  12.803  0.7454 -0.5058  0.2921
17719TIP3    H174648   4.106   1.717  12.740 -0.0104  0.6814 -0.0052
17719TIP3    H274649   4.211   1.827  12.750  0.1036  0.4965  0.7975
17720TIP3   OH274650   2.645   3.860   3.792  0.3595  0.0367 -0.6196
17720TIP3    H174651   2.718   3.831   3.737  0.7455  0.2466 -0.2170
17720TIP3    H274652   2.634   3.953   3.771 -0.3440 -0.1927 -1.3008
17721TIP3   OH274653   3.228   2.899   3.573 -0.5030 -0.2559 -0.5890
17721TIP3    H174654   3.228   2.984   3.615  1.4780 -0.3282 -0.3928
17721TIP3    H274655   3.254   2.917   3.482  0.2991 -0.6780 -0.4497
17722TIP3   OH274656   4.643   4.133  15.066 -0.2986  0.6242 -0.5356
17722TIP3    H174657   4.634   4.045  15.103 -1.1934  1.0465  0.2477
17722TIP3    H274658   4.685   4.118  14.981  1.8313 -0.3454  0.6312
17723TIP3   OH274659   0.133   0.844   2.770 -0.8903 -0.1171 -0.2969
17723TIP3    H174660   0.043   0.849   2.803 -0.0383  0.9703  1.9354
17723TIP3    H274661   0.174   0.773   2.820  0.1729  1.0007  0.4536
17724TIP3   OH274662   6.471   6.408   4.153  0.8863 -0.2631 -0.2728
17724TIP3    H174663   6.454   6.350   4.227  1.4382  0.7754  0.6718
17724TIP3    H274664   6.460   6.351   4.076 -0.7934 -1.0797  0.5341
17725TIP3   OH274665   1.466   2.596  11.240 -0.4763  0.0530 -0.6968
17725TIP3    H174666   1.403   2.638  11.298  1.0837  0.9438  0.3798
17725TIP3    H274667   1.422   2.593  11.155 -1.6986  1.2520 -0.1164
17726TIP3   OH274668   3.295   5.987   3.271 -0.0499  0.1426  0.1266
17726TIP3    H174669   3.214   5.964   3.318  0.1923  1.5452  1.2699
17726TIP3    H274670   3.332   5.903   3.245 -1.7799 -0.5360 -0.2636
17727TIP3   OH274671   6.745   6.210  10.815  0.4071  0.2501 -0.0684
17727TIP3    H174672   6.670   6.211  10.755  1.2168  1.6449 -1.1126
17727TIP3    H274673   6.778   6.120  10.811  0.6123  0.3725 -1.9987
17728TIP3   OH274674   6.774   4.018   6.564 -0.2255 -0.1092 -0.0240
17728TIP3    H174675   6.788   3.924   6.560 -0.8403 -0.2958  1.8065
17728TIP3    H274676   6.855   4.056   6.530 -0.6783 -1.2985 -2.5050
17729TIP3   OH274677   6.778   1.103  11.350  0.1363 -0.2073  0.4601
17729TIP3    H174678   6.839   1.171  11.378  1.1827 -1.0101  0.1325
17729TIP3    H274679   6.722   1.146  11.285  1.4987  0.0523 -0.5455
17730TIP3   OH274680   2.367   5.574  14.489 -0.2612  0.2863 -0.0373
17730TIP3    H174681   2.420   5.537  14.559 -1.5014 -0.6920  0.3981
17730TIP3    H274682   2.422   5.564  14.411  0.3347 -0.4246  0.4573
17731TIP3   OH274683   2.549   1.535   4.982  0.0829  0.5589  0.1438
17731TIP3    H174684   2.602   1.460   5.009 -0.1116  0.6438  0.7551
17731TIP3    H274685   2.613   1.599   4.950  0.2279  0.0215 -0.6620
17732TIP3   OH274686   3.499   3.114   6.126 -0.2918 -0.0955 -0.1075
17732TIP3    H174687   3.413   3.153   6.139 -0.1857  0.4928 -1.1375
17732TIP3    H274688   3.504   3.045   6.192 -2.4873 -1.7081 -1.5972
17733TIP3   OH274689   4.455   5.142  11.299 -0.5971 -0.1961  0.1303
17733TIP3    H174690   4.432   5.230  11.330  2.9443  0.9065 -0.1213
17733TIP3    H274691   4.437   5.085  11.374 -2.8832  0.7054  0.3210
17734TIP3   OH274692   5.763   4.851  13.867 -0.0758 -0.2627 -0.1281
17734TIP3    H174693   5.765   4.902  13.785  0.0056  0.1868  0.1527
17734TIP3    H274694   5.725   4.767  13.841 -1.5220  0.4343 -0.3325
17735TIP3   OH274695   1.470   4.447  17.054  0.3599  0.2748 -0.0675
17735TIP3    H174696   1.382   4.484  17.049  0.3493  0.1665 -0.6813
17735TIP3    H274697   1.509   4.466  16.968  0.0504 -1.8883 -0.7073
17736TIP3   OH274698   5.860   6.111   2.460 -0.5194 -0.9119  0.0790
17736TIP3    H174699   5.885   6.098   2.368 -2.8976 -1.9778 -0.4482
17736TIP3    H274700   5.857   6.022   2.496  0.3514 -0.5016  1.2084
17737TIP3   OH274701   2.852   0.177   2.498 -0.4167 -0.1945  0.1750
17737TIP3    H174702   2.786   0.245   2.515 -1.3118 -1.0479  0.1715
17737TIP3    H274703   2.812   0.122   2.430  1.1068  0.3710 -1.2055
17738TIP3   OH274704   2.357   5.416   3.669 -0.9364  0.5821 -0.5581
17738TIP3    H174705   2.423   5.419   3.599 -0.3574 -1.4212 -0.1286
17738TIP3    H274706   2.395   5.470   3.739  0.6003 -1.0666 -0.0600
17739TIP3   OH274707   0.342   2.344  13.714 -0.2169 -0.2200  0.6887
17739TIP3    H174708   0.263   2.295  13.737 -0.6112  0.5584  0.9872
17739TIP3    H274709   0.331   2.429  13.756  0.9258 -0.2177  0.9962
17740TIP3   OH274710   4.738   5.824  16.943  0.0732  0.0272  0.2809
17740TIP3    H174711   4.802   5.826  17.015 -0.7837 -0.6721  1.0781
17740TIP3    H274712   4.718   5.916  16.926  0.6519  0.2161  0.5936
17741TIP3   OH274713   1.324   0.093   2.386 -0.3428  0.0292  0.3082
17741TIP3    H174714   1.378   0.055   2.317  0.1686  0.8017  0.2832
17741TIP3    H274715   1.342   0.039   2.463 -2.3962 -2.0575 -0.6339
17742TIP3   OH274716   0.025   5.262   1.635  0.0779  0.1647  0.2756
17742TIP3    H174717  -0.054   5.224   1.673  1.1331 -0.7348  1.6337
17742TIP3    H274718   0.049   5.332   1.695  1.2880 -0.7194  0.8575
17743TIP3   OH274719   3.738   4.121  12.238 -0.5020  0.4305  0.2639
17743TIP3    H174720   3.665   4.095  12.295  2.3270  1.0243  4.4192
17743TIP3    H274721   3.789   4.041  12.227  0.4797  0.9410  0.9969
17744TIP3   OH274722   1.517   6.107  15.362  0.2145  0.3904 -0.2303
17744TIP3    H174723   1.586   6.156  15.318  1.7956 -0.7833  0.8926
17744TIP3    H274724   1.438   6.158  15.347  1.7398  3.0344  0.5048
17745TIP3   OH274725   1.860   6.531   2.030  0.0552 -0.2695 -0.3672
17745TIP3    H174726   1.779   6.548   1.981  0.4834  1.2177 -0.5828
17745TIP3    H274727   1.926   6.584   1.985  0.5428  0.7828  1.5694
17746TIP3   OH274728   6.726   5.933  12.887  0.4107 -0.2210 -0.1498
17746TIP3    H174729   6.689   5.850  12.916  0.0721  0.0549  0.2123
17746TIP3    H274730   6.794   5.953  12.951  1.6698 -1.0674 -1.1907
17747TIP3   OH274731   3.626   4.184  13.092  0.0958 -0.5313 -0.4211
17747TIP3    H174732   3.606   4.120  13.023  1.6692 -2.6327  1.0503
17747TIP3    H274733   3.695   4.239  13.055 -0.9860  0.1251 -1.5320
17748TIP3   OH274734   2.274   4.472  15.512 -0.3902 -0.1146 -0.5801
17748TIP3    H174735   2.314   4.479  15.599 -1.2611 -1.3184 -0.0522
17748TIP3    H274736   2.284   4.379  15.489 -0.5314  0.1160 -1.5878
17749TIP3   OH274737   4.236   5.589   2.160  0.7007  0.1456  0.0537
17749TIP3    H174738   4.232   5.652   2.089 -0.4038  0.8836  0.7587
17749TIP3    H274739   4.326   5.557   2.159  0.9312  0.8224 -1.0828
17750TIP3   OH274740   1.479   6.261  14.445  0.0256 -0.1267 -0.1186
17750TIP3    H174741   1.561   6.285  14.489 -1.4470  1.9653  1.5630
17750TIP3    H274742   1.445   6.188  14.496  1.6879 -2.2163 -1.8915
17751TIP3   OH274743   1.514   0.392   2.826 -0.4711 -0.4436 -0.2525
17751TIP3    H174744   1.455   0.324   2.793  0.4343 -1.2295 -0.2644
17751TIP3    H274745   1.599   0.350   2.832 -0.1178  0.3859  0.7846
17752TIP3   OH274746   5.143   2.532   3.639 -0.0731  0.5058  0.0798
17752TIP3    H174747   5.055   2.556   3.610 -0.3311  0.2200  0.6195
17752TIP3    H274748   5.199   2.603   3.606 -0.3802  0.2782 -0.9588
17753TIP3   OH274749   0.585   2.159   3.449  0.5194 -0.4028  0.0624
17753TIP3    H174750   0.638   2.114   3.514 -0.3728 -1.3887  0.1211
17753TIP3    H274751   0.537   2.226   3.498 -1.0364 -1.9057  0.6462
17754TIP3   OH274752   6.133   1.907  14.388  0.0607  0.1996 -1.3996
17754TIP3    H174753   6.137   1.833  14.327 -0.1133 -1.3878  0.4719
17754TIP3    H274754   6.058   1.887  14.444  2.2208 -0.0919  1.4784
17755TIP3   OH274755   1.365   3.520  13.099 -0.1592 -0.1676 -0.0820
17755TIP3    H174756   1.316   3.549  13.022 -0.3711 -0.6447 -0.1296
17755TIP3    H274757   1.306   3.538  13.172 -0.3051 -0.5040 -0.1152
17756TIP3   OH274758   6.735   5.465   1.474 -0.3404 -0.1709  0.5986
17756TIP3    H174759   6.811   5.508   1.436 -0.3956 -0.8569 -0.3055
17756TIP3    H274760   6.771   5.393   1.525 -0.2993  0.4196  1.4118
17757TIP3   OH274761   1.956   1.798  15.682  0.4570 -0.0254 -0.0989
17757TIP3    H174762   2.011   1.818  15.757 -0.3404 -0.5119  0.6322
17757TIP3    H274763   2.004   1.831  15.607  2.2446 -1.3833  0.4112
17758TIP3   OH274764   0.447   1.479   5.479 -0.3014  0.5246 -0.3272
17758TIP3    H174765   0.437   1.570   5.507 -3.5042  0.2617 -0.4506
17758TIP3    H274766   0.410   1.427   5.551 -1.3385 -0.5179 -1.5887
17759TIP3   OH274767   4.142   0.782  11.532 -0.1813 -0.2609  0.3335
17759TIP3    H174768   4.091   0.710  11.496 -1.3873  0.9088 -0.3337
17759TIP3    H274769   4.118   0.858  11.479  0.3343  0.8402  1.6419
17760TIP3   OH274770   6.629   1.943   5.210 -0.1344  0.2909  0.7581
17760TIP3    H174771   6.696   1.984   5.156  0.9564  1.0729  2.6602
17760TIP3    H274772   6.646   1.976   5.298 -2.0584 -0.7256  1.5353
17761TIP3   OH274773   6.245   1.616  14.010 -0.1926  0.0546 -0.2307
17761TIP3    H174774   6.170   1.582  13.961 -1.2017 -0.5663  1.6533
17761TIP3    H274775   6.311   1.547  14.004 -0.7002 -0.4704  0.1423
17762TIP3   OH274776   4.377   3.666  13.720 -0.0669  0.5060  0.4447
17762TIP3    H174777   4.428   3.590  13.747  0.0898  0.6236  0.4864
17762TIP3    H274778   4.336   3.640  13.638  0.5648  0.6210  0.0824
17763TIP3   OH274779   6.408   2.668  12.047 -0.0258 -0.0299  0.7612
17763TIP3    H174780   6.480   2.716  12.088  1.2494 -0.7091 -0.6292
17763TIP3    H274781   6.379   2.606  12.113  0.9990 -0.0781  1.1776
17764TIP3   OH274782   2.038   6.438   0.008 -1.0490 -0.3239 -0.5256
17764TIP3    H174783   2.025   6.512  -0.052  0.9180 -0.4511 -1.1410
17764TIP3    H274784   2.037   6.361  -0.048  1.7378 -0.3788 -0.5974
17765TIP3   OH274785   3.931   4.555   4.739  0.2189 -0.5031  0.1568
17765TIP3    H174786   3.844   4.595   4.736  0.2127 -0.5394 -0.1876
17765TIP3    H274787   3.914   4.463   4.761  0.1230 -0.6499 -0.5195
17766TIP3   OH274788   2.179   2.965  13.647  0.6716  0.4015 -0.1529
17766TIP3    H174789   2.264   2.946  13.609  1.0112 -1.1260  1.3282
17766TIP3    H274790   2.191   3.049  13.691  1.5211  0.0112  0.3734
17767TIP3   OH274791   2.183   3.438   3.240  0.1134  0.4293 -0.2963
17767TIP3    H174792   2.156   3.462   3.329 -2.3329  0.8760 -1.1296
17767TIP3    H274793   2.143   3.352   3.226  1.6744 -0.2942 -0.4891
17768TIP3   OH274794   0.396   5.600   2.881 -0.1262 -0.7636 -0.4344
17768TIP3    H174795   0.319   5.543   2.877 -1.5052  0.8879  1.4702
17768TIP3    H274796   0.418   5.617   2.789 -1.7842 -1.6038 -0.9968
17769TIP3   OH274797   3.651   2.839   1.601 -0.1015 -0.4934 -0.1617
17769TIP3    H174798   3.579   2.806   1.546 -1.3152  1.9831 -0.1185
17769TIP3    H274799   3.691   2.909   1.550 -1.0370  1.6321  1.9162
17770TIP3   OH274800   0.880   6.212   4.641 -0.3876  0.0983 -0.2158
17770TIP3    H174801   0.851   6.169   4.721 -0.0429 -1.2117 -0.7804
17770TIP3    H274802   0.896   6.140   4.579 -1.3366  1.1103 -1.6870
17771TIP3   OH274803   6.336   1.978  10.222  0.5098  0.1413 -0.6371
17771TIP3    H174804   6.402   1.940  10.163  1.5488  0.6438  0.1858
17771TIP3    H274805   6.273   1.908  10.234  2.1173 -1.1650  0.4126
17772TIP3   OH274806   2.078   6.199  17.182 -0.6554 -0.7665  0.4235
17772TIP3    H174807   2.047   6.110  17.194  0.1032 -1.4073 -2.1476
17772TIP3    H274808   2.173   6.192  17.179 -0.5682  0.1853  0.7591
17773TIP3   OH274809   3.003   4.590   4.212 -0.7353 -0.5070 -0.2918
17773TIP3    H174810   2.977   4.681   4.198 -1.1675 -0.4509  0.7800
17773TIP3    H274811   3.099   4.592   4.210 -0.6604  0.3817  1.8921
17774TIP3   OH274812   2.204   5.674   6.394 -0.0922 -0.4231 -0.2330
17774TIP3    H174813   2.214   5.595   6.447 -0.5136  0.1664  0.7311
17774TIP3    H274814   2.114   5.703   6.410  0.1258  0.3688 -0.4256
17775TIP3   OH274815   1.115   6.719   0.176  0.5302 -0.6769 -0.5711
17775TIP3    H174816   1.097   6.745   0.086 -1.0823  0.5283  0.0719
17775TIP3    H274817   1.189   6.659   0.170  2.1298  1.4327 -2.4304
17776TIP3   OH274818   5.306   5.017   1.683 -0.1630 -0.1469 -0.4090
17776TIP3    H174819   5.258   5.082   1.734  1.5505  1.0052 -0.2307
17776TIP3    H274820   5.398   5.041   1.694  0.3793 -1.4868 -1.8756
17777TIP3   OH274821   2.332   3.127  13.174 -0.3927 -0.2987 -0.1676
17777TIP3    H174822   2.241   3.098  13.163 -0.8929  1.5106 -0.8686
17777TIP3    H274823   2.383   3.065  13.122 -0.9550 -2.6714  1.9716
17778TIP3   OH274824   1.990   3.880  13.632 -0.0393 -0.0896 -0.1705
17778TIP3    H174825   2.072   3.907  13.590 -0.6294  1.5447 -0.3157
17778TIP3    H274826   1.925   3.942  13.600 -1.1128 -0.6720  0.8235
17779TIP3   OH274827   2.344   0.370  14.480 -0.4293  0.1953  0.2662
17779TIP3    H174828   2.358   0.279  14.503  0.4082  0.1097 -0.5565
17779TIP3    H274829   2.375   0.377  14.390 -1.2818  1.0962  0.0314
17780TIP3   OH274830   6.367   1.202   0.856 -0.2601  0.1766 -0.1415
17780TIP3    H174831   6.371   1.292   0.888 -0.1481  1.6457 -4.0094
17780TIP3    H274832   6.446   1.191   0.804 -0.4451 -2.0780 -0.0080
17781TIP3   OH274833   3.084   1.365   2.394 -0.1451  0.2868 -0.0880
17781TIP3    H174834   3.004   1.341   2.443 -1.7495  0.4748 -2.5443
17781TIP3    H274835   3.094   1.295   2.330  0.7238  1.1546 -0.8934
17782TIP3   OH274836   4.864   6.675  13.607  0.3731 -0.2412  0.0459
17782TIP3    H174837   4.921   6.608  13.568  0.3879 -0.6855  0.8052
17782TIP3    H274838   4.879   6.753  13.554  2.3403 -0.1024  0.7435
17783TIP3   OH274839   5.139   2.340   5.224 -0.0301 -0.1051 -0.3532
17783TIP3    H174840   5.118   2.267   5.282  2.4377 -0.2541  0.4023
17783TIP3    H274841   5.137   2.301   5.136 -0.4313 -0.6764 -0.0939
17784TIP3   OH274842   1.432   2.455   2.908  0.2454  0.0957 -0.6530
17784TIP3    H174843   1.440   2.539   2.953  0.3450  0.2401 -0.9381
17784TIP3    H274844   1.424   2.390   2.978  1.2868  0.2242 -0.3975
17785TIP3   OH274845   2.978   3.418   3.232 -0.3463 -0.0741 -0.2918
17785TIP3    H174846   2.962   3.337   3.184 -3.6011  0.5494 -0.3359
17785TIP3    H274847   3.011   3.389   3.317  0.0313 -1.3638 -0.8603
17786TIP3   OH274848   4.289   6.679   4.633 -0.2046 -0.3696  0.1117
17786TIP3    H174849   4.380   6.675   4.603  0.3523 -1.1196  1.8562
17786TIP3    H274850   4.295   6.707   4.724 -1.5479 -2.9776  1.0428
17787TIP3   OH274851   3.409   0.241   5.843  0.1610  0.1756 -0.0517
17787TIP3    H174852   3.482   0.220   5.784 -0.2730 -2.0084  0.1401
17787TIP3    H274853   3.342   0.278   5.786  1.8254  3.3655 -0.0570
17788TIP3   OH274854   1.080   2.421   3.481  0.7653  0.4279  0.5232
17788TIP3    H174855   1.102   2.501   3.529 -2.0137  0.3633  2.0283
17788TIP3    H274856   1.023   2.451   3.410  0.1060 -0.1535  0.8075
17789TIP3   OH274857   1.869   6.410   6.759  0.0412 -0.2713 -0.0665
17789TIP3    H174858   1.816   6.447   6.689 -0.0932  2.0688  1.2435
17789TIP3    H274859   1.956   6.398   6.721 -0.4381 -0.5141 -1.0832
17790TIP3   OH274860   4.180   4.029   4.202  0.1853 -0.0376  0.5707
17790TIP3    H174861   4.244   4.039   4.132  3.0750 -3.0298  2.6189
17790TIP3    H274862   4.147   4.117   4.218  1.2934  1.0515 -2.8317
17791TIP3   OH274863   3.432   5.593  12.975  0.3797 -0.0555  0.1434
17791TIP3    H174864   3.448   5.542  12.895 -0.6747  0.3938 -0.3612
17791TIP3    H274865   3.477   5.543  13.044  1.4929 -0.3290 -0.7496
17792TIP3   OH274866   4.165   0.141   3.416  0.0444  0.0318 -0.2692
17792TIP3    H174867   4.108   0.065   3.428  0.3151  0.0337  1.0992
17792TIP3    H274868   4.114   0.215   3.447 -0.6410  0.5773 -2.6691
17793TIP3   OH274869   4.892   6.036   2.065  0.9584 -0.4020 -0.6480
17793TIP3    H174870   4.961   6.029   2.131  1.1964  0.3401 -0.8121
17793TIP3    H274871   4.900   5.955   2.014  0.8727 -0.9082  0.1253
17794TIP3   OH274872   5.235   4.890  13.730  0.0781 -0.2561  0.5797
17794TIP3    H174873   5.149   4.848  13.726 -0.2796  0.5820 -1.1330
17794TIP3    H274874   5.296   4.825  13.695 -0.0764 -0.3636  0.5140
17795TIP3   OH274875   5.814   6.248   2.780  0.7263  0.1940 -0.0541
17795TIP3    H174876   5.798   6.338   2.749  2.1288  0.7166  0.6696
17795TIP3    H274877   5.898   6.225   2.741  1.4829  0.0582  1.6077
17796TIP3   OH274878   1.123   2.189   4.852 -0.7502 -0.5436  0.0749
17796TIP3    H174879   1.077   2.251   4.909  0.5506  1.1064 -0.6163
17796TIP3    H274880   1.105   2.220   4.763  0.4742 -0.7524 -0.2544
17797TIP3   OH274881   0.463   1.758   4.158 -0.3078  0.3489  0.2002
17797TIP3    H174882   0.431   1.844   4.186  1.2687  1.3797 -1.0237
17797TIP3    H274883   0.489   1.714   4.239 -0.9769  1.0968  0.8232
17798TIP3   OH274884   0.167   2.819   4.077 -0.0589 -0.3257 -0.4147
17798TIP3    H174885   0.092   2.878   4.066 -0.6209 -1.1104 -0.8405
17798TIP3    H274886   0.243   2.872   4.054 -0.4824  0.4622 -0.0334
17799TIP3   OH274887   3.840   5.919   4.803  0.7471  0.1180  0.1671
17799TIP3    H174888   3.916   5.874   4.841  1.9970 -0.0988 -2.5144
17799TIP3    H274889   3.878   5.982   4.741 -1.3078 -0.9178 -2.1958
17800TIP3   OH274890   4.306   4.958  16.821  0.0340  0.7362 -0.1614
17800TIP3    H174891   4.357   4.880  16.841 -0.7500  0.6817  1.7024
17800TIP3    H274892   4.360   5.031  16.851  0.3853  0.8720 -1.1003
17801TIP3   OH274893   2.482   4.377   3.014  0.3148  0.1716  0.6386
17801TIP3    H174894   2.554   4.381   2.952  1.1279 -0.6668  1.5086
17801TIP3    H274895   2.523   4.387   3.100 -0.2832 -2.7918  1.3190
17802TIP3   OH274896   3.869   4.971   4.747 -0.7133 -0.4804  0.0843
17802TIP3    H174897   3.932   5.020   4.694 -1.4557 -0.5058 -0.8457
17802TIP3    H274898   3.898   4.880   4.740  1.5576 -0.0541  3.0562
17803TIP3   OH274899   1.248   1.671  13.951  0.2446  0.4238 -0.3508
17803TIP3    H174900   1.178   1.649  13.889 -0.1035  1.5676 -0.3681
17803TIP3    H274901   1.310   1.721  13.898 -0.0639  1.4235  0.2376
17804TIP3   OH274902   1.961   4.447  15.151 -0.2886 -0.3213 -0.6642
17804TIP3    H174903   1.923   4.466  15.237 -0.0861  0.5573 -0.7649
17804TIP3    H274904   2.033   4.387  15.170 -0.8891 -0.9439 -0.3300
17805TIP3   OH274905   1.442   6.440   4.608  0.1567 -0.1365  0.2526
17805TIP3    H174906   1.400   6.389   4.678 -0.6157  1.1955  0.7991
17805TIP3    H274907   1.441   6.382   4.532 -1.1650 -0.7490  0.7159
17806TIP3   OH274908   2.293   0.156  16.984  0.1215  0.5414  0.2567
17806TIP3    H174909   2.293   0.204  17.067 -1.4462  0.7172  0.1805
17806TIP3    H274910   2.200   0.153  16.959  0.4367 -0.7185 -0.7931
17807TIP3   OH274911   1.077   4.257  13.848 -0.1772  0.6709  0.0714
17807TIP3    H174912   1.031   4.178  13.819  1.8842  0.0691 -1.7442
17807TIP3    H274913   1.007   4.321  13.864 -1.7996 -1.1094  0.2832
17808TIP3   OH274914   0.909   2.319   3.196  0.0232  0.1284  0.1192
17808TIP3    H174915   0.877   2.230   3.214 -1.1118  0.3860 -0.6189
17808TIP3    H274916   0.835   2.376   3.216  0.4767  0.8454 -0.2280
17809TIP3   OH274917   4.905   4.258  13.843  0.4479  0.1414  0.0540
17809TIP3    H174918   4.959   4.219  13.911 -1.1991  0.2605  1.4710
17809TIP3    H274919   4.967   4.303  13.785  1.9108 -0.4684  1.1244
17810TIP3   OH274920   3.247   4.182   2.126 -0.0082 -0.0152  0.0924
17810TIP3    H174921   3.160   4.170   2.165 -0.8913  0.6311 -1.6476
17810TIP3    H274922   3.266   4.097   2.085  0.1404 -0.1099  0.3513
17811TIP3   OH274923   5.829   4.587  11.663  0.2440 -0.2423 -0.1992
17811TIP3    H174924   5.875   4.505  11.678 -2.2131 -1.5702  0.3400
17811TIP3    H274925   5.796   4.612  11.750 -0.4529  0.4518 -0.6618
17812TIP3   OH274926   5.164   6.466   2.798 -0.5331  0.3536  0.1451
17812TIP3    H174927   5.246   6.479   2.846  1.0454  0.9951 -2.6357
17812TIP3    H274928   5.096   6.493   2.860  1.5312  2.7654  1.4698
17813TIP3   OH274929   2.492   0.464   5.534 -0.4309 -0.2522 -0.0358
17813TIP3    H174930   2.454   0.473   5.622 -1.2767 -0.5300 -0.3742
17813TIP3    H274931   2.434   0.405   5.488 -0.0238 -0.0552 -0.8147
17814TIP3   OH274932   6.389   6.126  13.172 -0.1959  0.6212  0.3936
17814TIP3    H174933   6.358   6.078  13.095 -0.8173  0.1158  0.9523
17814TIP3    H274934   6.384   6.063  13.243  0.1889  1.1469  0.8879
17815TIP3   OH274935   0.544   2.546  14.567 -0.1258 -0.1510 -0.2479
17815TIP3    H174936   0.576   2.593  14.644  1.9183 -0.3222 -0.9705
17815TIP3    H274937   0.456   2.582  14.553 -0.4249  0.0905  1.9744
17816TIP3   OH274938   3.204   1.152  17.204 -0.0430 -0.2183 -0.2677
17816TIP3    H174939   3.109   1.148  17.204 -0.0166 -1.1637  0.1916
17816TIP3    H274940   3.231   1.072  17.159  0.5585 -1.8258  2.8040
17817TIP3   OH274941   3.372   6.175  13.444  0.1996 -0.3037  0.1839
17817TIP3    H174942   3.422   6.195  13.365  2.1698 -0.8302  1.2503
17817TIP3    H274943   3.429   6.204  13.515 -1.4532 -0.0443  1.4149
17818TIP3   OH274944   2.881   3.152  11.805 -0.9669  0.6081 -0.0024
17818TIP3    H174945   2.917   3.230  11.848  0.9099 -0.8725  1.1829
17818TIP3    H274946   2.786   3.160  11.819 -0.8262  2.6982  0.0297
17819TIP3   OH274947   4.761   0.377   1.195  0.4811 -0.0658  0.3214
17819TIP3    H174948   4.760   0.376   1.099 -0.4761 -1.6754  0.3468
17819TIP3    H274949   4.710   0.301   1.221  2.3630 -0.7557  2.1172
17820TIP3   OH274950   0.416   1.863  16.272  0.3756  0.2474  0.3771
17820TIP3    H174951   0.345   1.830  16.216  0.1315  0.1450  0.7455
17820TIP3    H274952   0.470   1.915  16.213 -0.6941  1.3499  0.3461
17821TIP3   OH274953   5.056   3.737  12.429 -0.3832 -0.1690  0.3727
17821TIP3    H174954   4.999   3.703  12.498 -0.0038  0.9741  1.2582
17821TIP3    H274955   5.130   3.777  12.476 -0.7813  1.8156 -0.6182
17822TIP3   OH274956   0.301   2.509  11.795  0.1392  0.1927  0.3173
17822TIP3    H174957   0.273   2.455  11.868 -1.0800  1.0409  0.4878
17822TIP3    H274958   0.275   2.461  11.717  0.6400 -0.2902  0.4460
17823TIP3   OH274959   0.487   6.523  17.214  0.1101  0.1204 -0.1203
17823TIP3    H174960   0.404   6.564  17.189 -0.0563 -0.3226 -0.3178
17823TIP3    H274961   0.463   6.460  17.282  0.1879 -0.4604 -0.6262
17824TIP3   OH274962   6.133   4.065  16.911 -0.8288  0.0192 -0.0679
17824TIP3    H174963   6.143   3.983  16.959  0.0331  0.7214  0.9786
17824TIP3    H274964   6.200   4.060  16.843  0.0749  0.3976  0.7837
17825TIP3   OH274965   1.824   1.710  11.609 -0.0167  1.1199  0.3656
17825TIP3    H174966   1.900   1.705  11.667 -0.2149 -0.0690  0.5247
17825TIP3    H274967   1.768   1.638  11.636 -0.5865  1.1796 -0.6369
17826TIP3   OH274968   2.081   6.050  16.145  0.5327 -0.0227  0.3416
17826TIP3    H174969   2.013   6.071  16.080 -0.2153 -1.1431  0.7429
17826TIP3    H274970   2.128   5.976  16.106  0.0757 -0.7066  1.0650
17827TIP3   OH274971   5.027   0.949  13.636 -0.0070 -0.3049 -0.6229
17827TIP3    H174972   4.991   0.863  13.660  1.6051 -0.9838 -0.5471
17827TIP3    H274973   5.105   0.958  13.691 -0.0138  1.0871 -0.8427
17828TIP3   OH274974   6.493   6.643   0.209  0.0229  0.2872  0.2520
17828TIP3    H174975   6.564   6.700   0.183 -0.0516  0.0168 -0.5404
17828TIP3    H274976   6.418   6.701   0.222 -0.9439  0.0561 -3.7158
17829TIP3   OH274977   5.499   2.289   1.315 -0.3748  0.4051  0.2177
17829TIP3    H174978   5.553   2.283   1.394 -0.1143  3.9881  0.3954
17829TIP3    H274979   5.410   2.278   1.347 -0.1045 -0.6331  0.6393
17830TIP3   OH274980   3.831   2.667  14.709 -0.0221  0.0755 -0.4660
17830TIP3    H174981   3.740   2.658  14.679  0.2716 -0.9760 -1.0770
17830TIP3    H274982   3.836   2.755  14.745 -1.5145 -0.1513  0.3382
17831TIP3   OH274983   1.743   1.632   1.749  0.1024  0.0256  0.9616
17831TIP3    H174984   1.703   1.677   1.823 -1.2169  1.0600 -0.3611
17831TIP3    H274985   1.673   1.576   1.715  0.4163  0.2760 -0.0891
17832TIP3   OH274986   3.963   0.229  15.025  0.1826 -0.3157 -0.1086
17832TIP3    H174987   3.873   0.223  14.992 -0.8847 -0.7051  2.7437
17832TIP3    H274988   3.985   0.322  15.015 -0.2887 -0.3296 -1.3960
17833TIP3   OH274989   3.222   0.402  14.646  0.6037  0.5528 -0.0221
17833TIP3    H174990   3.158   0.366  14.585  0.6899  0.1493  0.1247
17833TIP3    H274991   3.175   0.409  14.729  1.0634 -0.7968  0.3704
17834TIP3   OH274992   4.670   0.527   2.483  0.0849  0.4964  0.0953
17834TIP3    H174993   4.742   0.551   2.542  1.2239 -3.7683  0.6021
17834TIP3    H274994   4.593   0.522   2.540  0.1671  1.2015  0.2763
17835TIP3   OH274995   6.136   6.440   0.433 -0.1394  0.2934 -0.6173
17835TIP3    H174996   6.068   6.431   0.500 -0.2391  0.6947 -0.6628
17835TIP3    H274997   6.136   6.356   0.388 -0.7635  0.3655 -0.7641
17836TIP3   OH274998   2.975   0.695  12.835 -0.0986 -0.0596 -0.2851
17836TIP3    H174999   2.988   0.639  12.758 -1.7982 -0.5915 -0.1978
17836TIP3    H275000   2.941   0.636  12.902 -1.1389  0.9323  0.0655
17837TIP3   OH275001   6.584   4.362  11.832 -0.6416 -0.0276  0.2556
17837TIP3    H175002   6.645   4.300  11.872  0.9220  1.7618  0.7473
17837TIP3    H275003   6.635   4.403  11.761 -2.0728 -0.2462 -0.9207
17838TIP3   OH275004   0.443   5.556  13.642 -0.4306  0.0286 -0.3500
17838TIP3    H175005   0.434   5.461  13.631 -1.9783 -0.4246  3.7306
17838TIP3    H275006   0.493   5.565  13.723 -1.0645  2.6988 -0.2249
17839TIP3   OH275007   2.446   2.022  11.054  0.4723 -0.0929 -0.5521
17839TIP3    H175008   2.479   1.935  11.032  0.1912 -0.2404 -0.3920
17839TIP3    H275009   2.462   2.075  10.976 -0.0214 -0.4709 -0.9121
17840TIP3   OH275010   0.946   4.001   0.661  0.0362  0.2264  0.5731
17840TIP3    H175011   0.955   4.028   0.570  0.5094  1.6106  1.0295
17840TIP3    H275012   1.020   3.942   0.676 -2.1238 -3.0860 -1.0120
17841TIP3   OH275013   3.776   3.330   3.369 -0.0067 -0.6757  0.4988
17841TIP3    H175014   3.793   3.256   3.310 -1.0811 -0.3660 -0.2049
17841TIP3    H275015   3.805   3.406   3.320 -0.4601 -0.4612  0.5670
17842TIP3   OH275016   2.685   4.097   3.614 -0.2332  0.2617  0.0263
17842TIP3    H175017   2.772   4.121   3.582  0.7260 -1.6501  1.1302
17842TIP3    H275018   2.629   4.104   3.537  0.7257  2.2607 -0.5261
17843TIP3   OH275019   3.504   5.147  14.814  0.2434  0.4771  0.1563
17843TIP3    H175020   3.598   5.159  14.804  0.1614  0.3971 -0.7210
17843TIP3    H275021   3.489   5.153  14.909  1.5070 -2.2989  0.5744
17844TIP3   OH275022   6.008   2.282  13.853  0.3299  0.4357  0.1532
17844TIP3    H175023   6.076   2.235  13.805  2.1668  1.0871  2.0445
17844TIP3    H275024   5.994   2.362  13.802 -0.9091 -0.8628 -1.6270
17845TIP3   OH275025   4.442   1.229   3.686  0.2083  0.4611 -0.5453
17845TIP3    H175026   4.444   1.258   3.595  0.4573 -0.6192 -0.8892
17845TIP3    H275027   4.532   1.242   3.716  0.4983 -0.6688 -0.9258
17846TIP3   OH275028   2.488   1.802   2.334 -0.2221 -0.2514 -0.4725
17846TIP3    H175029   2.582   1.789   2.347 -0.3002  1.1001  1.7114
17846TIP3    H275030   2.448   1.723   2.370  0.0792 -0.8918 -1.5342
17847TIP3   OH275031   4.775   1.772   4.604 -0.4932 -0.0001  0.9264
17847TIP3    H175032   4.798   1.817   4.685 -3.3065  0.3894  1.5552
17847TIP3    H275033   4.745   1.842   4.546 -0.4237 -0.5273  0.2422
17848TIP3   OH275034   0.874   2.743   0.519  0.2068 -0.3873 -0.1792
17848TIP3    H175035   0.915   2.781   0.441  0.6420 -0.2077  0.1327
17848TIP3    H275036   0.869   2.816   0.581  0.4930 -0.6947  0.2065
17849TIP3   OH275037   6.594   4.734  14.389 -0.6219  0.1128  0.4433
17849TIP3    H175038   6.666   4.672  14.393 -0.4783  0.3181  1.0704
17849TIP3    H275039   6.552   4.717  14.304  0.9969  0.9288 -0.5445
17850TIP3   OH275040   1.309   2.688  15.669  0.1497 -0.1963  0.0420
17850TIP3    H175041   1.394   2.679  15.624  0.9120 -0.7103  1.5693
17850TIP3    H275042   1.267   2.603  15.658  0.4825 -0.4318  0.6073
17851TIP3   OH275043   3.479   5.642  11.068 -0.0982 -0.0061  0.3168
17851TIP3    H175044   3.530   5.584  11.012 -1.0180  1.0203 -1.6701
17851TIP3    H275045   3.489   5.729  11.028  1.0824  1.2105  3.0960
17852TIP3   OH275046   2.019   5.670   5.571  0.0400  0.5557  0.4277
17852TIP3    H175047   2.014   5.608   5.644  2.0583  1.6495  1.5677
17852TIP3    H275048   2.074   5.741   5.604  0.4471  1.4047 -1.9376
17853TIP3   OH275049   6.526   4.879   3.055  0.2396 -0.1940 -0.1767
17853TIP3    H175050   6.562   4.966   3.070 -0.2178  0.1856 -1.2184
17853TIP3    H275051   6.432   4.889   3.070  0.4041 -0.9036  1.3797
17854TIP3   OH275052   1.242   0.925  13.942  0.1258  0.0920 -0.4975
17854TIP3    H175053   1.209   0.936  14.031  3.0026 -1.7137  0.8485
17854TIP3    H275054   1.166   0.944  13.886 -1.9164  0.5538  2.3094
17855TIP3   OH275055   2.717   3.546  12.573 -0.1825  0.5946  0.2052
17855TIP3    H175056   2.702   3.636  12.602  0.7235  0.3615  1.4293
17855TIP3    H275057   2.674   3.492  12.641  0.3150  0.0816  0.1156
17856TIP3   OH275058   3.117   4.249  10.942  0.2795 -0.2113 -0.4772
17856TIP3    H175059   3.033   4.206  10.957  1.0304 -1.4283  0.2788
17856TIP3    H275060   3.175   4.179  10.912  0.3445  1.1089 -3.5690
17857TIP3   OH275061   5.118   3.262   3.066  0.2661 -0.0260  0.5591
17857TIP3    H175062   5.172   3.311   3.004 -1.0971  1.9380  0.8702
17857TIP3    H275063   5.034   3.309   3.067 -0.8738 -2.0375  1.3277
17858TIP3   OH275064   2.068   1.341  14.789 -0.2539  0.2281 -0.0899
17858TIP3    H175065   2.097   1.256  14.756 -0.7108  0.6986 -1.7328
17858TIP3    H275066   1.974   1.330  14.806 -0.1059  0.1108  0.6808
17859TIP3   OH275067   5.033   1.672   0.914  0.2336  0.0250  0.2605
17859TIP3    H175068   5.060   1.729   0.842 -0.8480  1.7194  1.1612
17859TIP3    H275069   5.054   1.722   0.993 -0.6468 -0.8661  1.0777
17860TIP3   OH275070   2.772   0.752   3.191 -0.5771  0.3382 -0.3655
17860TIP3    H175071   2.765   0.803   3.271 -0.5692  1.8237 -1.2797
17860TIP3    H275072   2.855   0.705   3.199 -0.9709 -0.1524  0.8396
17861TIP3   OH275073   5.206   5.054  11.707 -0.6196  0.4630 -0.5765
17861TIP3    H175074   5.196   5.146  11.733  0.9259  1.1034 -2.1770
17861TIP3    H275075   5.263   5.016  11.775  0.3683  1.2010 -0.9777
17862TIP3   OH275076   3.206   4.342   2.520  0.2328  0.4865  0.0588
17862TIP3    H175077   3.130   4.355   2.464  0.2721  1.1425  0.1560
17862TIP3    H275078   3.265   4.286   2.469 -0.0919  0.3993 -0.2185
17863TIP3   OH275079   4.471   3.870  15.012  0.1888  0.4589  0.3317
17863TIP3    H175080   4.446   3.791  14.963  2.1021  0.3081 -0.4735
17863TIP3    H275081   4.530   3.838  15.080  0.8894  1.1889  0.0707
17864TIP3   OH275082   6.368   4.976  14.984  0.7586 -0.0894  0.2020
17864TIP3    H175083   6.379   4.946  14.893 -0.0679  0.5792 -0.1295
17864TIP3    H275084   6.282   5.020  14.984  0.7401 -0.1217  1.3160
17865TIP3   OH275085   5.497   2.920  14.105  0.3692 -0.2501 -0.0903
17865TIP3    H175086   5.537   2.945  14.188  0.2232 -1.6262  0.4237
17865TIP3    H275087   5.537   2.835  14.084  0.1951 -0.0412 -1.2799
17866TIP3   OH275088   4.338   2.893  12.846 -0.0636 -0.1169  0.3176
17866TIP3    H175089   4.348   2.961  12.779 -4.4402  0.3455 -0.0310
17866TIP3    H275090   4.400   2.825  12.821  0.6238  1.4402 -2.4055
17867TIP3   OH275091   2.608   4.842  15.859 -0.6587 -0.5270 -0.0593
17867TIP3    H175092   2.640   4.925  15.893  1.2836 -1.4184  0.3871
17867TIP3    H275093   2.569   4.799  15.935 -0.3456 -0.6220  0.0511
17868TIP3   OH275094   2.030   2.060  11.256  0.4471 -0.4063 -0.3200
17868TIP3    H175095   2.099   2.007  11.296 -0.7100 -1.2386  0.6152
17868TIP3    H275096   1.951   2.036  11.304 -0.6192  0.0222 -1.8403
17869TIP3   OH275097   4.793   2.800  12.692  0.3375  0.0917  0.0220
17869TIP3    H175098   4.871   2.744  12.698  0.4328  0.1642 -0.5269
17869TIP3    H275099   4.799   2.858  12.769 -0.9049 -2.0923  1.8324
17870TIP3   OH275100   6.750   4.647  16.762 -0.5475 -0.1911 -0.1370
17870TIP3    H175101   6.804   4.674  16.688 -0.3988 -0.9654 -0.3126
17870TIP3    H275102   6.812   4.636  16.834 -0.7775  1.2250  0.2927
17871TIP3   OH275103   3.877   6.276   1.174  0.2898  0.0032 -0.2118
17871TIP3    H175104   3.931   6.203   1.203 -1.1101 -2.3991 -3.3291
17871TIP3    H275105   3.932   6.326   1.114  0.1109 -0.6093 -0.8956
17872TIP3   OH275106   6.025   3.761   0.397  0.4095 -0.0206 -0.0556
17872TIP3    H175107   5.931   3.746   0.402  0.0229  1.8280 -1.4135
17872TIP3    H275108   6.041   3.839   0.449  0.9891  0.4944 -0.9893
17873TIP3   OH275109   3.871   4.860   1.646  0.3185 -0.0079  0.0821
17873TIP3    H175110   3.807   4.800   1.606 -1.0808  2.0152 -0.7791
17873TIP3    H275111   3.943   4.863   1.583 -0.1832  0.2061 -0.4866
17874TIP3   OH275112   5.267   1.815   0.300 -0.2077 -0.1417  0.1194
17874TIP3    H175113   5.306   1.761   0.232  0.5614  2.1489 -1.3066
17874TIP3    H275114   5.276   1.763   0.380  0.6738 -2.0233 -1.1684
17875TIP3   OH275115   6.401   4.599   4.764 -0.2090 -0.1086  0.2774
17875TIP3    H175116   6.402   4.531   4.697  2.1315 -2.2673  2.3374
17875TIP3    H275117   6.348   4.562   4.835 -0.0822  0.8105  0.8616
17876TIP3   OH275118   2.471   0.552  11.640  0.1486 -0.1755 -0.3730
17876TIP3    H175119   2.481   0.591  11.554  0.5014 -0.5371 -0.4953
17876TIP3    H275120   2.472   0.458  11.624  0.9286 -0.2474  0.1104
17877TIP3   OH275121   6.543   2.254  16.151  0.1849 -0.0050  1.0957
17877TIP3    H175122   6.609   2.323  16.157  0.6293 -0.5233  2.4716
17877TIP3    H275123   6.544   2.213  16.237 -1.9663 -0.0157  1.1370
17878TIP3   OH275124   0.906   2.734   5.161  1.0939 -0.2910  0.2132
17878TIP3    H175125   0.970   2.671   5.193  0.6400  0.2451  2.2741
17878TIP3    H275126   0.940   2.819   5.188  0.6386  0.1810 -0.6739
17879TIP3   OH275127   6.710   2.057  15.723  0.1895  0.4789 -1.0287
17879TIP3    H175128   6.754   2.039  15.807 -0.3634 -0.1132 -0.8619
17879TIP3    H275129   6.622   2.020  15.734  0.1405  0.3384 -1.8974
17880TIP3   OH275130   3.558   6.776  16.902  0.0284 -0.2037 -0.3743
17880TIP3    H175131   3.552   6.813  16.991  0.5379  0.8128 -0.7611
17880TIP3    H275132   3.635   6.817  16.864 -0.7435  0.0982 -1.6304
17881TIP3   OH275133   2.890   5.343   5.844 -0.4790  0.3552 -0.8412
17881TIP3    H175134   2.815   5.326   5.787 -1.4919  1.4952  0.1189
17881TIP3    H275135   2.851   5.362   5.929  1.0128 -1.3936  0.2683
17882TIP3   OH275136   5.506   1.841  15.484  0.0034 -0.0848 -0.1132
17882TIP3    H175137   5.593   1.804  15.500  0.7655  2.0824  1.0128
17882TIP3    H275138   5.517   1.895  15.406 -0.4599 -0.2186 -0.2712
17883TIP3   OH275139   0.677   6.738   2.047  0.4097  0.8207  0.0006
17883TIP3    H175140   0.649   6.816   2.094  0.3307  1.6659 -1.4167
17883TIP3    H275141   0.614   6.729   1.976  0.7760 -0.1785 -0.2039
17884TIP3   OH275142   0.749   0.659  12.640 -0.3823  0.2057  0.2347
17884TIP3    H175143   0.666   0.661  12.687  0.3627 -0.6001  1.6301
17884TIP3    H275144   0.767   0.750  12.618 -0.3385  0.7211  2.2843
17885TIP3   OH275145   5.517   6.791   4.792 -0.0591 -0.2801  0.1748
17885TIP3    H175146   5.493   6.864   4.849  2.2071  0.5440  0.1142
17885TIP3    H275147   5.442   6.732   4.796 -1.4933  1.5544  1.0370
17886TIP3   OH275148   6.574   5.408  11.350  0.4907 -0.3853  0.1512
17886TIP3    H175149   6.607   5.379  11.435 -0.3535 -0.8434  0.3250
17886TIP3    H275150   6.653   5.421  11.297  1.1400  1.8440  1.6076
17887TIP3   OH275151   1.198   6.123  11.884 -0.2020  0.1916 -0.1150
17887TIP3    H175152   1.276   6.069  11.886 -1.5990 -1.9323 -1.3177
17887TIP3    H275153   1.147   6.089  11.811 -1.2838  2.9187 -0.6859
17888TIP3   OH275154   6.228   5.194  13.136 -0.4012  0.2370 -0.0773
17888TIP3    H175155   6.297   5.138  13.169 -0.6460  0.2325  0.4351
17888TIP3    H275156   6.197   5.151  13.057 -0.6679 -0.4098  0.3759
17889TIP3   OH275157   4.563   4.650  14.361 -0.0336  0.5639  0.8558
17889TIP3    H175158   4.591   4.740  14.381 -0.2721  1.0821 -1.0332
17889TIP3    H275159   4.468   4.656  14.351 -0.6152 -0.7508  4.9402
17890TIP3   OH275160   3.039   1.356  13.212  0.1945  0.2538 -0.0241
17890TIP3    H175161   3.074   1.378  13.125 -0.9287  1.0907 -0.2725
17890TIP3    H275162   2.947   1.339  13.197 -0.0096  0.4433  1.0119
17891TIP3   OH275163   0.143   0.675   4.688  0.1278 -1.3401 -0.7335
17891TIP3    H175164   0.228   0.715   4.670 -1.0591  2.3375  1.3623
17891TIP3    H275165   0.095   0.685   4.606 -0.1795  1.8187 -0.2515
17892TIP3   OH275166   1.302   1.853   0.480 -0.9882  0.1641  0.2147
17892TIP3    H175167   1.335   1.933   0.441 -0.9732 -0.2803 -0.6978
17892TIP3    H275168   1.284   1.795   0.406 -0.3429 -0.9331  0.8910
17893TIP3   OH275169   1.428   3.273   5.555 -0.0788 -0.6908 -0.3859
17893TIP3    H175170   1.379   3.318   5.486 -1.5644  1.4158  1.9696
17893TIP3    H275171   1.393   3.184   5.555 -1.8633 -0.0160 -0.7060
17894TIP3   OH275172   2.424   4.636   3.372 -0.4678  0.4607  0.1241
17894TIP3    H175173   2.421   4.678   3.458 -2.1057  2.3016 -0.7800
17894TIP3    H275174   2.351   4.574   3.373  0.1020 -0.2170  0.3801
17895TIP3   OH275175   4.271   4.983  14.572 -0.9583  0.4151 -0.2156
17895TIP3    H175176   4.243   5.009  14.660 -0.6704  2.3038 -0.6544
17895TIP3    H275177   4.248   5.057  14.517  0.8555  0.1715 -1.3532
17896TIP3   OH275178   0.204   4.091  13.155  0.2667 -0.2507 -0.4839
17896TIP3    H175179   0.114   4.060  13.165  0.5897 -1.8751 -2.3937
17896TIP3    H275180   0.239   4.093  13.244 -1.1074 -1.3012  0.0906
17897TIP3   OH275181   3.282   0.436   1.605  0.1090  0.3651 -0.5318
17897TIP3    H175182   3.281   0.340   1.598 -0.8263  0.3657 -0.4854
17897TIP3    H275183   3.349   0.464   1.543 -0.1112 -0.2818 -1.0707
17898TIP3   OH275184   6.778   4.711  12.810 -0.1881  0.8849  0.0250
17898TIP3    H175185   6.710   4.661  12.765 -0.0638  0.4053  0.3663
17898TIP3    H275186   6.805   4.655  12.883 -0.4179  1.6672  0.7226
17899TIP3   OH275187   6.613   2.252   3.516 -0.1099  0.2566  0.2353
17899TIP3    H175188   6.559   2.191   3.566  0.5246  0.0407  0.6692
17899TIP3    H275189   6.702   2.218   3.525 -0.1567 -0.7533 -2.4141
17900TIP3   OH275190   3.585   5.856   2.453  0.3524 -0.0167  0.4126
17900TIP3    H175191   3.669   5.865   2.497  0.1995  0.2515  0.6525
17900TIP3    H275192   3.584   5.766   2.421  2.4245  1.0977 -3.0463
17901TIP3   OH275193   3.009   6.306  13.841 -0.6218  0.3555  0.0177
17901TIP3    H175194   3.078   6.359  13.802  1.6266 -0.3233  2.8917
17901TIP3    H275195   2.978   6.249  13.770  0.6356  1.7687 -1.7016
17902TIP3   OH275196   5.835   0.304  14.649  0.3985  0.5886  0.2633
17902TIP3    H175197   5.787   0.387  14.651 -0.3742  0.1684 -0.3547
17902TIP3    H275198   5.927   0.330  14.643  0.2007  1.4036  0.6008
17903TIP3   OH275199   5.858   3.194   0.079 -0.2042 -0.0565 -0.1132
17903TIP3    H175200   5.926   3.180   0.013 -0.3358  0.1014 -0.2825
17903TIP3    H275201   5.776   3.181   0.032 -0.2834 -0.4660  0.1460
17904TIP3   OH275202   4.386   6.611   0.483  0.3860 -0.2268  0.9487
17904TIP3    H175203   4.312   6.558   0.454  0.6434  0.5079 -1.1570
17904TIP3    H275204   4.363   6.700   0.455  0.5180  0.5774  3.3344
17905TIP3   OH275205   4.720   5.353   2.293  0.2956 -0.2223 -0.0266
17905TIP3    H175206   4.638   5.346   2.244 -1.4871 -1.5898  2.9938
17905TIP3    H275207   4.784   5.305   2.240 -1.0509  0.1208 -2.0044
17906TIP3   OH275208   2.972   1.632   1.668  0.1034  0.2904  0.2384
17906TIP3    H175209   3.057   1.589   1.658 -0.8723 -1.2978 -1.3916
17906TIP3    H275210   2.992   1.712   1.717  2.3099 -0.7806  1.1742
17907TIP3   OH275211   2.989   6.409   2.238 -0.0134 -0.0828  0.0724
17907TIP3    H175212   2.963   6.361   2.317 -0.8956  1.3842  0.6951
17907TIP3    H275213   2.934   6.372   2.169  1.0624 -1.6707  0.0293
17908TIP3   OH275214   0.343   6.752  16.342  0.0997  0.3665 -0.0356
17908TIP3    H175215   0.330   6.833  16.390  0.3452  0.1916  0.3313
17908TIP3    H275216   0.418   6.710  16.384  1.1983  0.8623 -1.4483
17909TIP3   OH275217   4.985   0.277   0.166 -0.6261 -0.3339 -0.2681
17909TIP3    H175218   4.943   0.197   0.134  0.8572 -1.0266 -0.5208
17909TIP3    H275219   5.006   0.259   0.257  1.0633 -0.7977 -0.7413
17910TIP3   OH275220   4.613   6.594   6.037  0.5213 -0.6591  0.4477
17910TIP3    H175221   4.672   6.576   6.110  2.9286  0.9350 -1.0398
17910TIP3    H275222   4.531   6.621   6.079  2.0571  0.8953  2.5852
17911TIP3   OH275223   0.244   0.519  17.244 -0.0753  0.2034 -0.0674
17911TIP3    H175224   0.325   0.475  17.270 -0.7701 -1.0974 -0.0848
17911TIP3    H275225   0.214   0.563  17.324  1.2076  1.6267 -0.3258
17912TIP3   OH275226   5.090   3.005  11.948  0.2533  0.1957 -0.0639
17912TIP3    H175227   4.996   3.022  11.939  0.3325  1.0814  0.6941
17912TIP3    H275228   5.121   3.073  12.008  1.0373 -1.1559  1.0953
17913TIP3   OH275229   6.186   0.425   1.994 -0.0738  0.8561  0.2319
17913TIP3    H175230   6.250   0.448   2.062 -0.7100 -0.2392  1.2228
17913TIP3    H275231   6.101   0.441   2.036 -0.4807 -0.5750 -0.0393
17914TIP3   OH275232   6.023   1.083   2.888  0.1082  0.2130 -0.2202
17914TIP3    H175233   6.051   1.137   2.962 -1.8982  0.8719  0.0815
17914TIP3    H275234   5.932   1.108   2.873  0.1587 -0.7086 -2.2175
17915TIP3   OH275235   4.571   4.228  10.705 -0.1319 -0.1789 -0.0343
17915TIP3    H175236   4.557   4.314  10.666  3.9197 -0.1909 -1.7575
17915TIP3    H275237   4.637   4.243  10.774 -1.9777 -1.3565  2.0530
17916TIP3   OH275238   3.081   1.334  11.056  0.0502  0.1954 -0.0970
17916TIP3    H175239   2.993   1.298  11.065  0.8308 -1.4267  1.2259
17916TIP3    H275240   3.092   1.348  10.962 -1.3031 -0.3510 -0.3443
17917TIP3   OH275241   0.970   2.707   2.524 -0.1600 -0.1722  0.4157
17917TIP3    H175242   0.942   2.799   2.529  1.0691  0.2106  0.3867
17917TIP3    H275243   1.062   2.709   2.548 -0.3266 -1.5138  1.2191
17918TIP3   OH275244   0.496   5.830   0.944 -0.1524 -0.2770 -0.1094
17918TIP3    H175245   0.407   5.801   0.964  0.0222 -0.9054 -0.2549
17918TIP3    H275246   0.488   5.925   0.936 -1.0561 -0.4429 -1.3486
17919TIP3   OH275247   2.374   5.507  13.729  0.0083 -0.0787 -0.0489
17919TIP3    H175248   2.289   5.464  13.743  0.5078 -1.0168  0.1384
17919TIP3    H275249   2.431   5.437  13.696  0.4739  0.7437 -1.0318
17920TIP3   OH275250   3.173   3.534  17.227 -0.1543 -0.0068 -0.0868
17920TIP3    H175251   3.184   3.555  17.134 -0.6419  0.2056 -0.0964
17920TIP3    H275252   3.246   3.475  17.247  0.9875  1.3466 -0.1755
17921TIP3   OH275253   1.300   2.056   5.007 -0.9414  0.1826  0.6215
17921TIP3    H175254   1.234   2.089   4.946 -0.2460 -1.4477 -1.0483
17921TIP3    H275255   1.306   2.123   5.075 -1.4239  2.2339 -1.3174
17922TIP3   OH275256   5.721   5.512   4.323 -0.0675  0.0918 -0.0782
17922TIP3    H175257   5.811   5.546   4.323  0.4781 -1.2841  0.0440
17922TIP3    H275258   5.671   5.577   4.274  1.2759  0.2085 -1.3754
17923TIP3   OH275259   0.608   2.893  13.959 -0.0968  0.1913  0.0244
17923TIP3    H175260   0.650   2.921  14.040  0.5309 -1.6787  0.3765
17923TIP3    H275261   0.681   2.873  13.900 -0.5146 -0.9785 -0.1042
17924TIP3   OH275262   3.888   3.577   5.198  0.3746  0.2033  0.2924
17924TIP3    H175263   3.949   3.540   5.135  0.8390  1.9550 -0.3329
17924TIP3    H275264   3.940   3.641   5.247 -1.0837  2.2679 -0.7533
17925TIP3   OH275265   3.232   0.743  12.694 -0.1344 -0.1802 -0.3105
17925TIP3    H175266   3.267   0.701  12.772  0.4480  3.1372  1.3133
17925TIP3    H275267   3.279   0.703  12.622  1.3688 -1.3132  1.2599
17926TIP3   OH275268   4.137   4.825  12.243 -0.3973 -0.4519 -0.2271
17926TIP3    H175269   4.220   4.795  12.279 -0.3323 -1.2187 -1.0056
17926TIP3    H275270   4.134   4.788  12.155 -1.1226  0.3746 -0.5619
17927TIP3   OH275271   5.965   3.314  12.006  0.1565 -0.2810 -0.0795
17927TIP3    H175272   6.033   3.370  12.044 -1.2235  1.2763  0.1350
17927TIP3    H275273   5.969   3.331  11.912  2.5400 -2.9960 -0.5514
17928TIP3   OH275274   2.335   1.280   6.041 -0.4745 -0.1697 -0.4508
17928TIP3    H175275   2.422   1.242   6.029 -0.7225 -1.1490  0.7539
17928TIP3    H275276   2.329   1.296   6.135 -2.1016 -1.3813 -0.3254
17929TIP3   OH275277   5.967   0.617  13.481  0.4708  0.8168  0.4054
17929TIP3    H175278   6.047   0.610  13.533  0.4266 -0.6308  0.3103
17929TIP3    H275279   5.946   0.527  13.457 -2.0391  0.9952  1.7189
17930TIP3   OH275280   0.747   3.760   5.162  0.2089 -0.2521  0.1201
17930TIP3    H175281   0.685   3.714   5.105  0.4032 -1.8658  1.1556
17930TIP3    H275282   0.693   3.790   5.236 -0.1083  2.1331 -1.0384
17931TIP3   OH275283   4.802   2.168  15.066  0.1053  0.2632  0.1595
17931TIP3    H175284   4.758   2.099  15.117  1.6737  0.4872  1.8777
17931TIP3    H275285   4.831   2.231  15.132  0.4228  1.5818 -1.2248
17932TIP3   OH275286   6.368   4.405  12.660  0.2272 -0.4981  0.7124
17932TIP3    H175287   6.277   4.378  12.660  0.7007 -2.1620  1.3361
17932TIP3    H275288   6.403   4.372  12.744  1.0265  1.3951  1.1427
17933TIP3   OH275289   5.834   0.958   0.968 -0.1623 -0.6426  0.5184
17933TIP3    H175290   5.857   0.887   0.908 -0.4479 -1.2589  1.1276
17933TIP3    H275291   5.819   0.915   1.052 -0.9780  0.0638  0.7465
17934TIP3   OH275292   4.013   2.304   3.707  0.3956 -0.0669 -0.0816
17934TIP3    H175293   4.086   2.275   3.762 -0.2223  0.8632  1.2353
17934TIP3    H275294   3.946   2.236   3.719 -1.3319  2.1314  3.5645
17935TIP3   OH275295   1.905   5.571  12.915 -0.0829 -0.4631 -0.0924
17935TIP3    H175296   1.928   5.664  12.918  0.3228 -0.5528 -0.3821
17935TIP3    H275297   1.967   5.533  12.853 -0.4419 -0.8731 -0.2015
17936TIP3   OH275298   5.108   1.216   4.635  0.5165 -0.4672  0.4936
17936TIP3    H175299   5.162   1.141   4.610  0.5459 -0.7520  1.3854
17936TIP3    H275300   5.065   1.243   4.554  2.3164  0.0358 -0.3006
17937TIP3   OH275301   0.534   4.443   2.359 -0.4335 -0.4332 -0.1095
17937TIP3    H175302   0.619   4.414   2.393  0.8438  1.6626 -1.4232
17937TIP3    H275303   0.497   4.496   2.429 -0.5678 -1.1319  0.3602
17938TIP3   OH275304   3.779   1.179   6.118  0.4762  0.1541 -0.4596
17938TIP3    H175305   3.735   1.180   6.033  1.0830 -1.1373 -0.7886
17938TIP3    H275306   3.833   1.258   6.118  0.1287  0.3938 -1.0849
17939TIP3   OH275307   1.646   6.308  13.710  0.0274 -0.1953  0.2215
17939TIP3    H175308   1.742   6.310  13.706 -0.0326 -0.3934 -1.4389
17939TIP3    H275309   1.626   6.330  13.801  1.6230  0.7962  0.3503
17940TIP3   OH275310   6.038   1.479  14.644 -0.1101 -0.0725  0.7341
17940TIP3    H175311   6.132   1.495  14.642 -0.0781 -0.1727 -2.5784
17940TIP3    H275312   5.999   1.566  14.642 -0.0239 -0.0456 -0.8837
17941TIP3   OH275313   3.677   2.656   1.116  0.4286 -0.6033  0.4863
17941TIP3    H175314   3.684   2.604   1.196 -0.6118 -0.7405  0.4926
17941TIP3    H275315   3.738   2.728   1.129  0.2541 -0.6165  1.4145
17942TIP3   OH275316   1.178   1.976   5.603  0.2306  0.2022  0.4085
17942TIP3    H175317   1.242   1.980   5.674  1.2977  2.5505 -0.6215
17942TIP3    H275318   1.093   1.968   5.647  0.9560  0.6460  1.9183
17943TIP3   OH275319   0.404   1.733  13.478  0.7459 -0.1361 -0.3072
17943TIP3    H175320   0.371   1.811  13.524  0.6012 -0.3089 -0.1199
17943TIP3    H275321   0.470   1.768  13.417  1.6536 -0.0327  0.7313
17944TIP3   OH275322   5.725   0.421  12.426 -0.4624  0.3313 -0.3135
17944TIP3    H175323   5.701   0.502  12.470  1.1963  0.4621  0.3841
17944TIP3    H275324   5.793   0.446  12.364  0.1202 -0.5431 -0.0329
17945TIP3   OH275325   2.858   0.758   2.836 -0.1195  0.0303  0.7105
17945TIP3    H175326   2.946   0.781   2.804 -1.0402 -1.1962 -2.9652
17945TIP3    H275327   2.874   0.713   2.918  2.5460  1.6746  1.1840
17946TIP3   OH275328   3.650   2.343   5.575  0.3850 -0.3886 -0.1082
17946TIP3    H175329   3.631   2.251   5.590 -0.6472 -0.1320  0.2241
17946TIP3    H275330   3.705   2.344   5.497 -0.2860 -1.2327 -0.6021
17947TIP3   OH275331   6.229   5.127   3.915 -0.2190  0.3552 -0.0929
17947TIP3    H175332   6.232   5.209   3.867 -0.8948  0.4015 -0.0675
17947TIP3    H275333   6.319   5.094   3.913 -0.3856 -0.0526 -2.0760
17948TIP3   OH275334   4.090   5.057   4.583  0.7103  0.0058  0.5898
17948TIP3    H175335   4.049   5.038   4.499  1.4217  1.1520 -0.0326
17948TIP3    H275336   4.165   4.998   4.587  0.5136 -0.2463  0.5383
17949TIP3   OH275337   1.818   6.321   1.194 -0.1269 -0.3802  0.1594
17949TIP3    H175338   1.869   6.328   1.113 -0.5295 -1.9172 -0.2573
17949TIP3    H275339   1.781   6.233   1.190 -1.1749  0.0006  1.4227
17950TIP3   OH275340   5.623   2.918  15.587  0.0570  0.1524 -0.2907
17950TIP3    H175341   5.596   3.005  15.558  1.1624  0.4765 -0.3630
17950TIP3    H275342   5.544   2.864  15.578 -0.8609  1.3226  0.5250
17951TIP3   OH275343   1.649   5.988  15.940  0.1609  0.5736  0.0366
17951TIP3    H175344   1.577   5.981  15.877 -0.0635 -0.2059  0.3785
17951TIP3    H275345   1.621   6.056  16.001 -1.4873 -1.5643  1.7229
17952TIP3   OH275346   0.174   1.731  13.101 -0.6122  0.3130  0.0532
17952TIP3    H175347   0.230   1.796  13.144 -0.3716  1.1634 -1.5012
17952TIP3    H275348   0.180   1.653  13.157  0.3661  1.1113  1.0868
17953TIP3   OH275349   5.861   4.142  12.661 -0.3749  0.3417 -0.0205
17953TIP3    H175350   5.835   4.225  12.701 -3.5736 -1.5890  2.0997
17953TIP3    H275351   5.813   4.139  12.578 -0.9244  0.1938  0.3070
17954TIP3   OH275352   2.267   3.463  13.815 -0.6471 -0.0368 -0.4743
17954TIP3    H175353   2.269   3.477  13.910  2.0718  1.2876 -0.6707
17954TIP3    H275354   2.233   3.544  13.779 -2.6500 -0.9032 -0.6303
17955TIP3   OH275355   1.685   0.583  16.176  0.0845  0.0046 -0.3299
17955TIP3    H175356   1.619   0.521  16.145  1.6370 -1.5187 -0.6917
17955TIP3    H275357   1.712   0.548  16.261 -1.3422  1.9999  0.9811
17956TIP3   OH275358   2.390   6.370  13.395 -0.3616 -0.3036 -0.1745
17956TIP3    H175359   2.422   6.283  13.417 -0.9635 -0.9509 -1.8334
17956TIP3    H275360   2.466   6.415  13.358 -0.3479 -0.4895 -0.3683
17957TIP3   OH275361   1.865   4.831   3.711  0.5728 -0.6326 -0.6712
17957TIP3    H175362   1.895   4.755   3.662  0.1263  0.4202 -2.6210
17957TIP3    H275363   1.938   4.892   3.708 -0.1730  0.2098 -1.7021
17958TIP3   OH275364   1.417   0.284  13.821  0.6425  0.1891 -0.0661
17958TIP3    H175365   1.371   0.331  13.752  0.4764 -1.6395 -1.2507
17958TIP3    H275366   1.489   0.239  13.776  1.0238 -0.3751  1.0807
17959TIP3   OH275367   3.948   5.143  16.295 -0.5044 -0.2927 -0.2155
17959TIP3    H175368   3.961   5.049  16.282 -1.1786 -0.0967 -2.5255
17959TIP3    H275369   3.878   5.149  16.360  0.1273 -1.3784  0.5816
17960TIP3   OH275370   4.430   2.986   3.377 -0.3913 -0.2853  0.1515
17960TIP3    H175371   4.513   2.946   3.401 -0.5388 -1.4148 -1.1563
17960TIP3    H275372   4.436   3.000   3.283 -0.8522  1.6191  0.3859
17961TIP3   OH275373   4.311   3.105   0.799  0.5173  0.4827 -0.2590
17961TIP3    H175374   4.222   3.138   0.815  0.2441 -0.3131 -0.1418
17961TIP3    H275375   4.312   3.082   0.706  0.2275 -0.6344  0.0070
17962TIP3   OH275376   1.538   1.786  17.216  0.2768 -0.3247 -0.1775
17962TIP3    H175377   1.519   1.693  17.203  0.8179 -0.4551 -0.0550
17962TIP3    H275378   1.529   1.825  17.129 -2.8137  0.0414  0.2617
17963TIP3   OH275379   5.583   0.490   4.017 -0.2350  0.2594  0.3721
17963TIP3    H175380   5.505   0.540   3.992  0.4864  0.7941 -0.8530
17963TIP3    H275381   5.552   0.429   4.083 -1.0673  2.6218  2.2585
17964TIP3   OH275382   2.093   5.426   5.727  0.1559  0.2174 -0.2422
17964TIP3    H175383   2.113   5.403   5.818 -1.6973 -0.2272  0.0765
17964TIP3    H275384   2.081   5.342   5.684  1.1164  0.4272 -0.9365
17965TIP3   OH275385   6.179   6.113  14.597  0.3997 -0.4862 -0.2925
17965TIP3    H175386   6.122   6.184  14.569  2.6333  0.8600 -1.5420
17965TIP3    H275387   6.213   6.142  14.682 -1.0678 -1.4837  0.6589
17966TIP3   OH275388   2.111   3.336  12.716  0.2861 -0.2780  0.2456
17966TIP3    H175389   2.052   3.284  12.660  0.6072 -0.2065 -0.1583
17966TIP3    H275390   2.102   3.296  12.803 -1.2516  0.4622  0.4433
17967TIP3   OH275391   2.948   6.535  14.434  0.1632  0.1606  0.1108
17967TIP3    H175392   2.943   6.441  14.418 -1.4300  0.5101 -1.4619
17967TIP3    H275393   2.863   6.559  14.471  0.3036  1.1179 -0.1605
17968TIP3   OH275394   5.101   0.463  15.727  0.2581 -0.0802 -0.0156
17968TIP3    H175395   5.151   0.544  15.734 -0.9615  0.8435 -1.7193
17968TIP3    H275396   5.115   0.418  15.811  0.8933  1.9042  0.9541
17969TIP3   OH275397   3.158   5.350  11.383 -0.3319 -0.1460  0.2276
17969TIP3    H175398   3.152   5.287  11.311 -3.0774  1.0846 -0.6992
17969TIP3    H275399   3.204   5.425  11.346  0.3391 -0.4310  0.4706
17970TIP3   OH275400   4.546   1.690  10.922 -0.0459  0.4199 -0.1560
17970TIP3    H175401   4.536   1.606  10.966  0.4839 -0.0800 -0.9797
17970TIP3    H275402   4.543   1.669  10.829 -0.2005  1.3478 -0.3664
17971TIP3   OH275403   2.475   2.794   0.580 -0.6890 -0.2263  0.4119
17971TIP3    H175404   2.408   2.858   0.555  0.2268  1.0553  1.1627
17971TIP3    H275405   2.556   2.828   0.542  0.1509  0.1058  2.4552
17972TIP3   OH275406   1.194   4.770  16.910 -0.1080 -0.5137  0.5267
17972TIP3    H175407   1.189   4.718  16.830 -1.5965 -0.1380  0.3571
17972TIP3    H275408   1.117   4.827  16.906 -0.3072 -0.6349  2.3197
17973TIP3   OH275409   6.496   0.097  17.216  0.1447  0.3021  0.3792
17973TIP3    H175410   6.439   0.168  17.246  0.0833 -0.5387  2.2941
17973TIP3    H275411   6.441   0.018  17.221  0.7814 -0.1655  0.0666
17974TIP3   OH275412   0.831   4.628  11.875 -0.1288  0.5665  0.3161
17974TIP3    H175413   0.741   4.656  11.892 -0.1141  1.5171 -1.0723
17974TIP3    H275414   0.837   4.540  11.914 -1.1801  1.1191  1.7580
17975TIP3   OH275415   6.116   5.540  14.595 -0.6098 -0.5725 -0.0479
17975TIP3    H175416   6.032   5.499  14.573 -0.8751 -0.0349 -0.0557
17975TIP3    H275417   6.117   5.620  14.543  0.0037 -0.6812 -0.1964
17976TIP3   OH275418   1.824   3.201   6.209 -0.4916 -0.0378  0.5559
17976TIP3    H175419   1.789   3.290   6.210 -0.9467 -0.2181  1.6865
17976TIP3    H275420   1.877   3.195   6.288  1.5148 -0.0197 -0.7634
17977TIP3   OH275421   4.623   4.917   4.406 -0.0395 -0.1105 -0.4204
17977TIP3    H175422   4.715   4.938   4.388  0.2333  1.2534  2.2708
17977TIP3    H275423   4.621   4.822   4.415  0.9196 -0.2361 -1.4395
17978TIP3   OH275424   3.940   5.647   0.621 -0.1629 -0.0643 -0.3068
17978TIP3    H175425   3.936   5.706   0.696  1.7865 -1.8796  1.2335
17978TIP3    H275426   3.979   5.700   0.551  0.1014  0.9462  0.6001
17979TIP3   OH275427   4.388   0.124   4.807 -0.2745 -0.7901 -0.4471
17979TIP3    H175428   4.468   0.108   4.857  1.0374 -1.9733 -2.8358
17979TIP3    H275429   4.397   0.214   4.775  0.1257 -0.9459 -0.7680
17980TIP3   OH275430   3.765   0.555  12.297 -0.9106 -0.4251 -0.1068
17980TIP3    H175431   3.712   0.627  12.263 -2.7483 -1.3586  0.7442
17980TIP3    H275432   3.713   0.476  12.282  0.4784 -1.4392  0.2251
17981TIP3   OH275433   6.034   2.452  10.283  0.2319  0.0015  0.6824
17981TIP3    H175434   5.972   2.456  10.356 -0.8589 -0.0959 -0.2248
17981TIP3    H275435   6.048   2.543  10.258 -0.2188 -0.0306  0.3205
17982TIP3   OH275436   1.142   5.500   3.593  0.0852  0.1978 -0.4006
17982TIP3    H175437   1.093   5.438   3.540  0.1230  0.3202 -0.5787
17982TIP3    H275438   1.115   5.481   3.683  1.0482 -0.9522 -0.3252
17983TIP3   OH275439   6.018   2.100  12.875  0.4365  0.1830  0.3047
17983TIP3    H175440   6.055   2.058  12.952  1.4234 -0.2930 -0.4064
17983TIP3    H275441   5.934   2.056  12.861 -0.4098  1.2490  1.9194
17984TIP3   OH275442   4.103   2.820   5.114  0.0843  0.5318 -0.3786
17984TIP3    H175443   4.138   2.908   5.109  0.4090  0.4512  0.3915
17984TIP3    H275444   4.138   2.784   5.196 -2.8198  0.9176  1.1071
17985TIP3   OH275445   6.024   1.732   0.524  0.0322  0.3280 -0.1679
17985TIP3    H175446   5.999   1.654   0.473  1.2928 -0.3495  0.2253
17985TIP3    H275447   6.001   1.709   0.614  1.3595 -0.0093  0.0933
17986TIP3   OH275448   5.781   2.860   0.553  0.1998 -0.0768 -0.0336
17986TIP3    H175449   5.819   2.793   0.611 -1.3899 -0.5922  0.4419
17986TIP3    H275450   5.846   2.870   0.483  1.0064 -1.2601  0.5101
17987TIP3   OH275451   6.392   6.072   5.610 -0.5718 -0.2647  0.0015
17987TIP3    H175452   6.296   6.079   5.616 -0.3572  2.1240  1.0984
17987TIP3    H275453   6.416   6.137   5.544  0.2633 -1.2598 -0.6896
17988TIP3   OH275454   2.834   3.528   5.620 -0.2134 -0.1555 -0.3884
17988TIP3    H175455   2.800   3.440   5.635  1.1568 -0.4318  1.1782
17988TIP3    H275456   2.761   3.586   5.644 -1.6186 -0.8724 -2.8183
17989TIP3   OH275457   5.230   2.609   1.119  0.7958 -0.2485  0.2732
17989TIP3    H175458   5.273   2.695   1.118  3.0903 -1.3730 -1.2499
17989TIP3    H275459   5.178   2.608   1.038 -0.2138  0.1805  0.9141
17990TIP3   OH275460   4.171   2.559  15.950  0.0232 -0.4269  0.2509
17990TIP3    H175461   4.138   2.478  15.912 -1.3357 -0.7301  1.9946
17990TIP3    H275462   4.119   2.628  15.909  0.5698 -0.4966 -0.5764
17991TIP3   OH275463   6.188   5.747  12.238 -0.4061  0.2391  0.1594
17991TIP3    H175464   6.231   5.722  12.156 -0.7660  0.3624 -0.0672
17991TIP3    H275465   6.155   5.836  12.221 -0.8332  0.1076  0.3048
17992TIP3   OH275466   5.026   6.775  16.295 -0.5349  0.3305  0.2000
17992TIP3    H175467   5.052   6.688  16.264  1.1690  1.0737 -0.5664
17992TIP3    H275468   5.001   6.762  16.387  2.2756 -0.5645  0.9040
17993TIP3   OH275469   2.187   2.238  11.420 -0.0874  0.0591 -0.0570
17993TIP3    H175470   2.137   2.164  11.386  0.7462 -1.1263  1.2376
17993TIP3    H275471   2.255   2.252  11.354 -1.0616  0.5509 -0.9646
17994TIP3   OH275472   4.853   5.262  16.104 -0.1002 -0.1906 -0.2652
17994TIP3    H175473   4.871   5.345  16.060 -0.4334  0.5688  1.0215
17994TIP3    H275474   4.933   5.211  16.093 -0.0827  0.0806 -1.5146
17995TIP3   OH275475   1.323   5.242   2.164 -0.3849  0.0796  0.5615
17995TIP3    H175476   1.249   5.180   2.165 -0.5602  0.2773  0.2413
17995TIP3    H275477   1.400   5.186   2.153 -0.5443 -0.0824  0.2464
17996TIP3   OH275478   5.417   4.843   5.817 -0.0096 -0.0151 -0.1444
17996TIP3    H175479   5.459   4.894   5.886  0.8123 -1.1960  0.2257
17996TIP3    H275480   5.394   4.909   5.751  2.3435  0.6846 -0.3309
17997TIP3   OH275481   0.258   3.921  11.371 -0.0499  0.3323  0.0544
17997TIP3    H175482   0.198   3.891  11.303 -1.7300  1.6985  0.8807
17997TIP3    H275483   0.201   3.941  11.446  1.1969  3.4610  0.2341
17998TIP3   OH275484   5.501   1.981   4.001  0.2998 -0.0939  0.0092
17998TIP3    H175485   5.419   2.024   4.027 -0.0410 -0.5637 -0.2613
17998TIP3    H275486   5.495   1.894   4.040  0.5493 -0.2219 -0.2370
17999TIP3   OH275487   5.958   3.889  12.625 -0.2189 -0.7505 -0.8551
17999TIP3    H175488   6.004   3.872  12.708 -1.4650 -1.2927 -0.2636
17999TIP3    H275489   5.924   3.978  12.634  1.0117 -0.2078 -1.4446
18000TIP3   OH275490   2.960   2.033   5.584 -0.0570 -0.7654 -0.0750
18000TIP3    H175491   2.936   2.120   5.552  1.2618  0.3512  1.8185
18000TIP3    H275492   2.987   1.985   5.506 -1.5365  0.2806 -1.2532
18001TIP3   OH275493   0.453   2.739  16.371  0.0116  0.6316  0.4107
18001TIP3    H175494   0.483   2.765  16.284 -3.0028  2.1329 -0.2644
18001TIP3    H275495   0.376   2.684  16.355  1.6781 -2.3303  2.0784
18002TIP3   OH275496   4.380   0.970  13.337  0.3780  0.1304 -0.1761
18002TIP3    H175497   4.337   1.028  13.274  0.0170  0.3300  0.2586
18002TIP3    H275498   4.464   1.013  13.355  0.1764  0.4372  0.0289
18003TIP3   OH275499   1.607   0.366  13.425  0.5125  0.0204  0.0789
18003TIP3    H175500   1.651   0.429  13.368  0.4283  0.9811  1.0501
18003TIP3    H275501   1.650   0.378  13.510  0.0322 -0.7698  0.4328
18004TIP3   OH275502   3.786   4.497  15.756 -0.1504 -0.2074  0.4100
18004TIP3    H175503   3.735   4.474  15.834 -0.1464 -0.5819  0.3006
18004TIP3    H275504   3.726   4.551  15.704 -0.3669 -0.4682  0.3848
18005TIP3   OH275505   0.595   4.933  13.004  0.5221 -0.3979  0.3407
18005TIP3    H175506   0.557   4.984  13.076 -0.2087 -2.8425  1.7567
18005TIP3    H275507   0.686   4.920  13.029 -0.0333 -2.3180  1.5249
18006TIP3   OH275508   4.815   5.959   0.594 -0.1367 -0.0706  0.2827
18006TIP3    H175509   4.760   5.972   0.671  0.2094  0.8927  0.3701
18006TIP3    H275510   4.904   5.959   0.628  0.1500  2.3930 -0.3394
18007TIP3   OH275511   4.464   4.129  16.138  0.3053  0.0923  0.1862
18007TIP3    H175512   4.464   4.161  16.048 -0.4795 -0.0439  0.1386
18007TIP3    H275513   4.462   4.033  16.130  0.8718  0.0611  0.3446
18008TIP3   OH275514   5.510   5.407  12.563  0.2115 -0.1912 -0.3020
18008TIP3    H175515   5.438   5.347  12.582 -0.6782  1.2340  0.9185
18008TIP3    H275516   5.577   5.351  12.522 -1.3486 -1.6352 -0.9743
18009TIP3   OH275517   0.053   6.613  14.418 -0.3123 -0.3547 -0.4417
18009TIP3    H175518   0.008   6.566  14.349  1.0519 -2.6065  0.1546
18009TIP3    H275519  -0.013   6.628  14.485 -0.7485 -1.5503 -0.5951
18010TIP3   OH275520   0.838   5.392  15.567  0.3672  0.7834  0.3049
18010TIP3    H175521   0.917   5.339  15.579 -0.9962 -1.0439  1.3291
18010TIP3    H275522   0.862   5.477  15.604  1.1136 -0.4324  2.7347
18011TIP3   OH275523   3.508   2.387   4.911 -0.4448  0.0482  0.1300
18011TIP3    H175524   3.503   2.362   5.003 -0.2026  0.4068  0.2419
18011TIP3    H275525   3.584   2.338   4.878 -0.6875 -0.2826  0.0540
18012TIP3   OH275526   2.638   0.629   0.492 -0.0442  0.2438  0.1819
18012TIP3    H175527   2.545   0.651   0.494 -0.6196 -2.1375  1.3965
18012TIP3    H275528   2.666   0.636   0.584  1.5543  3.1546 -0.4746
18013TIP3   OH275529   6.736   3.068   5.977 -0.1417 -0.1266 -0.0125
18013TIP3    H175530   6.756   3.056   6.069  0.5373  1.3854  0.0492
18013TIP3    H275531   6.688   3.150   5.973 -0.3217 -0.2676 -0.9880
18014TIP3   OH275532   5.334   6.175   2.848 -0.1964 -0.4552 -0.2990
18014TIP3    H175533   5.388   6.205   2.774 -1.3270 -0.5272 -1.1677
18014TIP3    H275534   5.393   6.120   2.900  1.1014  1.0100 -0.2036
18015TIP3   OH275535   5.682   1.034   1.634 -0.0797  0.1843 -0.0592
18015TIP3    H175536   5.621   1.035   1.708 -0.7702  1.3567 -0.6234
18015TIP3    H275537   5.711   0.943   1.628 -0.6166 -0.0889  1.1544
18016TIP3   OH275538   4.729   0.627   4.594  0.0792  0.3675 -0.4179
18016TIP3    H175539   4.653   0.659   4.547  0.0947  0.5924 -0.2897
18016TIP3    H275540   4.701   0.543   4.631 -0.0477  0.3653 -0.5198
18017TIP3   OH275541   4.072   1.167   1.794  0.6930 -0.4795  0.1060
18017TIP3    H175542   3.998   1.146   1.738 -0.3108 -1.7108  1.8502
18017TIP3    H275543   4.149   1.135   1.747  0.0162 -0.2154 -1.1914
18018TIP3   OH275544   2.677   5.949  11.396 -0.4024 -0.1275  0.0230
18018TIP3    H175545   2.708   5.940  11.306  1.3453  1.1668  0.4771
18018TIP3    H275546   2.628   6.031  11.397  0.4122  0.3600  0.4692
18019TIP3   OH275547   3.642   3.665   1.136  0.3818 -0.0743  0.5514
18019TIP3    H175548   3.701   3.705   1.200  0.5312 -1.0974  1.0744
18019TIP3    H275549   3.681   3.579   1.119 -0.1724 -0.1811 -0.2074
18020TIP3   OH275550   1.112   0.148   1.291  0.2703  0.3962  0.0341
18020TIP3    H175551   1.075   0.063   1.268  0.9912 -0.1880  1.0204
18020TIP3    H275552   1.157   0.176   1.211 -0.2805  0.0304 -0.4108
18021TIP3   OH275553   3.621   4.350   2.472 -0.2518 -0.4333  0.5312
18021TIP3    H175554   3.557   4.378   2.407  0.0061  2.2373  1.3721
18021TIP3    H275555   3.703   4.342   2.423 -0.5497 -0.7176  0.0771
18022TIP3   OH275556   3.155   6.701  14.313 -0.4200  0.0362 -0.0798
18022TIP3    H175557   3.229   6.719  14.371 -0.0627 -1.3688 -0.0875
18022TIP3    H275558   3.099   6.641  14.363 -0.6892 -0.2675 -0.7418
18023TIP3   OH275559   1.338   1.172   5.894 -0.1498  0.2318 -0.2875
18023TIP3    H175560   1.389   1.231   5.838  1.1324 -0.6105 -0.0424
18023TIP3    H275561   1.350   1.207   5.982  1.8653 -1.2433  0.0477
18024TIP3   OH275562   5.837   3.409  13.930  0.0540  0.0476 -0.8101
18024TIP3    H175563   5.886   3.329  13.913 -0.1614 -0.0383 -1.0364
18024TIP3    H275564   5.889   3.457  13.994  0.6008  0.1163 -1.3042
18025TIP3   OH275565   6.536   0.861  12.049  0.0013  0.5259 -0.5633
18025TIP3    H175566   6.550   0.853  11.955  1.8742  1.2847 -0.3565
18025TIP3    H275567   6.446   0.830  12.062  0.1645 -0.8123 -2.4175
18026TIP3   OH275568   2.069   0.179  16.215  0.0729 -0.1435 -0.2976
18026TIP3    H175569   2.143   0.216  16.263 -0.6800  0.0447  0.7337
18026TIP3    H275570   1.993   0.225  16.248 -0.2799  1.3880 -3.0889
18027TIP3   OH275571   3.334   1.476   3.664 -0.1523 -0.0661 -0.0738
18027TIP3    H175572   3.355   1.564   3.694 -0.7106 -0.5633  1.7963
18027TIP3    H275573   3.242   1.481   3.637 -0.2126 -0.1021  0.1255
18028TIP3   OH275574   0.220   2.382   0.361 -0.2331 -0.0985 -0.0827
18028TIP3    H175575   0.248   2.362   0.451  0.2347 -0.0363 -0.2141
18028TIP3    H275576   0.125   2.370   0.363 -0.2674  0.2351  0.5107
18029TIP3   OH275577   1.529   6.698  12.523 -0.5512 -0.3515  0.1324
18029TIP3    H175578   1.491   6.619  12.563 -1.9673  0.0951 -0.2805
18029TIP3    H275579   1.454   6.741  12.482  0.3672  0.7758 -0.3633
18030TIP3   OH275580   3.589   0.406  16.220 -0.0548  0.1474 -0.3302
18030TIP3    H175581   3.603   0.499  16.202 -1.4309  0.2627 -0.8244
18030TIP3    H275582   3.566   0.368  16.135 -2.3316 -0.1042  0.3703
18031TIP3   OH275583   2.903   1.799   4.424  0.0601 -0.1281  0.1990
18031TIP3    H175584   2.949   1.868   4.377 -0.1010  0.0382  0.2864
18031TIP3    H275585   2.883   1.734   4.356 -0.1472  0.0985  0.0444
18032TIP3   OH275586   3.410   6.074  12.965  0.8459  0.0498  0.1317
18032TIP3    H175587   3.325   6.119  12.968  0.7022 -0.1838 -0.2584
18032TIP3    H275588   3.387   5.981  12.955  1.1536  0.0666 -0.7834
18033TIP3   OH275589   2.959   6.703  16.857 -0.0883  0.3806  0.3214
18033TIP3    H175590   2.898   6.714  16.930 -0.6711 -0.3393 -0.0442
18033TIP3    H275591   2.943   6.778  16.800 -2.6654 -1.2033 -1.1909
18034TIP3   OH275592   3.770   0.796   0.812  0.4647 -0.4370  0.0650
18034TIP3    H175593   3.813   0.771   0.730 -0.5369  2.5987 -1.4707
18034TIP3    H275594   3.736   0.714   0.847 -0.3441 -1.6358 -3.3288
18035TIP3   OH275595   0.171   6.162  14.563 -0.1722  0.0585  0.3079
18035TIP3    H175596   0.122   6.234  14.602 -1.0991 -0.4992  0.1908
18035TIP3    H275597   0.233   6.204  14.504  0.6564  0.8623  1.7267
18036TIP3   OH275598   3.064   4.295  15.118 -0.0600 -0.0793 -0.6304
18036TIP3    H175599   3.024   4.281  15.032  0.7651 -1.8393 -0.7398
18036TIP3    H275600   3.033   4.222  15.171  0.0155  0.6095  0.3713
18037TIP3   OH275601   3.075   0.088   6.502  0.7450  0.1253 -0.7915
18037TIP3    H175602   3.113  -0.000   6.493  1.5446  0.5188 -1.3905
18037TIP3    H275603   3.089   0.110   6.594 -1.7993 -1.3987  0.0137
18038TIP3   OH275604   5.952   2.548  16.014 -0.2738 -0.1329 -0.0539
18038TIP3    H175605   5.945   2.453  16.010 -2.5625 -0.0123  0.3809
18038TIP3    H275606   5.868   2.580  15.982 -0.3813  1.7023  1.9443
18039TIP3   OH275607   3.081   5.024  14.069  0.5711  0.2282  0.3137
18039TIP3    H175608   3.036   5.107  14.082  1.8216  0.5974  2.4538
18039TIP3    H275609   3.029   4.960  14.117 -0.2317 -0.1862 -1.0931
18040TIP3   OH275610   2.069   2.212  15.603 -0.1286  0.1299  0.0079
18040TIP3    H175611   1.990   2.206  15.549 -1.1262  1.2986  1.2992
18040TIP3    H275612   2.136   2.245  15.543 -0.7081 -0.5107 -1.0075
18041TIP3   OH275613   1.774   6.515  16.180  0.7076 -0.0169  0.1751
18041TIP3    H175614   1.761   6.427  16.218  2.3903 -0.3528  0.0023
18041TIP3    H275615   1.866   6.516  16.154  0.4094  1.4203 -0.8406
18042TIP3   OH275616   2.278   3.140  11.354  0.2653 -0.0673  0.2738
18042TIP3    H175617   2.335   3.113  11.426  1.3371  0.6964 -0.2797
18042TIP3    H275618   2.254   3.058  11.311  0.4857 -0.4361  0.8430
18043TIP3   OH275619   5.679   4.296   2.235 -0.1763 -0.7156 -0.0942
18043TIP3    H175620   5.616   4.361   2.203  0.6572 -0.0028 -0.3235
18043TIP3    H275621   5.733   4.344   2.297 -0.8706 -1.7338  1.3216
18044TIP3   OH275622   1.425   4.165   1.381  0.3563 -0.2512 -0.2305
18044TIP3    H175623   1.432   4.174   1.476 -1.9277  0.7932 -0.1396
18044TIP3    H275624   1.459   4.248   1.347  1.5985 -0.8022 -0.3609
18045TIP3   OH275625   3.179   6.105  11.363 -0.0627 -0.0471 -0.7953
18045TIP3    H175626   3.106   6.048  11.337  0.0761  0.8323 -3.2093
18045TIP3    H275627   3.240   6.100  11.290  1.8127  0.0787  0.7494
18046TIP3   OH275628   4.805   4.326   3.004 -0.4296  0.1744  0.2263
18046TIP3    H175629   4.820   4.245   2.955  2.9522  0.6921  0.3102
18046TIP3    H275630   4.824   4.303   3.095 -1.7612  0.5180  0.6146
18047TIP3   OH275631   0.555   3.943   5.985  0.5853 -0.4861  0.5072
18047TIP3    H175632   0.485   3.885   5.957  0.3936  0.7008 -1.6331
18047TIP3    H275633   0.618   3.886   6.029 -0.5631 -1.9509  0.2846
18048TIP3   OH275634   3.574   3.831  13.566 -0.1967 -0.0521 -0.0184
18048TIP3    H175635   3.631   3.784  13.626 -1.7121 -2.9071 -0.7073
18048TIP3    H275636   3.630   3.856  13.493  0.8897  0.3011  0.9244
18049TIP3   OH275637   2.208   2.751   2.741  0.4780  0.3415 -0.3696
18049TIP3    H175638   2.147   2.783   2.674 -0.8781 -2.2986 -0.4260
18049TIP3    H275639   2.293   2.751   2.697 -0.3300 -0.9333 -1.9644
18050TIP3   OH275640   4.606   6.249  14.126  0.0233  0.5782 -0.4024
18050TIP3    H175641   4.587   6.218  14.037 -0.1365  1.6892 -0.7611
18050TIP3    H275642   4.668   6.185  14.161 -0.9379 -0.6203 -0.8268
18051TIP3   OH275643   1.291   5.641   6.546  0.1681 -0.4363  0.2091
18051TIP3    H175644   1.360   5.576   6.532 -0.3445 -0.9584  0.0576
18051TIP3    H275645   1.212   5.588   6.560 -0.0861  0.1399  0.9804
18052TIP3   OH275646   6.030   5.898  11.936  0.3778  0.8663 -0.2651
18052TIP3    H175647   5.951   5.846  11.919 -1.3339  3.3799 -0.2909
18052TIP3    H275648   6.102   5.840  11.912 -1.4350 -1.6346  0.1302
18053TIP3   OH275649   1.297   2.993  14.102  0.3235 -0.5010 -0.1476
18053TIP3    H175650   1.296   3.088  14.112 -1.4548 -0.5127 -0.0415
18053TIP3    H275651   1.371   2.963  14.155 -0.1164  0.6812  1.1530
18054TIP3   OH275652   4.413   3.477   3.499 -0.1020  0.4074 -0.2119
18054TIP3    H175653   4.503   3.451   3.516 -0.8082 -0.3015  2.6000
18054TIP3    H275654   4.366   3.395   3.486 -0.6312  0.7069 -0.2136
18055TIP3   OH275655   2.995   1.522   4.887  0.4304 -0.4216  0.3666
18055TIP3    H175656   2.972   1.499   4.977  0.7184  1.9112  1.0796
18055TIP3    H275657   3.089   1.540   4.890  0.8205 -2.1600 -0.8217
18056TIP3   OH275658   1.167   3.788  17.010 -1.3442  0.1805  0.3121
18056TIP3    H175659   1.165   3.710  17.065 -1.7678 -0.1775 -0.2169
18056TIP3    H275660   1.101   3.846  17.049  0.6273  1.2589  2.1590
18057TIP3   OH275661   6.757   2.055  10.359  0.3243 -0.1729  0.2915
18057TIP3    H175662   6.731   1.964  10.372  3.2467 -1.1529 -0.1762
18057TIP3    H275663   6.731   2.076  10.269 -0.1155 -0.6450  0.3137
18058TIP3   OH275664   3.670   0.094   0.552  0.5738 -0.5924 -0.2733
18058TIP3    H175665   3.758   0.131   0.544  0.0732  0.4675 -1.1406
18058TIP3    H275666   3.634   0.099   0.463 -1.5363  2.0862  0.6597
18059TIP3   OH275667   1.305   0.609   5.031  0.1855  0.0481  0.6714
18059TIP3    H175668   1.244   0.679   5.056  0.3432 -0.2294  1.8698
18059TIP3    H275669   1.318   0.559   5.112  0.8472 -0.7769  0.0584
18060TIP3   OH275670   2.338   4.362  13.795  0.7848 -0.0055 -0.1446
18060TIP3    H175671   2.298   4.394  13.714 -0.2655  0.7543  0.6475
18060TIP3    H275672   2.358   4.271  13.777 -1.6694 -0.5327 -0.4752
18061TIP3   OH275673   3.274   6.487   5.264  0.8624 -0.1356 -0.3285
18061TIP3    H175674   3.308   6.445   5.184  0.7085 -0.4340 -0.2372
18061TIP3    H275675   3.180   6.469   5.262  1.0626 -1.3296  0.6309
18062TIP3   OH275676   1.859   3.911  16.855  0.1291 -0.5627  0.1514
18062TIP3    H175677   1.941   3.960  16.850  0.3076 -0.2525  4.3982
18062TIP3    H275678   1.791   3.975  16.832  0.7153  0.4915  1.3301
18063TIP3   OH275679   6.520   4.642  11.822 -0.0197 -0.1225  0.2972
18063TIP3    H175680   6.455   4.634  11.752 -0.6850  1.4712  0.7132
18063TIP3    H275681   6.561   4.556  11.826 -0.6538 -0.5274 -1.3902
18064TIP3   OH275682   4.635   0.148   1.235 -0.0258 -0.4700  0.9857
18064TIP3    H175683   4.583   0.099   1.171 -0.1398  1.6232 -0.5828
18064TIP3    H275684   4.680   0.081   1.287 -1.2303 -2.2272 -0.2130
18065TIP3   OH275685   0.003   3.057   1.418 -0.0450 -0.5008 -0.3565
18065TIP3    H175686   0.008   3.114   1.341 -2.6870 -0.1153 -0.3090
18065TIP3    H275687   0.045   2.975   1.390  2.7547  1.0146 -0.8011
18066TIP3   OH275688   1.243   6.424   2.498 -0.3214  0.8558 -0.1627
18066TIP3    H175689   1.208   6.377   2.574 -1.9976  0.4306 -1.1748
18066TIP3    H275690   1.181   6.405   2.428 -0.0076  3.0486 -1.0721
18067TIP3   OH275691   5.908   1.731   0.796  0.1182  0.2994 -0.1145
18067TIP3    H175692   5.868   1.817   0.785 -0.1117  0.2498  0.2927
18067TIP3    H275693   5.963   1.741   0.874  1.0966  0.4353 -0.8091
18068TIP3   OH275694   5.575   3.771  12.895  0.0863 -0.1153 -0.5042
18068TIP3    H175695   5.611   3.749  12.809 -2.4042 -1.2954 -1.2996
18068TIP3    H275696   5.636   3.733  12.958  1.1044 -0.5907 -1.7638
18069TIP3   OH275697   1.410   5.109   1.483  0.6501  0.0564 -0.0350
18069TIP3    H175698   1.354   5.161   1.541  1.1378  0.9078 -0.3323
18069TIP3    H275699   1.473   5.171   1.447  1.2082 -0.7247 -0.4316
18070TIP3   OH275700   1.698   0.525  11.250 -0.9690 -0.0802 -0.1759
18070TIP3    H175701   1.614   0.480  11.246 -1.3567  0.6477 -0.2737
18070TIP3    H275702   1.742   0.503  11.168 -0.5400 -1.4739  0.4206
18071TIP3   OH275703   2.201   3.853  15.621  0.1229  0.3467 -0.2945
18071TIP3    H175704   2.230   3.848  15.530 -0.9557 -0.2713 -0.6139
18071TIP3    H275705   2.251   3.784  15.665 -0.9675 -0.8381 -0.8805
18072TIP3   OH275706   1.268   1.966   1.001 -0.0883  0.2346 -0.1943
18072TIP3    H175707   1.361   1.962   1.020 -0.1886 -1.8525  0.0112
18072TIP3    H275708   1.256   1.904   0.929 -1.2822  0.6174 -0.3352
18073TIP3   OH275709   4.447   2.462  15.722 -0.3140  0.1141 -0.0063
18073TIP3    H175710   4.435   2.479  15.815  0.3331  0.0507  0.0951
18073TIP3    H275711   4.489   2.542  15.689 -0.0101 -0.0930 -0.1231
18074TIP3   OH275712   0.988   5.760  11.187 -0.0910  0.1885 -0.1390
18074TIP3    H175713   0.896   5.742  11.207  0.3519 -4.0616 -1.3392
18074TIP3    H275714   1.033   5.750  11.272 -0.5732  1.1578  0.2356
18075TIP3   OH275715   4.180   5.730  14.695 -0.0169 -0.0341 -0.2149
18075TIP3    H175716   4.145   5.689  14.616  1.2319  0.7970 -1.2220
18075TIP3    H275717   4.143   5.818  14.694 -0.8477 -0.3606  0.7133
18076TIP3   OH275718   0.445   1.114  14.682  0.3474 -0.3462  0.3748
18076TIP3    H175719   0.466   1.034  14.636  1.7203 -0.0162  0.4032
18076TIP3    H275720   0.351   1.127  14.667  0.2301 -1.6639 -0.0601
18077TIP3   OH275721   4.853   5.589   0.078  0.2549  0.2818  0.4392
18077TIP3    H175722   4.816   5.514   0.125  1.2217  0.2350  1.1373
18077TIP3    H275723   4.870   5.653   0.147 -0.9759  1.3210 -0.2060
18078TIP3   OH275724   1.445   2.756   0.633  0.0835 -0.4578  0.6235
18078TIP3    H175725   1.398   2.823   0.584  0.6878 -1.1223 -0.9109
18078TIP3    H275726   1.511   2.804   0.683  0.8114  0.0765 -0.8104
18079TIP3   OH275727   3.775   1.097   6.752 -0.2066 -0.6844 -0.3788
18079TIP3    H175728   3.721   1.074   6.828  1.3298 -1.0653  0.6250
18079TIP3    H275729   3.747   1.185   6.728 -0.0702 -0.1860  1.2322
18080TIP3   OH275730   1.106   4.557   5.004 -0.4627 -0.0687 -0.4057
18080TIP3    H175731   1.051   4.585   5.077  0.5928  1.8277 -0.3073
18080TIP3    H275732   1.153   4.481   5.038 -0.7989  0.1258  0.5086
18081TIP3   OH275733   1.023   2.610  16.967  0.6872  0.0663 -0.2330
18081TIP3    H175734   0.962   2.537  16.960 -0.1271  0.4112  2.5714
18081TIP3    H275735   0.986   2.678  16.912  0.0028 -0.6995 -0.7295
18082TIP3   OH275736   5.764   4.890  16.663  0.3066  0.1214 -0.6300
18082TIP3    H175737   5.825   4.906  16.735  1.0497  4.1889 -2.0711
18082TIP3    H275738   5.819   4.879  16.586 -0.6501 -0.1587 -1.2829
18083TIP3   OH275739   3.856   6.805  15.136  0.3862 -0.1699  0.2883
18083TIP3    H175740   3.889   6.895  15.128 -2.3698  0.9535  0.6841
18083TIP3    H275741   3.857   6.770  15.047  0.1865  0.7620 -0.0847
18084TIP3   OH275742   0.803   2.827   3.927 -0.4068 -0.8274  0.3785
18084TIP3    H175743   0.872   2.777   3.970 -1.8678 -1.7747  1.6700
18084TIP3    H275744   0.737   2.842   3.995 -1.3866  0.2407 -0.7641
18085TIP3   OH275745   4.712   5.443   4.564 -0.7169  0.3330  0.6574
18085TIP3    H175746   4.632   5.496   4.574 -0.6528 -0.0411  3.5150
18085TIP3    H275747   4.781   5.508   4.548 -1.0783  0.9229  1.4205
18086TIP3   OH275748   3.943   1.836   1.221 -0.8289  0.2585  0.3730
18086TIP3    H175749   3.921   1.856   1.312 -0.1563 -2.6186  1.1869
18086TIP3    H275750   3.980   1.748   1.223  1.7171  1.1921 -2.3351
18087TIP3   OH275751   1.585   4.124   0.917  0.0159 -0.0144 -0.3651
18087TIP3    H175752   1.519   4.097   0.980  2.2014  1.4624  2.7059
18087TIP3    H275753   1.535   4.157   0.842 -2.7549  1.3288  1.9558
18088TIP3   OH275754   0.967   1.619  14.776  0.4527 -0.5631 -0.0856
18088TIP3    H175755   1.011   1.549  14.824  1.3682  0.1065  0.0779
18088TIP3    H275756   1.035   1.657  14.721  0.0669  0.4348  0.1053
18089TIP3   OH275757   0.765   4.290   2.366 -0.3480  0.1258 -0.0318
18089TIP3    H175758   0.809   4.329   2.442 -0.0361  1.8485 -1.0753
18089TIP3    H275759   0.748   4.199   2.393  2.6477 -0.2359  0.8879
18090TIP3   OH275760   5.111   0.661   1.321  0.4433  0.5050  0.2623
18090TIP3    H175761   5.117   0.644   1.227  1.5034  1.1178  0.2184
18090TIP3    H275762   5.019   0.645   1.342 -0.0284  1.3299 -1.0782
18091TIP3   OH275763   5.518   2.770  17.251 -0.3237 -0.4700 -0.1401
18091TIP3    H175764   5.577   2.696  17.234  1.5598  0.9118  0.2689
18091TIP3    H275765   5.448   2.732  17.304  1.6691 -1.5631  1.8004
18092TIP3   OH275766   0.871   5.067   1.578  0.2549 -0.1885  0.1821
18092TIP3    H175767   0.888   5.009   1.504  3.9952 -1.0975  1.6243
18092TIP3    H275768   0.861   5.154   1.540  0.6626 -0.8725 -1.5157
18093TIP3   OH275769   3.139   6.154   4.470  0.3809  0.0411  0.0902
18093TIP3    H175770   3.115   6.214   4.400 -2.0047 -1.6049 -0.5754
18093TIP3    H275771   3.223   6.116   4.441 -0.2773 -0.1865 -1.6022
18094TIP3   OH275772   2.828   5.921   0.958 -0.7403  0.5348 -0.0605
18094TIP3    H175773   2.850   6.011   0.936  0.1242  0.6911  1.4084
18094TIP3    H275774   2.753   5.929   1.018 -0.1179  0.3219  0.7509
18095TIP3   OH275775   4.387   4.233  16.899  0.6306 -0.1252  0.1085
18095TIP3    H175776   4.447   4.159  16.888  1.3544  0.8215 -2.8199
18095TIP3    H275777   4.307   4.206  16.852 -0.2435 -0.2526  1.6274
18096TIP3   OH275778   4.237   0.110   6.688  0.1712 -0.1470 -0.2742
18096TIP3    H175779   4.209   0.156   6.609  1.0082 -3.5944 -2.7156
18096TIP3    H275780   4.323   0.147   6.708  0.7584 -0.4581 -2.0990
18097TIP3   OH275781   2.572   3.176   0.142  0.5190  0.2846  0.0324
18097TIP3    H175782   2.637   3.229   0.187  1.0007  0.6540 -1.0695
18097TIP3    H275783   2.606   3.168   0.052  0.3540 -1.7041  0.1219
18098TIP3   OH275784   4.206   2.573  11.808  0.1145 -0.3198  0.3920
18098TIP3    H175785   4.148   2.643  11.838  0.7447 -0.3202  1.6533
18098TIP3    H275786   4.192   2.569  11.713 -0.0590  1.4020  0.3333
18099TIP3   OH275787   3.161   2.327  15.108  0.5260 -0.1525  0.5082
18099TIP3    H175788   3.250   2.301  15.087  0.6447  0.9207 -0.3502
18099TIP3    H275789   3.135   2.385  15.037 -1.0191 -0.8076  0.5169
18100TIP3   OH275790   4.575   5.482  17.041  0.5942  0.2581  0.4185
18100TIP3    H175791   4.608   5.544  16.976  1.0968 -0.5799 -0.1304
18100TIP3    H275792   4.654   5.444  17.080  0.3285 -2.1841 -1.2996
18101TIP3   OH275793   5.547   3.810   1.553 -0.1566 -0.6226  0.6024
18101TIP3    H175794   5.476   3.751   1.527  0.5817 -0.9654 -0.6629
18101TIP3    H275795   5.541   3.814   1.649  0.2299 -3.2837  0.7617
18102TIP3   OH275796   5.013   5.073  15.648  0.0233  0.5930  0.3682
18102TIP3    H175797   4.932   5.120  15.665 -0.2359  0.9812 -1.7755
18102TIP3    H275798   5.078   5.142  15.636  0.6297  0.2887  1.8617
18103TIP3   OH275799   3.422   3.408  16.066  0.0357  0.3971 -0.2348
18103TIP3    H175800   3.429   3.431  15.973  2.9973  2.7225  0.4855
18103TIP3    H275801   3.402   3.491  16.110  1.3278 -0.1534  1.4457
18104TIP3   OH275802   0.974   2.453   0.524 -0.7086  0.1045 -0.5225
18104TIP3    H175803   0.908   2.512   0.560 -0.6522 -0.2193  0.1205
18104TIP3    H275804   1.043   2.512   0.492 -0.2890  0.3773  0.8343
18105TIP3   OH275805   3.705   5.419   2.610  0.4244  0.7261  0.4148
18105TIP3    H175806   3.748   5.497   2.644  2.0115  0.6523 -1.3262
18105TIP3    H275807   3.767   5.348   2.627 -0.4483  0.0593  0.8299
18106TIP3   OH275808   5.683   0.529  14.587 -0.2298 -0.2786  0.1183
18106TIP3    H175809   5.628   0.519  14.665  0.3208  1.8260  0.8029
18106TIP3    H275810   5.622   0.526  14.514 -1.0860  0.4778  0.7908
18107TIP3   OH275811   1.562   5.470   0.899 -0.0474  1.0383  0.6337
18107TIP3    H175812   1.539   5.548   0.948  0.0372  1.8899 -0.6345
18107TIP3    H275813   1.479   5.430   0.875 -0.1146  1.3498  0.3449
18108TIP3   OH275814   3.155   1.173  15.987 -0.0919 -0.8333 -0.3886
18108TIP3    H175815   3.173   1.099  16.046  1.1989 -0.1237  0.1291
18108TIP3    H275816   3.229   1.173  15.926 -0.8023 -0.8139 -1.2490
18109TIP3   OH275817   3.258   3.208   4.750  0.9449  0.1180  0.3614
18109TIP3    H175818   3.302   3.259   4.682  0.1225 -0.7367 -0.8221
18109TIP3    H275819   3.183   3.168   4.705 -0.3026  0.5238  2.0373
18110TIP3   OH275820   0.243   0.711  12.550 -0.1078 -0.3521  0.2755
18110TIP3    H175821   0.302   0.667  12.611 -0.5247  0.1508  1.0555
18110TIP3    H275822   0.292   0.786  12.518  1.1393 -2.1714 -2.1766
18111TIP3   OH275823   5.362   2.470  13.902 -0.9930 -0.3726  0.3756
18111TIP3    H175824   5.337   2.553  13.862 -0.3503  0.0287  0.8003
18111TIP3    H275825   5.452   2.455  13.874 -0.7965 -0.4671  1.0436
18112TIP3   OH275826   1.621   4.400   3.744  0.5418 -0.1365 -0.0138
18112TIP3    H175827   1.556   4.448   3.694 -0.8332 -1.1023  0.7982
18112TIP3    H275828   1.705   4.422   3.703 -0.6185 -1.6289 -3.3358
18113TIP3   OH275829   4.545   6.787   1.029  0.2164 -0.7508  0.4152
18113TIP3    H175830   4.537   6.705   0.981  1.2883 -0.4312 -0.3285
18113TIP3    H275831   4.569   6.851   0.963 -0.4100  0.1291  1.0265
18114TIP3   OH275832   0.224   4.995   3.254 -0.0825 -0.1379 -0.2504
18114TIP3    H175833   0.244   4.912   3.212 -0.0217 -0.6945  0.8614
18114TIP3    H275834   0.131   5.009   3.239 -0.2547 -0.7850  0.2022
18115TIP3   OH275835   0.808   3.623   5.619  0.4429 -0.3454  0.1609
18115TIP3    H175836   0.857   3.655   5.694  3.0516  0.6902 -1.9090
18115TIP3    H275837   0.716   3.626   5.647  1.2312  1.4992  2.7288
18116TIP3   OH275838   3.516   2.504  16.114 -0.2224 -0.2133 -0.5796
18116TIP3    H175839   3.565   2.584  16.132 -0.0014 -0.1589 -1.3957
18116TIP3    H275840   3.453   2.497  16.186 -0.9768  1.2792 -1.0744
18117TIP3   OH275841   2.122   1.631  12.757 -0.2899 -0.5716 -0.4237
18117TIP3    H175842   2.048   1.671  12.711  0.6854  1.0136 -0.6686
18117TIP3    H275843   2.085   1.555  12.801 -1.7159 -0.7900 -1.9416
18118TIP3   OH275844   3.066   5.473   4.653  0.0076 -0.0914 -0.3620
18118TIP3    H175845   2.989   5.504   4.604  0.1131  1.1152  0.2040
18118TIP3    H275846   3.134   5.537   4.633  0.8007 -1.0333 -0.6802
18119TIP3   OH275847   2.243   6.708  14.583 -0.0226  0.1516  0.3507
18119TIP3    H175848   2.262   6.695  14.491  0.2304 -1.5618  0.6303
18119TIP3    H275849   2.309   6.656  14.629  0.4860  1.8030  1.5224
18120TIP3   OH275850   4.041   2.707  14.412  0.1888 -0.9098  0.2574
18120TIP3    H175851   3.949   2.724  14.432  0.4937 -0.5057  1.3539
18120TIP3    H275852   4.089   2.738  14.490  1.2107 -1.5692 -0.0959
18121TIP3   OH275853   3.351   1.008   3.935 -0.2634  0.4128 -0.2048
18121TIP3    H175854   3.343   1.103   3.937 -0.0418  0.5073 -2.2211
18121TIP3    H275855   3.415   0.991   3.865 -1.1037 -1.2487 -0.5974
18122TIP3   OH275856   5.244   6.706   0.508 -0.2990  0.2648  0.0386
18122TIP3    H175857   5.285   6.788   0.481 -0.9887  0.7352  0.4005
18122TIP3    H275858   5.313   6.641   0.501  0.2973  0.9100 -0.1018
18123TIP3   OH275859   0.707   1.547   4.258 -0.4791 -0.2668 -0.6851
18123TIP3    H175860   0.724   1.470   4.203  2.2238 -0.7399  0.6952
18123TIP3    H275861   0.626   1.525   4.304  0.2990 -2.3878 -0.2335
18124TIP3   OH275862   3.894   3.790  15.719 -0.0295 -0.2131  0.1061
18124TIP3    H175863   3.889   3.820  15.810 -0.1288 -1.1548  0.4100
18124TIP3    H275864   3.822   3.727  15.711  0.3298 -0.5463 -0.4719
18125TIP3   OH275865   2.865   4.234   5.766 -0.0397 -0.2054 -0.2073
18125TIP3    H175866   2.899   4.287   5.694 -1.0674  0.0360 -0.5290
18125TIP3    H275867   2.784   4.195   5.731  0.1123 -1.0827  0.4014
18126TIP3   OH275868   3.016   1.296  12.907 -0.0849  0.7617  0.6017
18126TIP3    H175869   2.956   1.223  12.900  0.7702 -0.2019  2.8031
18126TIP3    H275870   2.975   1.367  12.857 -1.4688 -0.8462 -0.5666
18127TIP3   OH275871   1.849   0.163  12.563 -0.6383 -0.0451 -0.2907
18127TIP3    H175872   1.835   0.103  12.636  0.4482  0.4764  0.3599
18127TIP3    H275873   1.769   0.157  12.511 -0.7613 -1.6401  0.0619
18128TIP3   OH275874   5.690   6.379  14.900  0.8465 -0.2081 -0.4147
18128TIP3    H175875   5.599   6.365  14.873  0.6900 -0.8097  0.3913
18128TIP3    H275876   5.741   6.371  14.820  0.0129  2.0378 -1.2317
18129TIP3   OH275877   5.183   0.708   4.494 -0.4590  0.4506 -0.6988
18129TIP3    H175878   5.253   0.727   4.556 -0.1334  0.7551 -1.1506
18129TIP3    H275879   5.144   0.626   4.525 -0.4542  0.7245  0.0351
18130TIP3   OH275880   3.505   0.200  13.056  0.0835 -0.6219  0.0400
18130TIP3    H175881   3.593   0.217  13.090 -0.1585  0.1444  0.2980
18130TIP3    H275882   3.480   0.281  13.011 -0.1710 -1.1247 -0.7406
18131TIP3   OH275883   1.324   3.511  15.654 -0.2935 -0.2174 -0.3967
18131TIP3    H175884   1.285   3.439  15.703  0.3626  0.7015  1.5070
18131TIP3    H275885   1.249   3.565  15.627 -0.5890 -0.2163  0.4254
18132TIP3   OH275886   5.860   4.018   0.934 -0.4271 -0.2765 -0.4878
18132TIP3    H175887   5.814   4.003   1.016  0.9345 -0.4109  0.2674
18132TIP3    H275888   5.791   4.040   0.871 -1.6494 -1.7322  0.3024
18133TIP3   OH275889   2.750   4.761   3.650 -0.3125  0.0318  0.4094
18133TIP3    H175890   2.825   4.808   3.614  0.4102 -1.9615 -0.7926
18133TIP3    H275891   2.675   4.816   3.630  0.8176  2.0363  1.5959
18134TIP3   OH275892   3.703   1.255   1.065  0.5738  0.3403 -0.6315
18134TIP3    H175893   3.690   1.183   1.003  0.1385 -2.1573  2.2685
18134TIP3    H275894   3.795   1.248   1.090  0.1189 -0.2356  0.8916
18135TIP3   OH275895   1.781   6.402   2.280  0.1262 -0.0979 -0.1648
18135TIP3    H175896   1.821   6.429   2.198 -0.4996 -0.3614 -0.5550
18135TIP3    H275897   1.703   6.353   2.255  1.8775 -3.3520  0.4944
18136TIP3   OH275898   2.549   6.511   6.139 -0.0741  0.4220  0.4397
18136TIP3    H175899   2.568   6.531   6.231  0.6602 -0.3033  0.4565
18136TIP3    H275900   2.635   6.496   6.099 -0.4471 -0.3467 -0.0996
18137TIP3   OH275901   3.367   2.263  15.350 -0.3369  0.5985  0.1500
18137TIP3    H175902   3.277   2.232  15.359 -1.6324  3.5528 -1.6837
18137TIP3    H275903   3.388   2.248  15.257  0.7723  0.6606  0.3803
18138TIP3   OH275904   5.793   4.817  16.199 -0.2504  0.3252  0.4316
18138TIP3    H175905   5.809   4.897  16.249 -0.6402  0.7713 -0.1534
18138TIP3    H275906   5.857   4.754  16.233  1.6642  1.5767 -0.7232
18139TIP3   OH275907   2.251   5.563  12.585 -0.4971 -0.1279  0.3297
18139TIP3    H175908   2.234   5.471  12.605  2.4981 -0.9505 -0.5836
18139TIP3    H275909   2.273   5.602  12.670  0.9911 -0.9365  0.3352
18140TIP3   OH275910   4.657   4.913   2.225 -0.1929  0.4718 -0.3920
18140TIP3    H175911   4.652   4.909   2.129  1.7607 -1.1962 -0.4376
18140TIP3    H275912   4.588   4.976   2.249  0.0019  1.7356 -2.9428
18141TIP3   OH275913   4.764   6.370   5.867  0.4009  0.4513  0.0024
18141TIP3    H175914   4.692   6.424   5.898  0.5494  0.4001  0.4385
18141TIP3    H275915   4.819   6.429   5.815 -0.1635  0.3954 -0.6556
18142TIP3   OH275916   5.074   0.641   0.073  0.4583 -0.3903  0.7754
18142TIP3    H175917   5.006   0.626   0.139 -0.3905  0.4654  0.1262
18142TIP3    H275918   5.038   0.712   0.019  0.2631 -2.3978 -1.7923
18143TIP3   OH275919   3.758   1.047   0.900  0.5688 -1.1313 -0.2404
18143TIP3    H175920   3.850   1.068   0.915 -0.0284 -0.0616  2.2665
18143TIP3    H275921   3.758   0.958   0.867  2.5015 -1.1947 -0.1045
18144TIP3   OH275922   2.513   4.355  14.573 -0.0639 -0.4164 -0.1714
18144TIP3    H175923   2.587   4.387  14.625  2.0250 -0.2208 -3.1185
18144TIP3    H275924   2.477   4.434  14.532 -0.3923 -0.7897 -0.6047
18145TIP3   OH275925   2.960   4.614  16.766 -0.4353  0.6700 -0.3791
18145TIP3    H175926   3.028   4.559  16.727 -0.5197  0.6316 -0.4732
18145TIP3    H275927   2.984   4.703  16.742  0.0790  0.7324  0.3368
18146TIP3   OH275928   2.254   5.997  14.852  0.8923  0.3469  0.3006
18146TIP3    H175929   2.214   6.067  14.800  1.8401  0.1920 -0.6651
18146TIP3    H275930   2.343   6.028  14.869  0.9172 -0.0748  0.9531
18147TIP3   OH275931   3.149   6.510   2.000 -0.2092  0.2161 -0.6255
18147TIP3    H175932   3.211   6.440   2.020 -0.0050  0.5227 -0.1610
18147TIP3    H275933   3.073   6.490   2.055 -0.5786 -0.2407 -1.3044
18148TIP3   OH275934   0.003   1.788   2.129  0.2943  0.3053 -0.7019
18148TIP3    H175935  -0.025   1.781   2.038 -1.5314 -0.1361 -0.1207
18148TIP3    H275936  -0.074   1.820   2.175  1.7532  2.2802  0.4036
18149TIP3   OH275937   0.831   2.155  16.773 -0.3214 -0.1380  0.8343
18149TIP3    H175938   0.835   2.216  16.847  2.9124 -1.1403  1.5391
18149TIP3    H275939   0.857   2.207  16.698 -1.7851  0.3984  0.6704
18150TIP3   OH275940   6.340   2.185   4.223  0.3934  0.2236 -0.6898
18150TIP3    H175941   6.272   2.117   4.212  1.2388 -0.7140 -0.2487
18150TIP3    H275942   6.349   2.194   4.318 -0.9644  2.2433 -0.7402
18151TIP3   OH275943   4.289   2.204  11.383 -0.0882 -0.3971 -0.0033
18151TIP3    H175944   4.359   2.150  11.347 -0.9273 -1.0533 -0.6758
18151TIP3    H275945   4.311   2.214  11.475  0.2466 -1.6411  0.0642
18152TIP3   OH275946   2.454   3.040   2.612 -0.1555  0.0050  0.0488
18152TIP3    H175947   2.509   2.980   2.661  1.1576 -0.3928 -1.8749
18152TIP3    H275948   2.441   3.115   2.671 -1.0765 -1.7413  2.0991
18153TIP3   OH275949   2.893   5.448   3.986  0.1332  0.7651 -0.6692
18153TIP3    H175950   2.871   5.446   3.893  0.6282  0.8294 -0.7882
18153TIP3    H275951   2.982   5.413   3.990  0.0932  0.7179 -0.2141
18154TIP3   OH275952   4.875   4.481   4.388 -0.7479 -0.3062 -0.5155
18154TIP3    H175953   4.878   4.569   4.348 -0.5185  1.1691  2.6123
18154TIP3    H275954   4.966   4.457   4.400 -0.8027 -1.2618 -1.9157
18155TIP3   OH275955   2.641   6.729   2.982  0.5692  0.0943 -0.2120
18155TIP3    H175956   2.564   6.672   2.986  1.0439 -0.7638 -2.2413
18155TIP3    H275957   2.605   6.817   2.969 -0.0973 -0.5022 -2.8578
18156TIP3   OH275958   2.150   5.133  16.232 -0.0329  0.1775 -0.7269
18156TIP3    H175959   2.068   5.166  16.194  0.6742 -0.6082 -2.9979
18156TIP3    H275960   2.156   5.043  16.200  0.5823 -0.5259  1.3236
18157TIP3   OH275961   3.811   3.778   5.991 -0.2968  0.5927 -0.0483
18157TIP3    H175962   3.820   3.683   5.993 -2.5812  0.3802  0.8108
18157TIP3    H275963   3.802   3.803   6.083  0.0216  1.6240 -0.2928
18158TIP3   OH275964   0.718   2.042   1.316  0.1101 -0.0832 -0.7751
18158TIP3    H175965   0.759   2.128   1.321  0.2196 -0.1688 -0.1427
18158TIP3    H275966   0.741   2.009   1.229  1.9552 -0.4124 -0.1812
18159TIP3   OH275967   3.550   1.829   3.794 -0.0051  0.3074  0.4362
18159TIP3    H175968   3.620   1.819   3.729  0.4219 -0.4546  1.0061
18159TIP3    H275969   3.469   1.818   3.744  0.2541  1.7036 -0.3215
18160TIP3   OH275970   4.979   1.298   2.717  0.2648  0.6828 -0.3672
18160TIP3    H175971   4.918   1.248   2.771 -0.0094  2.1990  0.7611
18160TIP3    H275972   5.060   1.247   2.718 -0.2083 -0.0559  0.2585
18161TIP3   OH275973   4.653   3.476  11.106 -0.0829 -0.4583 -0.2577
18161TIP3    H175974   4.580   3.432  11.063 -0.6716 -1.1351  1.3742
18161TIP3    H275975   4.621   3.565  11.123 -0.1617 -0.4550 -0.4255
18162TIP3   OH275976   6.096   6.191   2.738  0.0651 -0.2687  0.7052
18162TIP3    H175977   6.071   6.148   2.819  1.8621 -0.1657  1.3330
18162TIP3    H275978   6.173   6.243   2.761 -1.8323  3.0693 -0.0758
18163TIP3   OH275979   0.995   1.226   4.131  0.1857 -0.0393  0.3259
18163TIP3    H175980   1.015   1.134   4.110  2.6117  0.3138  0.9401
18163TIP3    H275981   1.046   1.244   4.210 -0.0775  1.9225  0.0602
18164TIP3   OH275982   5.231   0.824   2.056 -0.0753 -1.1428  0.0699
18164TIP3    H175983   5.259   0.852   1.969  1.1879 -1.3015  0.4165
18164TIP3    H275984   5.187   0.741   2.041  2.6563 -2.6293 -0.1241
18165TIP3   OH275985   0.564   6.493  15.750  0.2395  0.3034 -0.2672
18165TIP3    H175986   0.521   6.432  15.810  0.2073  1.8069  1.2552
18165TIP3    H275987   0.645   6.519  15.795  0.1738  1.5013 -0.8231
18166TIP3   OH275988   4.449   4.833   3.384 -0.2979  0.4665  0.1580
18166TIP3    H175989   4.384   4.806   3.318 -0.5841  0.4432  0.4485
18166TIP3    H275990   4.531   4.841   3.335 -0.4452  0.1477 -0.1430
18167TIP3   OH275991   6.216   2.411   1.478 -0.0073  0.5988  0.5228
18167TIP3    H175992   6.210   2.318   1.454 -0.1168  0.1135  2.3562
18167TIP3    H275993   6.225   2.457   1.394  4.2892 -1.3892 -0.2292
18168TIP3   OH275994   0.351   2.704  15.612 -0.4061 -0.2112 -0.1023
18168TIP3    H175995   0.367   2.798  15.619 -0.4591 -0.2213  0.1434
18168TIP3    H275996   0.424   2.672  15.558 -0.0138 -0.1360  0.3730
18169TIP3   OH275997   5.820   2.576  16.706  0.5552  0.0936  0.2236
18169TIP3    H175998   5.841   2.669  16.705 -0.1741  0.2792  1.5415
18169TIP3    H275999   5.801   2.555  16.614  1.8750  0.9606 -0.2616
18170TIP3   OH276000   5.631   1.013   2.548 -0.5316  0.5100 -0.2812
18170TIP3    H176001   5.559   0.961   2.513 -0.9547  0.0617  1.2507
18170TIP3    H276002   5.669   0.960   2.617 -0.6348  2.0082  0.9542
18171TIP3   OH276003   6.499   5.894  16.823 -0.4152 -0.0878  0.3112
18171TIP3    H176004   6.457   5.812  16.849 -1.5853 -0.0145 -1.2918
18171TIP3    H276005   6.467   5.910  16.734 -1.3490  2.8407  1.1112
18172TIP3   OH276006   4.761   4.237   4.280  0.5359  0.3278  0.1374
18172TIP3    H176007   4.668   4.262   4.279  0.6454  0.6944 -0.8074
18172TIP3    H276008   4.808   4.321   4.282  0.8577  0.1456  0.1682
18173TIP3   OH276009   6.214   2.326  14.712  0.2325 -0.4737 -0.0738
18173TIP3    H176010   6.122   2.342  14.689 -0.1816 -1.7496  0.6537
18173TIP3    H276011   6.259   2.322  14.627 -0.7263 -1.7733 -0.5491
18174TIP3   OH276012   6.395   1.706   6.000  0.0464 -0.6247 -0.8873
18174TIP3    H176013   6.388   1.618   6.035  0.4574  0.0022  0.8346
18174TIP3    H276014   6.409   1.762   6.077 -0.0036  0.9149 -1.9567
18175TIP3   OH276015   4.785   5.747   4.697 -0.8999  0.3403 -0.4033
18175TIP3    H176016   4.706   5.699   4.672 -1.1661  0.0583  0.9418
18175TIP3    H276017   4.753   5.823   4.746 -0.3295  0.1959  0.1955
18176TIP3   OH276018   1.766   0.512  12.027  0.1855 -0.1625  0.1211
18176TIP3    H176019   1.731   0.559  11.952  1.1148 -1.7002 -1.3334
18176TIP3    H276020   1.859   0.501  12.007 -0.0701 -2.9267  0.1858
18177TIP3   OH276021   4.342   3.979   0.929 -0.2974 -0.6347 -0.2414
18177TIP3    H176022   4.272   4.042   0.912 -0.0931 -0.4638 -0.4465
18177TIP3    H276023   4.421   4.022   0.898 -0.0031 -0.5565  0.6206
18178TIP3   OH276024   2.336   2.708   3.382  0.5132 -0.4169  0.5215
18178TIP3    H176025   2.429   2.691   3.367  0.2720 -1.6101  0.3180
18178TIP3    H276026   2.324   2.801   3.361  1.8362 -0.0346  1.4437
18179TIP3   OH276027   5.752   4.055   3.421 -0.5158 -0.1868 -0.1011
18179TIP3    H176028   5.740   3.992   3.492  2.1381 -0.9173 -0.2268
18179TIP3    H276029   5.730   4.007   3.341  1.8569 -1.1336 -0.2293
18180TIP3   OH276030   0.046   6.476   3.882 -0.4952  0.0938  0.0329
18180TIP3    H176031   0.126   6.525   3.862 -0.9343  0.9459  0.3367
18180TIP3    H276032   0.075   6.385   3.889  0.0046  0.0303 -2.4582
18181TIP3   OH276033   5.293   4.937  15.346  0.3458 -0.2396 -0.2155
18181TIP3    H176034   5.255   4.949  15.260  0.8807  1.2189 -0.2605
18181TIP3    H276035   5.383   4.908  15.328 -0.0587 -1.5807 -0.1258
18182TIP3   OH276036   4.354   4.783   2.147 -0.1950 -0.5939 -0.0566
18182TIP3    H176037   4.406   4.805   2.070  2.3503 -1.6053  1.2845
18182TIP3    H276038   4.298   4.859   2.162  2.7574  1.6717 -0.1027
18183TIP3   OH276039   6.468   3.476   5.191 -0.8241 -0.2019  0.3441
18183TIP3    H176040   6.505   3.564   5.188 -3.1850  0.7547 -2.0627
18183TIP3    H276041   6.542   3.419   5.168 -0.0486  1.4074 -1.2579
18184TIP3   OH276042   4.445   4.334   2.481 -0.1237 -0.3741  0.4132
18184TIP3    H176043   4.467   4.344   2.573 -1.0079  3.2247  0.2935
18184TIP3    H276044   4.523   4.362   2.434 -0.3565 -0.3204  0.0527
18185TIP3   OH276045   6.485   1.006  14.575  0.2238  0.1478 -0.8215
18185TIP3    H176046   6.535   1.086  14.591  1.9682 -1.1019  0.1636
18185TIP3    H276047   6.513   0.976  14.489  1.8333 -0.9750  0.0568
18186TIP3   OH276048   5.759   0.316  11.502  0.4032 -0.2798 -0.2601
18186TIP3    H176049   5.794   0.322  11.590 -1.1080 -1.3792  0.4536
18186TIP3    H276050   5.833   0.288  11.448  0.9760 -1.1147  0.9410
18187TIP3   OH276051   4.413   6.050  15.886  0.1375  0.1804  0.9155
18187TIP3    H176052   4.394   5.968  15.931  0.8866  0.2573  1.3704
18187TIP3    H276053   4.481   6.092  15.939  0.5994  0.5452  0.0437
18188TIP3   OH276054   2.590   6.420   2.861  0.7357  0.3007 -0.2065
18188TIP3    H176055   2.634   6.451   2.940 -1.5613  0.5679  0.9852
18188TIP3    H276056   2.574   6.327   2.876  1.4871  0.0434 -0.9347
18189TIP3   OH276057   2.312   3.594  15.700  0.7889  0.5546  0.2331
18189TIP3    H176058   2.216   3.591  15.705  0.6776  1.3426 -1.0566
18189TIP3    H276059   2.337   3.504  15.680  0.2484  0.4991 -0.2285
18190TIP3   OH276060   4.999   4.780   5.087  0.4910 -0.0186 -0.4678
18190TIP3    H176061   5.086   4.817   5.104 -0.0517  1.3380 -0.5197
18190TIP3    H276062   5.003   4.691   5.121  1.5283  0.4308  0.6073
18191TIP3   OH276063   3.568   0.063   2.979  0.6817 -0.4550 -0.3993
18191TIP3    H176064   3.614   0.127   2.924  0.3657  1.3608  1.3456
18191TIP3    H276065   3.628  -0.011   2.985  1.8770  0.4384 -1.0100
18192TIP3   OH276066   5.025   0.529   4.179  0.3345  0.6475  0.3582
18192TIP3    H176067   5.075   0.563   4.254  0.8143 -1.0714  0.8462
18192TIP3    H276068   5.029   0.599   4.114  2.8101  0.8303  0.6543
18193TIP3   OH276069   3.107   4.452  11.977 -0.5469  0.1364 -0.8542
18193TIP3    H176070   3.199   4.452  11.952 -0.4510  2.5041 -0.5419
18193TIP3    H276071   3.064   4.505  11.910 -1.3840  0.5849  0.0299
18194TIP3   OH276072   0.011   4.625  12.216  0.0357 -0.2826  0.0360
18194TIP3    H176073   0.046   4.614  12.128 -0.1062 -4.0832  0.3888
18194TIP3    H276074  -0.080   4.651  12.203  0.2229 -0.1107 -0.9292
18195TIP3   OH276075   6.362   0.091  12.948  0.2489 -0.3625 -0.1232
18195TIP3    H176076   6.353   0.048  12.863  1.6885  0.3586 -0.6666
18195TIP3    H276077   6.455   0.081  12.969 -0.1842 -0.8922  1.5604
18196TIP3   OH276078   1.571   0.315  15.637  0.5835  0.3617  0.1368
18196TIP3    H176079   1.654   0.294  15.681  1.4144  0.2653 -1.4585
18196TIP3    H276080   1.552   0.405  15.666 -0.6816 -0.8656  3.4070
18197TIP3   OH276081   2.683   2.209   4.420  0.3695  0.1082 -0.0108
18197TIP3    H176082   2.666   2.176   4.508 -0.2286 -2.1167 -0.9337
18197TIP3    H276083   2.598   2.240   4.389  0.5892  0.9367  0.2137
18198TIP3   OH276084   5.774   3.603   2.977  0.0173  0.0644 -0.0720
18198TIP3    H176085   5.700   3.601   3.037  1.1411 -0.3117  1.3176
18198TIP3    H276086   5.808   3.692   2.983 -0.1934  0.1797 -0.5582
18199TIP3   OH276087   1.876   1.195  12.897  0.3137 -0.0174  0.4192
18199TIP3    H176088   1.851   1.211  12.988  3.4376  0.0429  1.3022
18199TIP3    H276089   1.842   1.107  12.878 -0.9688  0.2518  1.3742
18200TIP3   OH276090   4.875   5.614   1.726 -0.0992 -0.3167  0.0872
18200TIP3    H176091   4.889   5.705   1.699  2.0399 -0.7774 -0.4463
18200TIP3    H276092   4.856   5.619   1.820 -1.1990  0.7558 -0.1722
18201TIP3   OH276093   2.832   1.510   4.447 -0.2495 -0.0023 -0.2260
18201TIP3    H176094   2.887   1.463   4.509 -0.6553 -1.0491 -0.6461
18201TIP3    H276095   2.748   1.520   4.493 -0.4575 -0.5227 -0.4836
18202TIP3   OH276096   2.492   1.872   4.426  0.1933 -0.5709  0.1310
18202TIP3    H176097   2.429   1.921   4.480  0.5245 -0.1059  0.1018
18202TIP3    H276098   2.554   1.836   4.489 -0.9839 -2.3609  0.3076
18203TIP3   OH276099   5.328   3.244   4.791  0.0222  0.2726 -0.3116
18203TIP3    H176100   5.319   3.167   4.735  3.4244 -0.3498 -0.1060
18203TIP3    H276101   5.286   3.315   4.741 -1.9967 -1.4124 -1.0730
18204TIP3   OH276102   1.285   1.474  11.557 -0.1382  0.1071  0.2165
18204TIP3    H176103   1.213   1.422  11.592  0.0835 -0.5425 -0.2710
18204TIP3    H276104   1.332   1.414  11.499 -2.4053  1.9787 -3.8014
18205TIP3   OH276105   0.369   1.563   1.491  0.4314 -0.1271  0.4180
18205TIP3    H176106   0.420   1.549   1.570  1.4770 -1.5407 -0.4906
18205TIP3    H276107   0.281   1.582   1.523  0.4293 -2.3883  1.9049
18206TIP3   OH276108   2.823   1.774  17.069  0.2086  0.1784  0.1398
18206TIP3    H176109   2.862   1.719  17.000  0.7290  0.1132  0.4760
18206TIP3    H276110   2.894   1.833  17.094 -0.4947  1.3018 -0.5282
18207TIP3   OH276111   6.352   6.580   0.504  0.5058 -0.2498 -0.9973
18207TIP3    H176112   6.295   6.566   0.428 -0.2761  0.5271 -0.5533
18207TIP3    H276113   6.346   6.674   0.522  0.9075 -0.3816 -0.1520
18208TIP3   OH276114   4.993   6.745   2.253 -0.1771  0.3282  0.2668
18208TIP3    H176115   4.978   6.686   2.328 -0.0137 -0.4083 -0.2784
18208TIP3    H276116   4.910   6.744   2.206 -0.3655  1.0062  0.5855
18209TIP3   OH276117   6.220   1.669  14.919 -0.4414 -0.0822  0.7736
18209TIP3    H176118   6.193   1.760  14.928 -1.9936 -0.5276  0.8785
18209TIP3    H276119   6.265   1.665  14.835 -2.1935  0.3646 -0.2072
18210TIP3   OH276120   2.945   1.911   6.727 -0.4223 -0.1562  0.0471
18210TIP3    H176121   2.951   2.006   6.727  0.3245 -0.1799 -2.4926
18210TIP3    H276122   2.980   1.884   6.812  1.0998  1.7295  0.0287
18211TIP3   OH276123   4.253   3.867   1.841 -0.1935 -0.3175 -0.0843
18211TIP3    H176124   4.334   3.822   1.815  0.2337 -0.7161  1.9034
18211TIP3    H276125   4.187   3.797   1.844  0.6302 -1.0352  3.7308
18212TIP3   OH276126   6.223   2.268   5.802 -0.1519  0.0706  0.0499
18212TIP3    H176127   6.205   2.316   5.721  1.2844 -2.4450 -1.8427
18212TIP3    H276128   6.138   2.232   5.828 -0.6028  0.7923 -0.4043
18213TIP3   OH276129   2.376   2.869   5.620  0.2566 -0.0531  0.6881
18213TIP3    H176130   2.439   2.939   5.637  2.2703 -1.3018 -1.2780
18213TIP3    H276131   2.293   2.914   5.610  0.8692  1.6867  2.9780
18214TIP3   OH276132   3.110   3.902   2.840  0.2782  0.2682 -0.0553
18214TIP3    H176133   3.188   3.889   2.893  0.0132  0.9951  0.5226
18214TIP3    H276134   3.125   3.985   2.794  0.4271 -0.2608 -0.9941
18215TIP3   OH276135   4.810   0.784   2.410 -0.5567  0.3259  0.0197
18215TIP3    H176136   4.848   0.700   2.384 -0.3307 -0.2014  1.9622
18215TIP3    H276137   4.866   0.815   2.481 -1.4033  1.4978  0.1983
18216TIP3   OH276138   1.796   4.427   0.704 -0.0655 -0.0842  0.6334
18216TIP3    H176139   1.884   4.421   0.741  0.4720  1.5656 -0.2973
18216TIP3    H276140   1.774   4.338   0.679  0.9694 -0.6623  1.7204
18217TIP3   OH276141   4.426   5.485  12.196 -0.6071 -0.2935  0.2529
18217TIP3    H176142   4.382   5.524  12.271 -0.5573 -3.3331  1.9476
18217TIP3    H276143   4.517   5.513  12.204 -0.3975 -1.4041  1.9123
18218TIP3   OH276144   0.468   5.244   1.645 -0.4924 -0.7465  0.0694
18218TIP3    H176145   0.454   5.294   1.726 -2.9497  0.3196 -0.9414
18218TIP3    H276146   0.380   5.215   1.620  0.4625 -2.5346 -1.2969
18219TIP3   OH276147   2.822   1.185   1.413 -0.2560 -0.8538  0.1574
18219TIP3    H176148   2.738   1.142   1.428 -1.1670  1.3325  1.5893
18219TIP3    H276149   2.863   1.189   1.499  1.2389 -1.7044 -0.4991
18220TIP3   OH276150   6.567   3.268  13.829  0.3472 -0.3281 -0.1814
18220TIP3    H176151   6.513   3.214  13.772 -0.4587  0.9100 -0.6090
18220TIP3    H276152   6.552   3.358  13.799  0.7197  0.2489  1.2985
18221TIP3   OH276153   5.473   4.204  12.675  0.1591  0.2859  0.1177
18221TIP3    H176154   5.452   4.208  12.581  0.6231 -0.9436 -0.0426
18221TIP3    H276155   5.561   4.242  12.682  0.3233 -0.0755 -0.0058
18222TIP3   OH276156   1.284   5.319  15.263  0.2785 -0.3831  0.5057
18222TIP3    H176157   1.228   5.283  15.332 -0.8409 -1.3186 -0.8647
18222TIP3    H276158   1.326   5.242  15.224 -0.0345  0.0141 -0.6431
18223TIP3   OH276159   4.925   5.688  12.786  0.7040  0.3214 -0.3561
18223TIP3    H176160   4.836   5.663  12.807  0.6703  0.0117 -0.8528
18223TIP3    H276161   4.974   5.678  12.868  0.0594  1.5186  0.1793
18224TIP3   OH276162   3.387   2.287   3.041  0.1523 -0.4843 -0.6258
18224TIP3    H176163   3.335   2.317   2.966 -0.2264 -0.1754 -0.2428
18224TIP3    H276164   3.402   2.366   3.093  0.4216 -0.6972 -0.3764
18225TIP3   OH276165   6.567   3.847  15.336  0.0667  0.3412 -0.4855
18225TIP3    H176166   6.518   3.792  15.275  0.7520 -1.6367  0.6915
18225TIP3    H276167   6.654   3.856  15.297  0.6716 -1.3677  0.4090
18226TIP3   OH276168   5.492   6.424   0.684 -0.0403 -0.3970 -0.0199
18226TIP3    H176169   5.540   6.461   0.758 -1.5587  0.8377  0.3710
18226TIP3    H276170   5.470   6.335   0.712 -0.1532 -0.1130  0.8265
18227TIP3   OH276171   1.352   2.057   1.907  0.0777 -0.0572 -0.2973
18227TIP3    H176172   1.324   1.966   1.922  0.0079 -0.0403 -0.3250
18227TIP3    H276173   1.275   2.109   1.929  0.1769  0.0062 -0.1001
18228TIP3   OH276174   4.622   2.253  13.578 -0.6464 -0.1732  0.8161
18228TIP3    H176175   4.594   2.339  13.609  0.7516 -0.5683  3.3243
18228TIP3    H276176   4.680   2.271  13.504 -0.2737  1.0514  1.4060
18229TIP3   OH276177   4.354   5.464  12.976 -0.5716  0.4172  0.1103
18229TIP3    H176178   4.324   5.380  13.009 -2.1737  1.7499  2.1257
18229TIP3    H276179   4.315   5.529  13.034 -0.2432  2.6363 -2.0486
18230TIP3   OH276180   2.245   4.155  10.282 -0.3583 -0.1628  0.1147
18230TIP3    H176181   2.331   4.114  10.274  0.1008  0.5484  1.2540
18230TIP3    H276182   2.220   4.141  10.374 -0.8315  0.8605  0.1491
18231TIP3   OH276183   5.829   2.951  10.796 -0.0900  0.0323 -0.4789
18231TIP3    H176184   5.748   2.921  10.838  0.3476  1.0800  1.1525
18231TIP3    H276185   5.892   2.881  10.816  0.2902  0.8269  1.2358
18232TIP3   OH276186   0.007   6.398   1.799 -0.4854 -0.1975  0.1148
18232TIP3    H176187  -0.057   6.358   1.741 -0.2011  0.8630 -0.9442
18232TIP3    H276188   0.042   6.325   1.850 -0.5799 -1.1836 -1.2015
18233TIP3   OH276189   6.589   2.016   1.783  0.0676  0.3623 -0.3451
18233TIP3    H176190   6.651   2.085   1.755 -0.5817  0.3718 -1.7898
18233TIP3    H276191   6.503   2.058   1.779 -0.2602 -0.3251 -0.5156
18234TIP3   OH276192   0.577   3.661   6.547  0.2355 -0.1034  0.3156
18234TIP3    H176193   0.491   3.694   6.571  0.0860 -0.7797  0.7464
18234TIP3    H276194   0.611   3.723   6.483 -0.5947  0.1324  0.1116
18235TIP3   OH276195   4.521   4.862   4.686 -0.3074 -0.2818 -0.1034
18235TIP3    H176196   4.546   4.954   4.691  0.5672 -0.5238  0.0249
18235TIP3    H276197   4.527   4.840   4.593  0.9694 -0.6158  0.0538
18236TIP3   OH276198   3.921   2.880   1.665 -0.2266  0.2090 -0.0314
18236TIP3    H176199   3.980   2.819   1.710 -0.6008  1.0201  1.6017
18236TIP3    H276200   3.833   2.851   1.689 -0.4970 -0.5851 -1.9122
18237TIP3   OH276201   3.234   2.047  11.207 -0.3835 -0.2330 -0.1855
18237TIP3    H176202   3.144   2.016  11.197  0.6782 -3.2504 -0.9888
18237TIP3    H276203   3.240   2.122  11.148 -1.9831 -0.8530 -1.1752
18238TIP3   OH276204   0.386   0.972  14.408  0.2678  0.1124  0.0728
18238TIP3    H176205   0.319   0.904  14.400 -0.2529  0.7936 -1.4150
18238TIP3    H276206   0.353   1.045  14.356  0.4715  1.7993  2.2308
18239TIP3   OH276207   6.097   3.346  10.463 -0.5851  0.2151  0.6194
18239TIP3    H176208   6.169   3.285  10.478 -0.7232  0.2451  1.4361
18239TIP3    H276209   6.023   3.290  10.439  0.4522  0.3751 -3.2487
18240TIP3   OH276210   3.237   3.954   6.531 -0.2667  0.6038  0.2767
18240TIP3    H176211   3.278   3.869   6.547  1.0162  1.2464  0.4577
18240TIP3    H276212   3.181   3.968   6.607 -1.0217 -0.3922 -0.0841
18241TIP3   OH276213   5.903   3.901  15.067 -0.0525  0.0893 -0.1345
18241TIP3    H176214   5.845   3.904  14.991  1.5449  1.4703 -1.3587
18241TIP3    H276215   5.938   3.812  15.067 -0.4695 -0.0788 -0.7317
18242TIP3   OH276216   3.431   4.203  15.284 -0.0799  0.1643 -0.3816
18242TIP3    H176217   3.475   4.210  15.369 -1.2256 -0.6613  0.2825
18242TIP3    H276218   3.359   4.142  15.299  0.3140 -0.7892 -2.1981
18243TIP3   OH276219   6.494   1.144   1.911  0.5204  0.6169  0.6026
18243TIP3    H176220   6.491   1.073   1.975 -1.3390  0.2672  0.1427
18243TIP3    H276221   6.487   1.100   1.826 -0.3854  1.3285  0.3023
18244TIP3   OH276222   0.369   6.734  13.289  0.1843  0.0876  0.4527
18244TIP3    H176223   0.351   6.800  13.356  0.4985 -0.4424  1.0587
18244TIP3    H276224   0.429   6.672  13.331  2.9277  1.4502 -1.2690
18245TIP3   OH276225   1.226   6.576   3.491  0.3385 -0.5940 -0.8280
18245TIP3    H176226   1.308   6.532   3.470 -0.1968 -2.0683  0.0941
18245TIP3    H276227   1.248   6.634   3.564  0.3053 -1.9165  0.2518
18246TIP3   OH276228   0.766   1.010   1.744  0.1881 -0.4067 -0.0444
18246TIP3    H176229   0.757   1.043   1.655 -1.5889  1.2920  0.7284
18246TIP3    H276230   0.691   0.952   1.756  0.1123 -0.1863  0.5458
18247TIP3   OH276231   1.040   3.293   2.888 -0.0828  0.2670 -0.1240
18247TIP3    H176232   0.954   3.325   2.864  0.5743  0.5422 -2.1703
18247TIP3    H276233   1.066   3.235   2.817  0.4460 -1.6785  1.5987
18248TIP3   OH276234   1.625   6.131   4.675 -0.0205 -0.2342 -0.1593
18248TIP3    H176235   1.538   6.144   4.712 -0.3936 -1.1641 -0.6945
18248TIP3    H276236   1.684   6.178   4.735 -0.7956 -0.2822  0.6481
18249TIP3   OH276237   4.255   1.630  16.895 -0.2818  0.4220  0.4601
18249TIP3    H176238   4.349   1.613  16.887 -0.1129  1.5884 -0.1737
18249TIP3    H276239   4.239   1.704  16.836 -1.5251  0.4867  0.8642
18250TIP3   OH276240   3.163   1.969  16.834  0.3107 -0.6022  0.1760
18250TIP3    H176241   3.227   1.907  16.870 -1.2474 -1.6818  1.1895
18250TIP3    H276242   3.143   2.027  16.907  1.4338  0.8545 -0.6485
18251TIP3   OH276243   1.957   5.873  12.047 -0.0066  0.1281 -0.3746
18251TIP3    H176244   1.954   5.822  12.128 -1.7154  1.3797  0.3873
18251TIP3    H276245   1.994   5.957  12.073  0.8993 -0.0065 -1.2147
18252TIP3   OH276246   5.753   5.935  14.547  0.0712  0.4578 -0.1704
18252TIP3    H176247   5.718   5.909  14.462  0.5613 -0.9994  0.0514
18252TIP3    H276248   5.691   5.999  14.580 -0.4979  0.5153 -1.3220
18253TIP3   OH276249   5.528   4.434  13.485  0.1352 -0.0806 -0.5969
18253TIP3    H176250   5.500   4.376  13.556  0.7915 -0.3104 -0.5199
18253TIP3    H276251   5.519   4.382  13.406 -2.2215  0.7330 -0.8941
18254TIP3   OH276252   6.452   2.859  13.812 -0.2207  0.4428  0.3612
18254TIP3    H176253   6.436   2.911  13.891  1.8963  0.9262  0.4984
18254TIP3    H276254   6.544   2.876  13.790  0.2712 -2.6111 -0.0853
18255TIP3   OH276255   3.100   1.653  10.550  0.2626  0.0397  0.3820
18255TIP3    H176256   3.005   1.659  10.546  0.2768 -0.0705 -0.1655
18255TIP3    H276257   3.129   1.742  10.572 -0.0383 -0.2592  2.0984
18256TIP3   OH276258   5.903   3.997  14.561  0.2974 -0.7270 -0.1839
18256TIP3    H176259   5.854   3.962  14.636  0.2015 -0.2741 -0.0336
18256TIP3    H276260   5.836   4.010  14.493 -0.0892  1.4602  0.5720
18257TIP3   OH276261   5.910   3.003   2.489  0.6757 -0.2585 -0.6675
18257TIP3    H176262   5.934   3.075   2.431 -1.4968 -0.2162 -1.5787
18257TIP3    H276263   5.924   2.924   2.438  0.9633 -0.3503 -0.4458
18258TIP3   OH276264   1.076   2.727   1.536 -0.0398  0.5726 -0.9041
18258TIP3    H176265   1.032   2.809   1.558 -0.3292 -0.0984  1.1141
18258TIP3    H276266   1.170   2.747   1.544 -0.0562  1.0986 -1.9182
18259TIP3   OH276267   3.111   2.506  12.137 -0.0355 -0.1426 -0.2036
18259TIP3    H176268   3.149   2.442  12.196  0.4435 -0.7257 -1.1250
18259TIP3    H276269   3.083   2.455  12.061  1.1866  0.8483 -1.3466
18260TIP3   OH276270   1.852   2.059  13.683 -0.1526 -1.1519  0.3321
18260TIP3    H176271   1.930   2.037  13.633  0.6856 -0.7267  1.4281
18260TIP3    H276272   1.806   2.122  13.628  1.4427  0.3479  0.6772
18261TIP3   OH276273   2.869   4.885   3.195  0.3447 -0.1398  0.4073
18261TIP3    H176274   2.945   4.840   3.157  1.3390  1.0346  0.9781
18261TIP3    H276275   2.811   4.814   3.224  1.6012 -1.0413  0.7230
18262TIP3   OH276276   0.139   5.901  12.470 -0.1528 -0.6085 -0.0979
18262TIP3    H176277   0.134   5.832  12.537 -0.0570 -0.3076  0.2175
18262TIP3    H276278   0.220   5.881  12.423  0.5448  0.0402  0.8170
18263TIP3   OH276279   0.306   5.115  17.284  0.0243 -0.0092  0.1425
18263TIP3    H176280   0.372   5.123  17.215  0.7725  0.3787  0.8918
18263TIP3    H276281   0.268   5.028  17.271 -0.3880  0.3696 -1.2298
18264TIP3   OH276282   0.862   4.727   0.223  0.0103 -0.1407  0.1388
18264TIP3    H176283   0.769   4.741   0.241 -0.0492  0.6574 -0.7650
18264TIP3    H276284   0.864   4.657   0.158  0.0406 -0.1889  0.1919
18265TIP3   OH276285   2.968   4.468  13.112  0.6183  0.3934 -0.1143
18265TIP3    H176286   2.926   4.460  13.198  0.2415  0.7534 -0.2649
18265TIP3    H276287   2.976   4.562  13.097  3.3875  0.3739  0.8392
18266TIP3   OH276288   2.054   6.631  11.198 -0.6455  0.2895  0.2625
18266TIP3    H176289   2.025   6.714  11.234  0.8060  0.0575  2.0508
18266TIP3    H276290   2.150   6.636  11.199 -0.5122 -1.8041  1.4656
18267TIP3   OH276291   5.164   5.916  13.126 -0.6118 -0.3639 -0.2160
18267TIP3    H176292   5.226   5.891  13.057 -0.0412  0.2069  0.0730
18267TIP3    H276293   5.078   5.900  13.089 -0.2946 -4.5622  0.6460
18268TIP3   OH276294   5.212   4.938   0.513 -0.2110  0.3950  0.1191
18268TIP3    H176295   5.124   4.906   0.533  0.1911 -1.5316 -1.1337
18268TIP3    H276296   5.206   4.970   0.423  0.0302  1.6135  0.5172
18269TIP3   OH276297   0.159   1.877   0.016 -0.0393 -0.1303 -0.7642
18269TIP3    H176298   0.220   1.918  -0.046  0.7192  0.9207  0.6333
18269TIP3    H276299   0.122   1.951   0.064 -1.1314 -0.8977 -0.4405
18270TIP3   OH276300   4.999   3.771  14.360  0.1150 -0.1764 -0.0505
18270TIP3    H176301   4.913   3.747  14.325  0.3234  0.8004 -1.2241
18270TIP3    H276302   4.987   3.859  14.394 -0.1981 -1.2357  2.7708
18271TIP3   OH276303   1.701   1.122   0.125  0.2633  0.5160  0.3161
18271TIP3    H176304   1.674   1.200   0.174  0.0733  0.3289  0.5081
18271TIP3    H276305   1.701   1.052   0.189  1.4439  0.5543  0.3684
18272TIP3   OH276306   5.312   3.999   1.915 -0.3245  0.5995  0.1176
18272TIP3    H176307   5.264   3.944   1.976  0.8295 -0.1961  0.3341
18272TIP3    H276308   5.245   4.051   1.871 -1.2284  0.6568  1.5325
18273TIP3   OH276309   0.025   4.899   0.200 -0.1693 -0.1410 -0.3127
18273TIP3    H176310  -0.050   4.958   0.191  1.2695  1.9326  0.8213
18273TIP3    H276311   0.001   4.840   0.272 -0.9772  0.0737 -0.4055
18274TIP3   OH276312   1.792   4.303  15.871 -0.0787  0.5082 -0.6011
18274TIP3    H176313   1.881   4.272  15.891 -0.3688 -0.4346 -0.7710
18274TIP3    H276314   1.763   4.346  15.952  0.9541  1.8123 -0.9065
18275TIP3   OH276315   2.753   0.397  16.846  0.3214  0.0759 -0.0205
18275TIP3    H176316   2.758   0.403  16.941 -3.0161  0.9702  0.1763
18275TIP3    H276317   2.661   0.376  16.828  0.5663  1.3410 -3.1039
18276TIP3   OH276318   5.019   1.317   3.700  0.6066  0.2537  0.0603
18276TIP3    H176319   5.098   1.365   3.727  1.4819 -0.4080 -1.2408
18276TIP3    H276320   4.986   1.366   3.625  1.0991 -0.7714 -0.8314
18277TIP3   OH276321   1.672   5.318  15.483  0.1484 -0.1115 -0.1408
18277TIP3    H176322   1.597   5.376  15.471 -0.3615 -0.0019  3.1166
18277TIP3    H276323   1.748   5.374  15.467 -0.4113  0.2478 -1.6051
18278TIP3   OH276324   0.176   0.632   1.984 -0.5865 -0.2940  0.2135
18278TIP3    H176325   0.178   0.641   1.889  1.4251  1.4494  0.3811
18278TIP3    H276326   0.262   0.662   2.013 -1.4635  0.0061  2.6482
18279TIP3   OH276327   2.908   2.643   1.099 -0.3641  0.1979  0.4805
18279TIP3    H176328   2.855   2.645   1.020 -0.3948 -1.7790  0.4286
18279TIP3    H276329   2.985   2.592   1.075 -0.5027 -0.6514  1.7903
18280TIP3   OH276330   4.792   3.189  15.072 -0.2285 -0.2087 -0.1768
18280TIP3    H176331   4.865   3.193  15.010 -0.2020 -2.0589 -0.3125
18280TIP3    H276332   4.752   3.275  15.068  0.0995 -0.1342 -2.3662
18281TIP3   OH276333   6.465   3.959   4.379  0.8001  0.6612 -0.4173
18281TIP3    H176334   6.537   4.019   4.397 -0.9835  3.1167 -1.2144
18281TIP3    H276335   6.441   3.976   4.288  1.4592 -2.6028 -1.2302
18282TIP3   OH276336   1.851   6.304   0.239 -0.0803  0.3491  0.2010
18282TIP3    H176337   1.800   6.254   0.175  1.3887  0.1012 -0.7781
18282TIP3    H276338   1.851   6.393   0.205  1.4782  0.0368 -0.6260
18283TIP3   OH276339   2.920   3.403   0.007  0.0129 -0.5469 -0.1594
18283TIP3    H176340   2.913   3.438   0.095 -1.0367  0.7862 -0.7621
18283TIP3    H276341   2.995   3.450  -0.031  0.2716 -0.8973 -0.0827
18284TIP3   OH276342   1.541   6.464   3.733 -0.4811  0.1436 -0.1018
18284TIP3    H176343   1.538   6.437   3.824  1.8043 -1.1410 -0.3778
18284TIP3    H276344   1.531   6.559   3.735 -5.1639 -0.2134  1.1168
18285TIP3   OH276345   5.171   3.733   1.012  0.0962  0.2103  0.2858
18285TIP3    H176346   5.128   3.814   1.037  1.5724  0.8497  0.8451
18285TIP3    H276347   5.173   3.681   1.093 -0.2719 -0.1072  0.0890
18286TIP3   OH276348   3.943   5.722   5.127  0.2160 -0.5860 -0.2222
18286TIP3    H176349   3.851   5.709   5.105  0.6729 -2.9046 -0.9138
18286TIP3    H276350   3.987   5.731   5.042  0.4567  2.1418  0.1326
18287TIP3   OH276351   3.354   2.243   4.713 -0.6462  0.3299 -0.2556
18287TIP3    H176352   3.389   2.156   4.692 -0.5471  0.0942  0.8521
18287TIP3    H276353   3.407   2.273   4.786 -0.5234  1.4363 -0.7975
18288TIP3   OH276354   0.276   2.616   5.143 -0.1982 -0.6641  0.4388
18288TIP3    H176355   0.215   2.543   5.132 -0.1559 -0.6813  0.3168
18288TIP3    H276356   0.355   2.589   5.095 -0.0689 -0.6733  0.6573
18289TIP3   OH276357   5.277   3.828  17.147 -1.1630  0.0002  0.5977
18289TIP3    H176358   5.362   3.853  17.111 -1.3237  0.1046  0.2881
18289TIP3    H276359   5.270   3.735  17.129 -1.4664  0.1554 -0.1038
18290TIP3   OH276360   6.604   5.889   0.099 -0.1937  0.5063 -0.0529
18290TIP3    H176361   6.530   5.835   0.127 -1.4138  1.8947 -0.5283
18290TIP3    H276362   6.580   5.919   0.011  1.6622 -0.3040 -0.8658
18291TIP3   OH276363   0.526   2.551  17.195 -0.0673 -0.0997 -0.4182
18291TIP3    H176364   0.436   2.537  17.225 -1.5025 -0.3849 -4.5714
18291TIP3    H276365   0.531   2.646  17.182 -0.4603 -0.2791 -2.0400
18292TIP3   OH276366   3.657   0.013   5.738 -0.1016  0.5435  0.0859
18292TIP3    H176367   3.623  -0.032   5.816 -0.5648  0.9514  0.1222
18292TIP3    H276368   3.752   0.010   5.748 -0.1525  0.3772  0.5443
18293TIP3   OH276369   0.066   2.765   0.973  0.2957 -0.7558  0.0535
18293TIP3    H176370   0.001   2.738   1.039 -0.0185 -0.8529 -0.2931
18293TIP3    H276371   0.127   2.821   1.021 -0.7988  0.4193  0.0938
18294TIP3   OH276372   1.453   5.386  16.194 -0.2938  0.0328 -0.0259
18294TIP3    H176373   1.392   5.316  16.176  0.3699 -1.1976  2.2669
18294TIP3    H276374   1.453   5.394  16.290 -0.2188  3.0265 -0.2256
18295TIP3   OH276375   3.314   5.813   1.060 -0.2760 -0.3024  0.4733
18295TIP3    H176376   3.264   5.866   1.121  0.6444 -0.4659  1.3940
18295TIP3    H276377   3.293   5.848   0.974 -1.4316  0.0634  0.8938
18296TIP3   OH276378   2.086   4.331  12.336  0.3395  0.0243  0.8177
18296TIP3    H176379   2.077   4.247  12.291 -1.6293 -0.4573  2.0242
18296TIP3    H276380   2.127   4.389  12.272 -1.2452 -0.9849 -1.1570
18297TIP3   OH276381   3.857   0.201  11.667 -0.5362  0.0457 -0.4014
18297TIP3    H176382   3.847   0.204  11.572  0.7836 -2.4523 -0.6591
18297TIP3    H276383   3.941   0.245  11.683 -0.5980  0.1744 -0.4328
18298TIP3   OH276384   6.387   3.386  11.346  0.8461  0.0399 -0.0329
18298TIP3    H176385   6.333   3.437  11.406 -1.3195 -1.2025 -0.8828
18298TIP3    H276386   6.427   3.319  11.400 -0.4114 -0.5423  0.1871
18299TIP3   OH276387   1.392   5.266   3.260 -0.0117 -0.5905 -0.2171
18299TIP3    H176388   1.338   5.189   3.243 -0.1044 -0.2080 -1.6962
18299TIP3    H276389   1.391   5.275   3.356 -1.8044 -1.1305 -0.1717
18300TIP3   OH276390   3.159   2.599  15.862 -0.0926  0.5378 -0.1558
18300TIP3    H176391   3.250   2.571  15.874  0.3794  2.2132  0.2374
18300TIP3    H276392   3.121   2.531  15.806  1.4739 -0.0197 -0.5788
18301TIP3   OH276393   4.884   5.462  15.568  0.5449 -0.5111 -0.0315
18301TIP3    H176394   4.865   5.399  15.637 -0.4704  0.5111  0.6573
18301TIP3    H276395   4.825   5.439  15.496  0.2712 -0.4447  0.1698
18302TIP3   OH276396   1.716   0.197   0.976 -0.7975  0.3739 -0.1311
18302TIP3    H176397   1.691   0.153   0.895 -1.2265 -1.0342  0.7499
18302TIP3    H276398   1.772   0.134   1.021 -0.3810  1.2357  0.5834
18303TIP3   OH276399   5.091   2.645  15.089  0.7095 -0.2319  0.1944
18303TIP3    H176400   5.002   2.643  15.052  0.8921 -1.4960 -0.1741
18303TIP3    H276401   5.079   2.626  15.182  0.4996  0.5828  0.3407
18304TIP3   OH276402   1.551   2.916  14.228  0.0726 -0.1236 -0.5158
18304TIP3    H176403   1.536   2.846  14.292  2.4948 -1.7431 -1.6724
18304TIP3    H276404   1.631   2.959  14.258 -2.1755  3.2187  1.0430
18305TIP3   OH276405   0.607   3.127   1.031  0.8071 -0.4125 -0.1661
18305TIP3    H176406   0.597   3.205   1.086  0.3080 -0.1568 -0.6165
18305TIP3    H276407   0.658   3.157   0.957 -1.9551  0.2694 -1.8793
18306TIP3   OH276408   3.392   1.070   2.611 -0.1359  0.4089  0.3787
18306TIP3    H176409   3.366   1.089   2.521  0.3173 -1.3466 -0.1565
18306TIP3    H276410   3.430   0.982   2.607  2.7321  1.4982  1.7201
18307TIP3   OH276411   4.450   5.344  13.326 -0.2298  0.4583  0.5785
18307TIP3    H176412   4.543   5.366  13.313  0.0857 -1.1827 -0.0365
18307TIP3    H276413   4.416   5.333  13.237 -0.6176 -0.5267  0.8459
18308TIP3   OH276414   2.780   1.458   0.102  0.1744 -0.1046 -0.3514
18308TIP3    H176415   2.744   1.434   0.016 -1.4330  0.7537  0.0456
18308TIP3    H276416   2.734   1.540   0.124 -1.4445 -1.7159  2.5382
18309TIP3   OH276417   0.634   5.750   5.838  0.2613  0.1580  0.3383
18309TIP3    H176418   0.728   5.756   5.856  0.3415  0.9267 -0.3436
18309TIP3    H276419   0.592   5.773   5.921  0.6565  1.8317  0.0814
18310TIP3   OH276420   5.792   4.827  15.531 -0.2953  0.5646 -0.2088
18310TIP3    H176421   5.738   4.830  15.610 -0.2241 -0.6431 -0.1092
18310TIP3    H276422   5.785   4.737  15.500  1.0098  0.6083 -0.6596
18311TIP3   OH276423   4.745   3.249   5.294  0.1087 -0.1214  0.1745
18311TIP3    H176424   4.673   3.278   5.349 -2.5529 -1.2685 -2.5948
18311TIP3    H276425   4.812   3.317   5.304 -0.4373 -0.0641  4.3801
18312TIP3   OH276426   3.766   2.093   0.289 -0.3128 -0.0873  0.4368
18312TIP3    H176427   3.793   2.176   0.252  1.3116 -0.4473  0.7597
18312TIP3    H276428   3.712   2.117   0.365 -0.7211  0.6528 -0.0835
18313TIP3   OH276429   6.599   2.862  12.115  0.4261  0.0330 -0.4806
18313TIP3    H176430   6.646   2.852  12.033 -1.0283 -1.2553 -1.1766
18313TIP3    H276431   6.563   2.951  12.111  1.4466  0.4513 -0.6345
18314TIP3   OH276432   2.034   4.425   0.822 -0.1951  0.0696 -0.3359
18314TIP3    H176433   2.109   4.383   0.864 -0.7466 -1.9698 -1.3402
18314TIP3    H276434   2.023   4.507   0.870  2.4398  0.2401  0.0608
18315TIP3   OH276435   3.265   1.153   4.542 -0.5542 -0.0669 -0.2369
18315TIP3    H176436   3.279   1.185   4.453 -0.3707  1.3712  0.2801
18315TIP3    H276437   3.303   1.066   4.543  1.6108  0.8281 -0.9282
18316TIP3   OH276438   1.332   2.695  10.699 -0.2924 -0.9146 -0.1344
18316TIP3    H176439   1.346   2.675  10.607  0.4710 -0.9390 -0.0136
18316TIP3    H276440   1.333   2.610  10.743 -2.1402 -1.0337 -0.2948
18317TIP3   OH276441   2.334   5.942   2.481  0.6384 -0.1118 -0.1112
18317TIP3    H176442   2.392   6.008   2.519  1.3112  0.0270 -1.3492
18317TIP3    H276443   2.284   5.990   2.414 -1.7084  0.0248  1.6746
18318TIP3   OH276444   1.171   4.332   1.248 -0.0377  0.4417  0.2735
18318TIP3    H176445   1.191   4.239   1.235  1.2772  0.7652 -0.0189
18318TIP3    H276446   1.139   4.337   1.338  1.1212 -0.1030  0.7236
18319TIP3   OH276447   6.351   1.064  13.370 -0.4145  0.1140  0.4109
18319TIP3    H176448   6.410   1.054  13.296 -0.4169 -0.4934  0.4890
18319TIP3    H276449   6.328   0.974  13.395 -2.3719  0.3465 -0.4273
18320TIP3   OH276450   0.442   4.362   5.354 -0.4296 -0.0835 -0.2275
18320TIP3    H176451   0.398   4.427   5.300  0.5785  1.5942  0.9241
18320TIP3    H276452   0.501   4.317   5.293 -0.2569  0.9061 -0.8122
18321TIP3   OH276453   2.734   1.925  11.628  0.0492 -0.3625 -0.7097
18321TIP3    H176454   2.642   1.900  11.635  0.1558 -0.1331  2.0427
18321TIP3    H276455   2.746   1.947  11.536 -2.4417 -1.1601 -1.2605
18322TIP3   OH276456   0.338   0.822   0.342  0.3001 -0.3526 -0.3514
18322TIP3    H176457   0.418   0.770   0.347  1.8846  2.0304 -0.2201
18322TIP3    H276458   0.338   0.874   0.423 -0.8774  0.3452 -0.7895
18323TIP3   OH276459   5.083   5.805   4.820  0.4436  0.4966  0.1214
18323TIP3    H176460   4.996   5.842   4.809  0.6627  1.1209  0.4522
18323TIP3    H276461   5.131   5.833   4.743 -0.0834 -1.1259 -0.8100
18324TIP3   OH276462   0.046   4.185   5.555 -0.1190 -0.3465  0.2095
18324TIP3    H176463  -0.031   4.242   5.558  1.0179  1.1708  1.0292
18324TIP3    H276464   0.034   4.134   5.474 -0.9850  1.2920 -0.7340
18325TIP3   OH276465   3.910   2.435  11.621 -0.1772 -0.2520  0.7315
18325TIP3    H176466   3.976   2.483  11.571  1.7579 -1.7807  1.7212
18325TIP3    H276467   3.850   2.401  11.555 -0.5343  1.9536 -0.1148
18326TIP3   OH276468   4.388   5.315   0.648 -0.0651  0.1875  0.0581
18326TIP3    H176469   4.316   5.270   0.692  0.6292  0.1299  1.1621
18326TIP3    H276470   4.437   5.246   0.603 -0.9536  0.2863 -1.0694
18327TIP3   OH276471   5.379   5.362   1.924  0.5335 -0.2192  0.4215
18327TIP3    H176472   5.459   5.376   1.975  0.3120 -1.1756  1.0391
18327TIP3    H276473   5.309   5.366   1.988  0.0092  1.3983 -0.2375
18328TIP3   OH276474   5.505   3.655  13.994  0.1022 -0.7476 -0.0557
18328TIP3    H176475   5.524   3.612  14.077  0.4582  2.1831  1.4679
18328TIP3    H276476   5.476   3.743  14.019 -1.6429 -0.4244 -2.9670
18329TIP3   OH276477   0.392   5.051   1.080  0.0803 -0.1316 -0.1752
18329TIP3    H176478   0.448   5.126   1.097 -1.1620  1.2434 -1.9876
18329TIP3    H276479   0.448   4.989   1.033  0.3379  0.8815 -1.2214
18330TIP3   OH276480   4.371   6.364   2.437  0.0566 -0.2120 -0.3608
18330TIP3    H176481   4.429   6.387   2.510 -0.1448  0.7387 -0.5003
18330TIP3    H276482   4.309   6.301   2.474  0.2878 -0.1424  0.1486
18331TIP3   OH276483   4.051   2.685  13.755  0.0086 -0.3509 -0.4695
18331TIP3    H176484   4.059   2.686  13.660 -0.8836 -1.5039 -0.5804
18331TIP3    H276485   4.137   2.711  13.787  0.5611 -0.7414 -1.5958
18332TIP3   OH276486   5.026   4.624   3.101 -0.6356  0.6387 -0.1576
18332TIP3    H176487   4.986   4.579   3.026 -1.4164  1.0985 -0.0160
18332TIP3    H276488   5.005   4.716   3.088  0.5267  0.9166 -0.1694
18333TIP3   OH276489   6.343   2.767   4.088 -0.5636  0.4510  0.7415
18333TIP3    H176490   6.318   2.757   4.180  0.3788 -1.5044  0.8196
18333TIP3    H276491   6.262   2.795   4.044 -1.5163 -0.4732  1.8548
18334TIP3   OH276492   5.766   4.448   5.682  0.4920 -0.1876 -0.0153
18334TIP3    H176493   5.671   4.456   5.682  0.4984  0.1030  2.9933
18334TIP3    H276494   5.783   4.356   5.662 -0.4329 -0.4587  0.4785
18335TIP3   OH276495   3.602   6.032  12.733  0.0192 -0.1031  0.5352
18335TIP3    H176496   3.654   6.011  12.810 -0.0942 -2.3458  0.0431
18335TIP3    H276497   3.521   5.982  12.745 -0.5913  0.6640 -0.3362
18336TIP3   OH276498   5.009   0.968  14.396 -0.2238  0.2359 -0.4372
18336TIP3    H176499   5.004   0.886  14.446 -0.7791  1.9024  2.3127
18336TIP3    H276500   4.925   0.973  14.351 -1.0997  0.3486  1.1561
18337TIP3   OH276501   0.754   2.650   1.673 -0.1533 -0.0434 -0.0956
18337TIP3    H176502   0.769   2.742   1.653 -1.7618  0.1821 -0.3269
18337TIP3    H276503   0.782   2.603   1.594  0.2353  0.2852 -0.1521
18338TIP3   OH276504   0.351   3.069  16.230 -0.2584 -0.0436 -0.6822
18338TIP3    H176505   0.337   3.036  16.319  3.4317 -0.4238 -0.1319
18338TIP3    H276506   0.326   3.161  16.233 -2.5503 -0.6766  0.0566
18339TIP3   OH276507   0.837   0.298  16.019  0.2334 -0.1245 -0.6844
18339TIP3    H176508   0.924   0.317  16.055 -0.2605 -2.1309  1.7185
18339TIP3    H276509   0.849   0.218  15.968 -0.3190 -0.7812  0.2041
18340TIP3   OH276510   6.021   2.218  12.611  0.0182  0.2450  0.2894
18340TIP3    H176511   6.106   2.255  12.587  0.8972 -1.4128  0.7811
18340TIP3    H276512   6.039   2.166  12.689 -1.4972  0.0630  0.5306
18341TIP3   OH276513   2.874   0.973  12.284  0.2509 -0.1191  0.4512
18341TIP3    H176514   2.884   0.921  12.204 -0.6412 -1.4341  1.1589
18341TIP3    H276515   2.816   0.920  12.339 -1.8279  2.2870  0.6562
18342TIP3   OH276516   4.213   1.986  11.585  0.4876  0.4624 -0.5234
18342TIP3    H176517   4.225   1.917  11.650 -2.0505 -0.8677 -1.3805
18342TIP3    H276518   4.244   1.948  11.503 -2.2458 -0.2673 -1.2813
18343TIP3   OH276519   5.582   2.086   3.487 -0.1677 -0.4032 -0.2377
18343TIP3    H176520   5.493   2.111   3.463  0.4363  1.0589 -1.0404
18343TIP3    H276521   5.593   2.121   3.576 -0.0970  0.2400 -0.4914
18344TIP3   OH276522   1.517   6.584  16.065 -0.3905 -0.6210  0.0890
18344TIP3    H176523   1.544   6.557  15.977 -0.0839  0.1785 -0.0688
18344TIP3    H276524   1.598   6.583  16.116 -0.3336  0.1791  0.0288
18345TIP3   OH276525   4.532   0.878   1.927  0.1717 -0.0394  0.1687
18345TIP3    H176526   4.452   0.874   1.874  1.6906  1.7226 -2.3578
18345TIP3    H276527   4.603   0.871   1.864  2.0619 -0.8837  2.3200
18346TIP3   OH276528   2.646   4.237  15.622 -0.1047  0.6423  0.6884
18346TIP3    H176529   2.651   4.237  15.526 -0.9740  0.8525  0.6367
18346TIP3    H276530   2.674   4.149  15.647  1.6888  1.1099  0.3394
18347TIP3   OH276531   0.105   2.874   5.712  0.0043  0.9161  0.2003
18347TIP3    H176532   0.115   2.925   5.793  1.0918  0.7574  0.1834
18347TIP3    H276533   0.154   2.793   5.728 -3.2709 -0.9846  0.9037
18348TIP3   OH276534   1.572   5.624  14.856  0.0671 -0.4478 -0.4967
18348TIP3    H176535   1.515   5.617  14.780 -0.0904  0.4526 -0.4704
18348TIP3    H276536   1.660   5.622  14.821 -0.0086  1.3960 -0.8581
18349TIP3   OH276537   0.233   4.667  14.448 -0.1598 -0.1810  0.5587
18349TIP3    H176538   0.283   4.712  14.516  0.1525 -0.1300  0.3003
18349TIP3    H276539   0.299   4.619  14.398 -0.5477 -1.3128  1.1201
18350TIP3   OH276540   3.180   6.339  12.652  0.0692  0.0991  0.6773
18350TIP3    H176541   3.264   6.381  12.672 -0.5552  0.6186  2.2407
18350TIP3    H276542   3.171   6.348  12.557  0.7786  1.9682  0.7640
18351TIP3   OH276543   5.301   1.538  14.664  0.9513  0.5528 -0.1132
18351TIP3    H176544   5.285   1.595  14.589  2.0234  0.8039 -0.1506
18351TIP3    H276545   5.335   1.597  14.732 -2.5140  0.8220  1.4928
18352TIP3   OH276546   3.989   5.768  13.626 -0.5599  0.3486 -0.2832
18352TIP3    H176547   3.912   5.759  13.682 -1.0185  0.8618 -0.8114
18352TIP3    H276548   3.981   5.856  13.589 -0.9673 -0.4367 -2.1372
18353TIP3   OH276549   3.343   5.490   5.074 -0.3438  0.1219  0.0846
18353TIP3    H176550   3.390   5.503   4.991 -1.2436 -0.1449 -0.4763
18353TIP3    H276551   3.280   5.563   5.077  0.4920  0.8082  1.1062
18354TIP3   OH276552   6.076   0.159  15.779  0.0398 -0.3960 -0.3483
18354TIP3    H176553   6.080   0.251  15.752 -1.3254 -0.2873 -0.1921
18354TIP3    H276554   5.995   0.152  15.828  0.2184 -1.6608 -0.2280
18355TIP3   OH276555   3.429   6.018  16.044 -0.0037 -0.0512 -0.2794
18355TIP3    H176556   3.338   5.995  16.063  0.2843 -1.7276 -0.8503
18355TIP3    H276557   3.425   6.061  15.958 -0.0132 -2.2139 -1.4066
18356TIP3   OH276558   2.168   4.290  17.287 -0.1381 -0.1771 -0.1371
18356TIP3    H176559   2.176   4.304  17.381 -0.7010 -0.3480 -0.0641
18356TIP3    H276560   2.164   4.378  17.250  1.7889 -0.0768 -0.1579
18357TIP3   OH276561   4.300   2.098  15.741  0.3069 -0.6911  0.1066
18357TIP3    H176562   4.345   2.114  15.658  2.0260  0.6654  1.2796
18357TIP3    H276563   4.235   2.168  15.747 -1.4297 -2.1352 -1.1603
18358TIP3   OH276564   1.581   4.722  14.240 -0.6167 -0.0387 -0.0898
18358TIP3    H176565   1.622   4.693  14.159  1.9864 -0.1158  1.1923
18358TIP3    H276566   1.530   4.647  14.270  2.2336 -1.7187  0.7536
18359TIP3   OH276567   6.796   3.057  14.821  0.6051 -0.5796  0.4016
18359TIP3    H176568   6.755   3.056  14.734  0.3313  0.4158  0.5152
18359TIP3    H276569   6.878   3.104  14.808 -0.0202  0.6676  0.9388
18360TIP3   OH276570   0.882   2.527   4.396 -0.5167  0.1189 -0.1296
18360TIP3    H176571   0.949   2.520   4.464  1.1000 -0.2896 -1.7122
18360TIP3    H276572   0.849   2.616   4.403 -0.5519 -0.0119  1.3585
18361TIP3   OH276573   2.719   5.544  12.332  0.5050 -0.2103 -0.4515
18361TIP3    H176574   2.797   5.538  12.388 -0.2911 -3.5410  0.4139
18361TIP3    H276575   2.752   5.576  12.248  2.4602  0.4597  0.5482
18362TIP3   OH276576   2.224   1.008   1.102 -0.5639 -0.1824 -0.1785
18362TIP3    H176577   2.230   0.958   1.021 -0.5917  0.2348 -0.4394
18362TIP3    H276578   2.200   1.096   1.074 -1.1942 -0.1883  0.3302
18363TIP3   OH276579   3.600   0.195  13.835  0.2774 -0.2262 -0.1783
18363TIP3    H176580   3.618   0.153  13.751  0.8419 -0.0711 -0.1392
18363TIP3    H276581   3.565   0.124  13.890  0.4610 -0.4613 -0.3608
18364TIP3   OH276582   3.682   5.782   0.591  0.2461 -0.1109 -0.4733
18364TIP3    H176583   3.756   5.830   0.628 -0.7083  0.7815  0.3396
18364TIP3    H276584   3.721   5.707   0.547  1.8165  1.5092 -1.9486
18365TIP3   OH276585   1.199   4.515  17.090  0.1420 -0.3745 -0.4860
18365TIP3    H176586   1.154   4.431  17.087  1.6291 -1.1829 -0.1137
18365TIP3    H276587   1.146   4.572  17.033 -2.1380 -0.9133  1.0346
18366TIP3   OH276588   1.849   0.848   2.814 -0.4030  0.4029  0.8344
18366TIP3    H176589   1.768   0.862   2.764  0.6989 -0.1082 -1.1727
18366TIP3    H276590   1.835   0.895   2.896 -2.5301  0.7588  0.3100
18367TIP3   OH276591   2.314   1.797   3.057 -0.1892 -0.1504 -0.3307
18367TIP3    H176592   2.312   1.762   2.968  0.0846  2.2484 -1.3154
18367TIP3    H276593   2.388   1.754   3.099  1.0412  0.3692 -1.9626
18368TIP3   OH276594   4.986   6.282   0.785 -0.1901 -0.0745  0.5847
18368TIP3    H176595   4.930   6.214   0.745 -0.6220 -1.0538  2.7816
18368TIP3    H276596   5.048   6.305   0.716 -2.1626 -0.2649 -1.3217
18369TIP3   OH276597   1.020   2.430  13.541 -0.5258  0.0830 -0.1692
18369TIP3    H176598   0.952   2.475  13.492  0.5610  1.2396 -0.6351
18369TIP3    H276599   1.096   2.489  13.538  0.4036 -1.0359  0.5959
18370TIP3   OH276600   4.938   0.965  16.722 -0.2401 -0.1769  0.1299
18370TIP3    H176601   4.897   1.037  16.673 -1.9057 -1.1836 -0.0093
18370TIP3    H276602   5.021   0.950  16.678 -0.0215  1.4412 -0.0521
18371TIP3   OH276603   5.543   6.618  11.878 -0.2947 -0.2260 -0.4330
18371TIP3    H176604   5.561   6.525  11.865 -0.3398 -0.0631 -1.6883
18371TIP3    H276605   5.508   6.648  11.794 -0.8062  0.7971  0.1372
18372TIP3   OH276606   3.843   3.771   2.724 -0.1701  0.4052  0.6141
18372TIP3    H176607   3.749   3.787   2.712 -0.5314 -0.4686  2.2250
18372TIP3    H276608   3.884   3.856   2.705 -1.2167  0.6184 -0.7728
18373TIP3   OH276609   6.627   4.742   5.872  0.1266  0.0385 -0.3591
18373TIP3    H176610   6.633   4.718   5.779 -3.3675  1.6346 -1.0786
18373TIP3    H276611   6.588   4.666   5.915  1.5174 -0.6073 -0.2239
18374TIP3   OH276612   4.814   2.794   4.799 -0.0263  0.3361  0.4556
18374TIP3    H176613   4.830   2.871   4.744  0.1421 -0.1486 -0.1803
18374TIP3    H276614   4.817   2.827   4.889  2.2404  0.6685  0.2736
18375TIP3   OH276615   4.279   4.651   1.147 -0.1092 -0.1413  1.1551
18375TIP3    H176616   4.365   4.610   1.136 -0.2953 -0.9233  2.5555
18375TIP3    H276617   4.298   4.731   1.197 -0.0110  0.4885  0.1376
18376TIP3   OH276618   6.258   3.616   5.485 -0.0697  0.4021  0.2411
18376TIP3    H176619   6.339   3.665   5.498 -0.0790  0.2635  0.8396
18376TIP3    H276620   6.257   3.595   5.391  0.0525  1.3336  0.0311
18377TIP3   OH276621   0.193   4.080   6.079 -0.5189  0.0550 -0.4184
18377TIP3    H176622   0.116   4.040   6.039 -0.0463 -0.3171 -0.9510
18377TIP3    H276623   0.256   4.089   6.008  0.3693 -0.7222  0.2417
18378TIP3   OH276624   0.665   1.601  15.191  0.0807  0.5572  0.0954
18378TIP3    H176625   0.576   1.587  15.157  0.1652 -0.8371  0.4303
18378TIP3    H276626   0.718   1.535  15.146  0.6476  0.3325  1.0926
18379TIP3   OH276627   2.566   0.693   1.683  0.4244  0.2115 -0.1367
18379TIP3    H176628   2.582   0.656   1.596 -1.3700  1.2214 -0.9222
18379TIP3    H276629   2.617   0.638   1.742  2.1781 -0.1100 -1.8947
18380TIP3   OH276630   6.622   0.440   4.448  0.0951  0.5317 -0.3234
18380TIP3    H176631   6.663   0.411   4.529 -0.4869  1.3881  0.2828
18380TIP3    H276632   6.605   0.359   4.400  1.2221  0.0814  0.0250
18381TIP3   OH276633   1.138   2.933   2.137 -0.6561  0.0518  0.2207
18381TIP3    H176634   1.217   2.968   2.096 -0.1667 -0.5724  0.6089
18381TIP3    H276635   1.132   2.979   2.221 -1.1448  0.6699 -0.1565
18382TIP3   OH276636   2.051   2.249   1.835  0.2409  0.3833 -0.1397
18382TIP3    H176637   2.087   2.284   1.917 -1.6919  0.6876  0.6032
18382TIP3    H276638   1.973   2.302   1.819 -0.8824 -1.4314 -0.7623
18383TIP3   OH276639   3.293   6.377  16.010  0.2329 -0.4160 -0.2560
18383TIP3    H176640   3.341   6.455  15.982  2.0819 -0.7853  1.6948
18383TIP3    H276641   3.201   6.403  16.010  0.6000  0.9968 -1.9576
18384TIP3   OH276642   6.801   6.066   2.867  0.2886  0.2394  0.1652
18384TIP3    H176643   6.801   6.031   2.956  0.2437  0.4793  0.2596
18384TIP3    H276644   6.880   6.119   2.862  0.2644  0.2671  0.0769
18385TIP3   OH276645   1.559   1.778   2.622  0.1239  0.1594 -0.0107
18385TIP3    H176646   1.557   1.746   2.712  0.8140  0.8289  0.2469
18385TIP3    H276647   1.553   1.699   2.568  0.6033 -0.3103  0.6159
18386TIP3   OH276648   6.603   2.248  14.952  0.1445 -0.4256 -0.3506
18386TIP3    H176649   6.568   2.244  14.863  0.3386  1.5762 -0.5536
18386TIP3    H276650   6.539   2.300  15.001  0.3947 -0.9067  0.4973
18387TIP3   OH276651   1.907   3.243  13.358  0.0137 -0.0577 -0.1942
18387TIP3    H176652   1.922   3.225  13.451 -0.8440 -0.6437 -0.1610
18387TIP3    H276653   1.823   3.201  13.339  1.2119 -1.8053 -1.7720
18388TIP3   OH276654   6.132   5.714  15.290 -0.0149 -0.0933  0.5035
18388TIP3    H176655   6.104   5.764  15.366  1.4273  2.9758 -0.9145
18388TIP3    H276656   6.225   5.695  15.307 -0.2226 -1.2264  0.4416
18389TIP3   OH276657   0.523   0.583  14.191 -0.6365  0.5140 -0.1733
18389TIP3    H176658   0.496   0.491  14.197 -1.4415  0.8008  0.6909
18389TIP3    H276659   0.505   0.619  14.278  1.4819  1.0029  0.0916
18390TIP3   OH276660   1.275   1.010  14.883 -0.1151  1.2849  0.1739
18390TIP3    H176661   1.230   0.967  14.956  0.1800  0.7941  0.0674
18390TIP3    H276662   1.365   1.019  14.913 -0.2896  2.3630  0.4305
18391TIP3   OH276663   3.874   0.143  14.194  0.3516  0.1891  0.1338
18391TIP3    H176664   3.782   0.127  14.218  0.3790  1.3406  1.0631
18391TIP3    H276665   3.882   0.239  14.193  1.4973  0.0982 -0.1131
18392TIP3   OH276666   6.234   5.205   2.450  0.5547  0.3906  0.3632
18392TIP3    H176667   6.177   5.248   2.514 -1.1924  0.2439 -1.0295
18392TIP3    H276668   6.260   5.123   2.491  0.3234  0.7685  1.2888
18393TIP3   OH276669   6.605   3.946   0.490  0.2603  0.2814 -0.1572
18393TIP3    H176670   6.671   3.913   0.429 -0.6093  0.7188 -1.3605
18393TIP3    H276671   6.616   4.041   0.489 -1.1924  0.4621 -1.3430
18394TIP3   OH276672   5.776   6.037  13.859 -0.4848  0.1312  0.0495
18394TIP3    H176673   5.796   6.124  13.895 -2.0024  0.7198 -0.4719
18394TIP3    H276674   5.757   6.054  13.766  0.1943 -0.9006 -0.2753
18395TIP3   OH276675   5.653   3.549   0.408  0.6125  0.6664  0.6128
18395TIP3    H176676   5.605   3.493   0.347 -0.8707  1.9064  0.6366
18395TIP3    H276677   5.627   3.638   0.386  4.6747  1.6072 -0.9537
18396TIP3   OH276678   5.457   0.312  12.111 -0.4386  0.0993 -0.6170
18396TIP3    H176679   5.418   0.390  12.072 -0.8863 -0.8436 -2.0966
18396TIP3    H276680   5.529   0.289  12.053 -0.5220 -0.7968 -0.3750
18397TIP3   OH276681   4.598   1.383   3.239 -0.2128  0.3141 -0.2713
18397TIP3    H176682   4.516   1.421   3.209 -0.1332  0.3870 -0.3997
18397TIP3    H276683   4.654   1.459   3.258 -0.0602  0.2649 -0.5153
18398TIP3   OH276684   3.908   2.531  12.054  0.6088  0.0613 -0.0599
18398TIP3    H176685   3.877   2.441  12.067 -1.5767  1.0941  2.1429
18398TIP3    H276686   3.932   2.561  12.142  0.2479  2.0146 -0.6183
18399TIP3   OH276687   0.603   2.801  17.069 -0.1694  0.2128 -0.4613
18399TIP3    H176688   0.607   2.755  16.984 -0.8736 -0.0525 -0.3570
18399TIP3    H276689   0.614   2.893  17.047 -3.8621  0.5416 -1.2536
18400TIP3   OH276690   2.179   5.643  13.535  0.3036 -0.3007  0.3748
18400TIP3    H176691   2.239   5.579  13.495  0.7642  0.0415  0.5173
18400TIP3    H276692   2.198   5.725  13.489  1.7542  0.4057  2.1705
18401TIP3   OH276693   0.770   5.774  13.410  0.4776 -0.3502 -0.3742
18401TIP3    H176694   0.802   5.862  13.390 -1.7495  0.7493  0.7204
18401TIP3    H276695   0.762   5.731  13.325 -0.2816  1.1908 -1.1009
18402TIP3   OH276696   1.295   2.459   2.648 -0.5186 -0.1309 -0.0909
18402TIP3    H176697   1.336   2.448   2.734 -0.5900 -2.2719 -0.3040
18402TIP3    H276698   1.356   2.514   2.599  1.8947 -2.8161 -0.2213
18403TIP3   OH276699   5.860   3.842   2.557  0.1196 -0.1614 -0.2557
18403TIP3    H176700   5.948   3.872   2.578  0.0977 -1.6435  2.1344
18403TIP3    H276701   5.821   3.915   2.509  2.1363  1.1056 -0.0416
18404TIP3   OH276702   5.951   5.705  13.961 -0.1991  0.0903  0.6306
18404TIP3    H176703   5.971   5.644  13.890 -1.1647  1.8652 -1.2069
18404TIP3    H276704   6.034   5.714  14.009  1.6193  1.8977 -2.6375
18405TIP3   OH276705   4.204   6.815  12.039 -0.0707  0.7665 -0.1202
18405TIP3    H176706   4.174   6.896  11.999 -1.4213  0.6336  0.6197
18405TIP3    H276707   4.246   6.843  12.120 -0.7473  0.7096  0.2515
18406TIP3   OH276708   5.551   2.679  15.764 -0.0084  0.0709  0.0044
18406TIP3    H176709   5.496   2.716  15.695  0.8953 -2.3813 -2.1047
18406TIP3    H276710   5.489   2.657  15.833 -1.1581  0.9631 -0.7000
18407TIP3   OH276711   1.334   4.836  15.758 -0.6605 -0.3294 -0.7058
18407TIP3    H176712   1.425   4.866  15.763  0.3681 -2.9634 -2.2986
18407TIP3    H276713   1.298   4.854  15.845  0.8706  2.2664 -0.5730
18408TIP3   OH276714   2.020   6.043   3.917  0.6101 -0.4112  0.0839
18408TIP3    H176715   2.080   6.104   3.874  0.2636 -1.2965 -1.7038
18408TIP3    H276716   2.076   5.988   3.971  1.0776  0.5730  0.6125
18409TIP3   OH276717   0.491   0.252  16.224 -0.1699  0.9077 -0.0030
18409TIP3    H176718   0.486   0.216  16.312  0.3515  0.7136 -0.0493
18409TIP3    H276719   0.548   0.329  16.233 -1.5584  1.9384  0.1605
18410TIP3   OH276720   5.032   6.384  12.615  0.0547 -0.0573  0.4501
18410TIP3    H176721   5.125   6.400  12.596 -0.5663  1.2655 -1.7484
18410TIP3    H276722   4.998   6.469  12.642 -0.4705 -0.5977  1.5144
18411TIP3   OH276723   1.622   2.759  13.981  0.1489  0.4508  0.5516
18411TIP3    H176724   1.578   2.800  14.054 -1.7092  0.8365 -0.7501
18411TIP3    H276725   1.640   2.831  13.920 -0.8482 -0.2460 -0.6032
18412TIP3   OH276726   1.799   4.612  11.059  0.0863 -0.6994  0.1906
18412TIP3    H176727   1.859   4.623  11.133 -0.6315  1.7299  0.4255
18412TIP3    H276728   1.800   4.696  11.014  0.9858 -2.3069 -2.9731
18413TIP3   OH276729   6.803   6.631   1.250  0.2900 -0.1853 -0.0160
18413TIP3    H176730   6.758   6.603   1.171 -0.1808  2.1132 -0.5926
18413TIP3    H276731   6.772   6.571   1.318  0.1022 -1.6812 -1.3886
18414TIP3   OH276732   0.852   6.597   3.245 -0.1502  0.3607  0.0282
18414TIP3    H176733   0.830   6.647   3.167 -1.3828 -0.3123 -0.0703
18414TIP3    H276734   0.770   6.595   3.296  1.0114  2.0913  2.0774
18415TIP3   OH276735   2.320   1.682  16.144  0.1353  0.4445 -0.7514
18415TIP3    H176736   2.401   1.697  16.095  2.0302 -1.8662  1.5585
18415TIP3    H276737   2.330   1.736  16.223 -0.8256  0.5492 -0.6980
18416TIP3   OH276738   0.899   3.933   6.004  0.2147  0.0107  0.2559
18416TIP3    H176739   0.864   3.978   5.928  0.4917 -0.1022  0.0595
18416TIP3    H276740   0.859   3.977   6.079  0.3344  0.4509  0.0606
18417TIP3   OH276741   2.875   1.984  14.253 -0.2213  0.1094  0.0907
18417TIP3    H176742   2.875   2.074  14.219  0.9970  0.2921  0.5483
18417TIP3    H276743   2.940   1.938  14.200 -1.6477 -0.7986 -0.8849
18418TIP3   OH276744   1.714   4.264  12.406 -0.3981  0.0569 -0.0796
18418TIP3    H176745   1.728   4.279  12.313  2.9949 -2.0743 -0.0103
18418TIP3    H276746   1.705   4.169  12.414 -0.0289  0.1630  1.8307
18419TIP3   OH276747   1.915   4.170  12.888 -0.5866  0.3615  0.2392
18419TIP3    H176748   1.989   4.160  12.948  1.1514 -0.3280 -1.9555
18419TIP3    H276749   1.841   4.128  12.933  0.4776  0.4818  2.1617
18420TIP3   OH276750   2.124   1.280   0.009  0.4784  0.5886  0.0895
18420TIP3    H176751   2.148   1.352  -0.049 -0.2794  3.2909  3.0156
18420TIP3    H276752   2.159   1.304   0.094  0.4067 -2.6539  1.1159
18421TIP3   OH276753   4.840   2.060  10.902 -0.7081 -0.6680 -0.1967
18421TIP3    H176754   4.804   2.124  10.841 -0.7671  0.5238  1.0748
18421TIP3    H276755   4.764   2.019  10.942 -0.7061  0.6541  1.2361
18422TIP3   OH276756   2.663   3.211   1.124 -0.1059  0.5570  0.2300
18422TIP3    H176757   2.708   3.264   1.189  0.1000  0.1187  0.4470
18422TIP3    H276758   2.732   3.160   1.081 -0.3686  0.0253  0.4342
18423TIP3   OH276759   6.150   4.152   2.718 -0.7078 -0.3078  0.1614
18423TIP3    H176760   6.126   4.092   2.648 -1.9041  0.2507  0.0809
18423TIP3    H276761   6.228   4.112   2.758  2.1712  1.1695 -3.7028
18424TIP3   OH276762   3.773   6.401   2.171  0.0428 -0.6979 -0.1647
18424TIP3    H176763   3.850   6.413   2.114 -0.9497 -0.8015 -1.5633
18424TIP3    H276764   3.776   6.308   2.195 -0.1713 -0.9331 -1.0131
18425TIP3   OH276765   3.857   6.518  13.115  0.6257 -0.1985  0.1678
18425TIP3    H176766   3.811   6.530  13.032 -0.2901  0.7199  0.8034
18425TIP3    H276767   3.944   6.557  13.099  0.8150 -0.9491 -0.6781
18426TIP3   OH276768   4.889   3.032   2.635  0.3861 -0.5178 -0.2088
18426TIP3    H176769   4.819   3.019   2.571 -1.1243 -2.0359  1.6678
18426TIP3    H276770   4.905   2.945   2.670  1.8175  0.1528  0.8331
18427TIP3   OH276771   0.090   4.621   4.500  0.0809 -0.2773  0.1808
18427TIP3    H176772   0.150   4.547   4.487  0.1544 -0.1340 -0.2764
18427TIP3    H276773   0.136   4.697   4.466 -0.9270 -0.3953 -1.4857
18428TIP3   OH276774   5.785   1.773  14.509  0.2564  0.4834  0.3364
18428TIP3    H176775   5.725   1.804  14.577 -0.8556  1.5978 -1.1190
18428TIP3    H276776   5.837   1.850  14.486 -0.2278  0.4432 -0.9405
18429TIP3   OH276777   2.778   4.376  12.845 -0.2580  0.4884 -0.1630
18429TIP3    H176778   2.701   4.427  12.870  0.1667  0.1636  1.8858
18429TIP3    H276779   2.849   4.410  12.900  0.9246  0.3386 -1.5659
18430TIP3   OH276780   0.160   1.239  10.500  0.0916 -0.7014 -0.1022
18430TIP3    H176781   0.201   1.189  10.570 -1.9530 -1.7564  0.3758
18430TIP3    H276782   0.088   1.184  10.470 -2.6834  2.2075  0.9036
18431TIP3   OH276783   3.218   0.848   4.751  0.8220  0.2811  0.0130
18431TIP3    H176784   3.229   0.825   4.659  0.9590 -2.3258  0.6435
18431TIP3    H276785   3.235   0.766   4.798  0.8137  1.5953  2.3532
18432TIP3   OH276786   4.563   4.601  16.820 -0.4145 -0.1150 -0.5110
18432TIP3    H176787   4.620   4.606  16.743  1.0136 -2.2063  0.3530
18432TIP3    H276788   4.623   4.609  16.894 -1.4328 -0.7429  0.3963
18433TIP3   OH276789   3.746   3.340  13.734 -0.2090 -0.1956 -0.4810
18433TIP3    H176790   3.721   3.276  13.667 -1.0526  0.5975 -0.9238
18433TIP3    H276791   3.818   3.298  13.781  0.7279 -0.5618 -2.2003
18434TIP3   OH276792   3.048   6.714   3.605 -0.1109 -0.0996 -0.0892
18434TIP3    H176793   3.036   6.651   3.533  0.6582 -0.1941 -0.1399
18434TIP3    H276794   3.061   6.660   3.683 -0.3046  0.0025  0.0161
18435TIP3   OH276795   0.193   2.967   5.292 -0.6108 -0.0937  0.0171
18435TIP3    H176796   0.170   2.938   5.204 -0.8351 -1.9894  0.6827
18435TIP3    H276797   0.110   2.983   5.335 -0.4883  1.5902 -0.3421
18436TIP3   OH276798   4.813   4.606  15.601  0.8060  0.4468 -0.0042
18436TIP3    H176799   4.904   4.580  15.617 -0.0604 -2.4550  0.4834
18436TIP3    H276800   4.801   4.593  15.507  0.9132  0.8621 -0.0741
18437TIP3   OH276801   0.135   5.860   4.578 -0.1971  0.6858  0.1441
18437TIP3    H176802   0.226   5.891   4.575 -0.0648  0.3685  0.7258
18437TIP3    H276803   0.119   5.826   4.490  0.5984 -0.2086  0.3332
18438TIP3   OH276804   1.140   2.972   4.828 -0.2117 -0.0286  0.0215
18438TIP3    H176805   1.123   2.987   4.921 -0.6005  1.4242 -0.2683
18438TIP3    H276806   1.082   3.034   4.783  1.3923  0.6684 -1.1446
18439TIP3   OH276807   4.132   2.396   1.994 -0.2714  0.1509  0.0912
18439TIP3    H176808   4.091   2.312   2.014 -0.1261  0.3135  1.0940
18439TIP3    H276809   4.221   2.375   1.969  0.2473  0.1178  1.8816
18440TIP3   OH276810   6.815   1.349  16.515 -0.0875  0.4799 -0.2839
18440TIP3    H176811   6.765   1.424  16.548  1.4425  1.2004  0.4715
18440TIP3    H276812   6.863   1.317  16.591  1.8124  0.8109 -1.2879
18441TIP3   OH276813   3.215   1.948   2.452  0.1739  0.6406 -0.0884
18441TIP3    H176814   3.131   1.972   2.413  0.0903  1.0208  0.3196
18441TIP3    H276815   3.280   1.970   2.385 -0.1680 -1.1467 -1.0390
18442TIP3   OH276816   1.995   3.766  15.295 -0.0413  0.4268 -0.3369
18442TIP3    H176817   1.936   3.706  15.248 -0.0148  0.0551  0.1044
18442TIP3    H276818   1.940   3.840  15.318 -0.0614  0.6011 -0.9393
18443TIP3   OH276819   0.952   6.288  13.497 -0.0334 -0.2269  0.7842
18443TIP3    H176820   1.027   6.291  13.558  1.6160 -1.2850 -1.1405
18443TIP3    H276821   0.932   6.380  13.481  1.8169  0.1035  0.1956
18444TIP3   OH276822   5.726   6.374   1.966 -0.3751 -0.3014  0.1742
18444TIP3    H176823   5.692   6.418   2.044 -2.0170  0.7281 -1.1023
18444TIP3    H276824   5.777   6.441   1.921 -0.1083 -0.6643 -0.0651
18445TIP3   OH276825   3.926   0.003   5.729 -0.3082 -0.4725  0.1469
18445TIP3    H176826   3.934  -0.078   5.679  0.0114 -1.6674  2.1132
18445TIP3    H276827   4.017   0.031   5.742 -0.4529  1.0260 -1.7950
18446TIP3   OH276828   6.470   5.830   0.491 -0.8523  0.1452  0.4117
18446TIP3    H176829   6.439   5.877   0.414 -0.3480  1.6830  1.1282
18446TIP3    H276830   6.459   5.738   0.468 -2.8734  0.5926 -0.6092
18447TIP3   OH276831   5.518   5.751   5.867 -0.4240 -0.0999  0.2480
18447TIP3    H176832   5.525   5.793   5.782 -0.4799  1.8011  1.1616
18447TIP3    H276833   5.596   5.779   5.915  0.8428 -3.0542  0.0443
18448TIP3   OH276834   0.782   4.253   4.021  0.0875 -0.5552 -0.3884
18448TIP3    H176835   0.746   4.306   4.093  2.0149 -0.0407  0.2448
18448TIP3    H276836   0.734   4.171   4.025 -2.9740  1.1065 -1.3705
18449TIP3   OH276837   5.799   0.496  11.849  0.0930  0.0534 -0.1120
18449TIP3    H176838   5.779   0.550  11.772 -1.9572 -0.5990 -0.0799
18449TIP3    H276839   5.814   0.559  11.919 -1.5994  0.6200 -0.2327
18450TIP3   OH276840   4.010   5.128   2.865 -0.0096 -0.4484 -0.1917
18450TIP3    H176841   4.103   5.142   2.886 -0.2982 -2.1392  2.5344
18450TIP3    H276842   4.003   5.033   2.853 -1.0982 -0.1487 -2.0977
18451TIP3   OH276843   1.412   0.449  14.103  0.2434  0.0750  0.1143
18451TIP3    H176844   1.431   0.387  14.174 -3.1143  0.4903  1.4421
18451TIP3    H276845   1.417   0.395  14.024 -1.4083 -1.6627  1.1365
18452TIP3   OH276846   4.327   6.325  11.272  0.1035  0.4943  0.2933
18452TIP3    H176847   4.420   6.342  11.284  0.0373  0.1659  1.2718
18452TIP3    H276848   4.306   6.366  11.188  1.2888 -0.0612 -0.2801
18453TIP3   OH276849   2.213   2.892  11.245  0.0238 -0.3205 -0.3177
18453TIP3    H176850   2.292   2.874  11.193  0.5401 -0.1451  0.3868
18453TIP3    H276851   2.149   2.827  11.215  1.2587 -2.1655  0.8649
18454TIP3   OH276852   6.702   2.823  10.995  0.4222 -0.0263  0.1544
18454TIP3    H176853   6.731   2.743  10.949 -1.1143 -1.6551  1.9293
18454TIP3    H276854   6.639   2.863  10.935  0.4925 -0.6558 -0.3552
18455TIP3   OH276855   3.516   0.947  14.570  0.3034  0.8919 -0.4776
18455TIP3    H176856   3.495   0.910  14.484  0.4256  0.9000 -0.5110
18455TIP3    H276857   3.432   0.978  14.604 -0.0308 -0.5641  0.1008
18456TIP3   OH276858   2.870   2.947  12.042 -0.1628 -0.1781 -0.1359
18456TIP3    H176859   2.960   2.948  12.010  0.4610  1.7166  1.5340
18456TIP3    H276860   2.847   3.040  12.050 -1.2186 -0.6030  2.2485
18457TIP3   OH276861   0.793   5.119  16.428  0.4506 -0.3792  0.0498
18457TIP3    H176862   0.855   5.145  16.361  1.7266  2.5222  2.2378
18457TIP3    H276863   0.708   5.115  16.383  1.5760 -0.5786 -2.1207
18458TIP3   OH276864   1.157   0.470  13.054 -0.1394  0.7381  0.0911
18458TIP3    H176865   1.201   0.528  13.117 -0.9828 -0.5001  1.8726
18458TIP3    H276866   1.165   0.383  13.092 -0.0104 -0.1591 -1.9264
18459TIP3   OH276867   0.613   4.424   4.186 -0.0771  0.3217 -0.1122
18459TIP3    H176868   0.532   4.373   4.182  0.1909 -0.3405  2.2943
18459TIP3    H276869   0.592   4.504   4.138 -1.3553 -0.8695 -1.6433
18460TIP3   OH276870   0.248   3.339   5.444  0.0235  0.6174 -0.2609
18460TIP3    H176871   0.159   3.372   5.454  0.0375  1.3345 -2.3431
18460TIP3    H276872   0.266   3.294   5.527 -3.4601 -2.3713 -0.9756
18461TIP3   OH276873   6.436   4.844   0.622  0.0695  0.3227  0.1920
18461TIP3    H176874   6.364   4.797   0.580 -1.3349 -0.3514  3.2172
18461TIP3    H276875   6.412   4.936   0.615 -0.5073  0.1674  0.1068
18462TIP3   OH276876   0.233   1.544   6.276  0.4526 -0.0291  0.2216
18462TIP3    H176877   0.243   1.508   6.365 -1.8847 -1.5864 -0.1004
18462TIP3    H276878   0.319   1.578   6.254  0.9883  0.7124  3.2443
18463TIP3   OH276879   0.554   4.719   2.749 -0.5517  0.5410  0.1944
18463TIP3    H176880   0.626   4.781   2.741  0.0875 -0.4225 -1.8160
18463TIP3    H276881   0.523   4.706   2.660 -1.6078 -0.9290  0.7571
18464TIP3   OH276882   1.767   4.841  10.887 -0.0182  0.1297  0.3681
18464TIP3    H176883   1.802   4.806  10.804 -0.4896 -0.2836  0.3401
18464TIP3    H276884   1.824   4.915  10.908 -0.0532  0.3960 -0.4576
18465TIP3   OH276885   6.285   1.223   4.901 -0.7846  0.3492 -0.7267
18465TIP3    H176886   6.286   1.316   4.880 -0.2294  0.5628  0.2004
18465TIP3    H276887   6.318   1.180   4.823  0.3952  1.0505 -0.6231
18466TIP3   OH276888   3.332   2.226  16.252  0.3616  0.4349  0.0220
18466TIP3    H176889   3.414   2.197  16.213  0.0253  0.7691 -0.9526
18466TIP3    H276890   3.271   2.154  16.235  0.3004  0.4312  0.2499
18467TIP3   OH276891   6.000   3.908   3.981 -0.6050  0.0637 -0.4912
18467TIP3    H176892   6.036   3.936   4.065 -0.6284  1.5708 -0.9692
18467TIP3    H276893   6.033   3.818   3.969  1.2232  0.6391  0.0811
18468TIP3   OH276894   6.690   0.172  12.524  0.4938 -0.2016  0.1076
18468TIP3    H176895   6.658   0.177  12.434 -0.8732  0.5457  0.6192
18468TIP3    H276896   6.717   0.081  12.535  0.6129 -0.3089 -1.0414
18469TIP3   OH276897   5.617   1.395   0.341  0.0681 -0.0898 -0.1945
18469TIP3    H176898   5.588   1.304   0.331 -2.3974  0.7323 -0.8448
18469TIP3    H276899   5.650   1.419   0.255 -1.8830  0.4818 -0.8063
18470TIP3   OH276900   2.058   5.134   4.522 -0.0063 -0.2614 -0.3929
18470TIP3    H176901   2.123   5.179   4.576  0.5639 -0.8249 -0.6029
18470TIP3    H276902   2.018   5.203   4.470  0.6730  0.0394 -0.5236
18471TIP3   OH276903   5.005   5.200   5.229 -0.3473  0.1623 -0.0122
18471TIP3    H176904   5.072   5.135   5.209  1.0571  1.8596 -0.8627
18471TIP3    H276905   4.930   5.173   5.176  0.3134 -0.5930 -0.5781
18472TIP3   OH276906   3.810   6.171   4.175 -0.5449  0.0594 -0.3337
18472TIP3    H176907   3.862   6.191   4.096 -2.9984 -0.5778 -2.1831
18472TIP3    H276908   3.836   6.082   4.199 -0.0498  0.1114 -0.6659
18473TIP3   OH276909   2.181   0.878  17.175 -0.5437  0.9123 -0.3258
18473TIP3    H176910   2.131   0.859  17.255 -0.0914  0.5854 -0.1162
18473TIP3    H276911   2.203   0.971  17.183  2.1551  0.1908  1.4658
18474TIP3   OH276912   0.938   0.468   4.693 -0.2996  0.2522 -0.4616
18474TIP3    H176913   1.018   0.434   4.652  0.4315  0.0956  1.0610
18474TIP3    H276914   0.888   0.505   4.620  0.4883 -0.9549 -1.6391
18475TIP3   OH276915   5.747   2.934   1.365 -0.3335  0.5189  0.6774
18475TIP3    H176916   5.821   2.995   1.371 -0.7547  1.2226 -1.1118
18475TIP3    H276917   5.777   2.867   1.303 -0.0468 -0.8719  2.2850
18476TIP3   OH276918   5.900   6.762   5.074  0.0051  0.1021  0.4230
18476TIP3    H176919   5.809   6.734   5.082 -0.2096  0.5836 -0.2784
18476TIP3    H276920   5.908   6.834   5.137 -0.1904  0.2847  0.2380
18477TIP3   OH276921   3.448   5.803  15.302  0.2228  0.2339  0.4744
18477TIP3    H176922   3.420   5.775  15.216  1.2590  1.0899 -0.1610
18477TIP3    H276923   3.525   5.748  15.321  0.5693  0.6955  0.4289
18478TIP3   OH276924   4.948   2.084  14.169 -0.5270 -0.6649 -0.2159
18478TIP3    H176925   4.896   2.116  14.095 -0.6532 -1.6539 -0.5604
18478TIP3    H276926   5.026   2.139  14.168 -2.8705  2.8942  2.1589
18479TIP3   OH276927   1.386   0.979  12.567 -0.7711  0.7093 -0.0992
18479TIP3    H176928   1.349   1.004  12.483  0.4266  0.7284 -0.6298
18479TIP3    H276929   1.430   0.895  12.551  0.1443  1.1007  0.3040
18480TIP3   OH276930   0.442   3.475   4.026 -0.3416  0.0105 -0.7504
18480TIP3    H176931   0.431   3.514   4.113  1.2587 -0.5154 -0.3018
18480TIP3    H276932   0.502   3.402   4.040  1.5255  1.1627 -2.6538
18481TIP3   OH276933   5.970   3.348   4.590 -0.9038 -0.5834 -0.0953
18481TIP3    H176934   5.996   3.392   4.671 -1.7529  0.2855 -0.2831
18481TIP3    H276935   6.043   3.360   4.530 -0.2328 -1.3106  0.5694
18482TIP3   OH276936   3.471   4.549  15.304  0.1107  0.3514  0.2552
18482TIP3    H176937   3.529   4.483  15.266 -0.7130  0.5243 -1.3088
18482TIP3    H276938   3.417   4.501  15.366  1.4616  0.0729  1.2382
18483TIP3   OH276939   6.412   5.249   1.736 -0.0604 -0.1478 -0.8104
18483TIP3    H176940   6.478   5.183   1.714  1.5937  1.1466  0.1045
18483TIP3    H276941   6.440   5.283   1.821 -1.4633  1.0096 -0.7901
18484TIP3   OH276942   2.346   5.299   0.967  0.3182  0.5127 -0.4545
18484TIP3    H176943   2.284   5.350   0.914 -0.6989  0.7826  0.9673
18484TIP3    H276944   2.380   5.361   1.031 -0.7902 -0.5219  1.1741
18485TIP3   OH276945   5.645   6.757   1.262 -0.5044 -0.2695  0.7057
18485TIP3    H176946   5.703   6.701   1.209  0.2086  0.5020  0.6694
18485TIP3    H276947   5.657   6.724   1.351 -1.8023 -1.6548  0.3916
18486TIP3   OH276948   2.926   2.150   5.320  0.5448  0.3924  0.3245
18486TIP3    H176949   3.004   2.194   5.354  0.1222  0.8594  0.7098
18486TIP3    H276950   2.874   2.220   5.282  0.7087 -0.0412 -0.7023
18487TIP3   OH276951   2.463   5.041   2.185  0.4246 -0.2970 -0.1310
18487TIP3    H176952   2.482   4.951   2.210  0.7621 -0.6395 -1.5881
18487TIP3    H276953   2.369   5.051   2.201 -0.0529 -1.5933 -2.0333
18488TIP3   OH276954   5.492   1.235   0.733  0.4478  0.3656 -0.3459
18488TIP3    H176955   5.494   1.267   0.823 -0.7084 -0.5305  0.0042
18488TIP3    H276956   5.512   1.313   0.680 -0.1554  1.1785  0.6103
18489TIP3   OH276957   6.035   5.631   6.447 -0.7011 -0.3231 -0.1298
18489TIP3    H176958   5.976   5.581   6.391  0.9773  0.4945 -2.6643
18489TIP3    H276959   5.994   5.717   6.454 -1.1468 -0.5668  0.2996
18490TIP3   OH276960   1.737   0.676  13.633  0.1268  0.0141  0.2600
18490TIP3    H176961   1.643   0.671  13.652 -0.3266  1.9570 -1.2380
18490TIP3    H276962   1.751   0.768  13.608  2.2074 -0.5018 -0.5672
18491TIP3   OH276963   1.810   1.431   1.023 -0.0476 -0.0195  0.5418
18491TIP3    H176964   1.903   1.415   1.038  0.0552  1.7386  1.9117
18491TIP3    H276965   1.805   1.459   0.931  1.1248  2.2495  1.1380
18492TIP3   OH276966   1.420   2.996  10.520  0.4097 -0.0011 -0.3592
18492TIP3    H176967   1.339   3.031  10.483  0.7385  0.9487 -0.2115
18492TIP3    H276968   1.402   2.987  10.613  0.2765 -0.3731 -0.4202
18493TIP3   OH276969   3.906   1.115   2.473 -0.2572  0.2989 -0.2326
18493TIP3    H176970   3.974   1.108   2.540  0.3801 -1.7458 -1.0471
18493TIP3    H276971   3.952   1.151   2.397 -0.7485  1.6270  0.0829
18494TIP3   OH276972   5.965   1.578   4.090  0.2080  0.4941 -0.0588
18494TIP3    H176973   5.874   1.550   4.083 -0.0257  1.1449  0.3295
18494TIP3    H276974   5.982   1.585   4.184  1.2175 -1.3903 -0.0693
18495TIP3   OH276975   0.999   4.846  12.586  0.1832 -0.2346  0.1771
18495TIP3    H176976   0.976   4.927  12.540  1.3885  1.0761  1.8165
18495TIP3    H276977   1.092   4.834  12.569 -0.1760 -1.7282 -0.7331
18496TIP3   OH276978   5.806   6.267   5.671  0.1440 -0.3824  0.7967
18496TIP3    H176979   5.732   6.264   5.731 -0.2405 -1.7096  0.2717
18496TIP3    H276980   5.864   6.197   5.700  0.9484  0.3269  0.8992
18497TIP3   OH276981   1.235   3.959  13.963 -1.0679 -0.2477 -0.3952
18497TIP3    H176982   1.245   3.864  13.963 -1.5415 -0.3005  0.8623
18497TIP3    H276983   1.288   3.988  13.889  1.8309 -1.2178  1.2030
18498TIP3   OH276984   0.116   5.813   3.583  0.0621  0.0959 -0.3664
18498TIP3    H176985   0.079   5.878   3.644 -0.4870 -1.7498  1.3120
18498TIP3    H276986   0.198   5.786   3.624 -1.7464 -3.3810  1.1837
18499TIP3   OH276987   3.560   4.743  11.772  0.1852 -0.7869  0.5616
18499TIP3    H176988   3.478   4.756  11.725  0.1203 -0.7944  0.6734
18499TIP3    H276989   3.626   4.731  11.703  0.4824  1.5039  0.4157
18500TIP3   OH276990   5.177   4.388   3.055  0.4118  0.1245 -0.3820
18500TIP3    H176991   5.131   4.470   3.072  0.4314  0.3940 -1.6239
18500TIP3    H276992   5.238   4.378   3.129 -1.3586 -0.0524  1.0845
18501TIP3   OH276993   5.036   2.590   4.783  0.3322  0.6554 -0.4156
18501TIP3    H176994   5.013   2.633   4.701 -1.1716  0.4819 -0.0984
18501TIP3    H276995   4.968   2.617   4.844  0.2399 -0.9150  0.1991
18502TIP3   OH276996   4.352   6.179  16.153 -0.7901  0.6408  0.2067
18502TIP3    H176997   4.302   6.201  16.232 -1.3514  0.7710 -0.1817
18502TIP3    H276998   4.420   6.247  16.148 -0.1405  0.0693  1.1138
18503TIP3   OH276999   4.127   2.159   4.255 -1.0971 -0.7423  0.1741
18503TIP3    H177000   4.073   2.231   4.287 -1.4233 -0.7570 -0.3233
18503TIP3    H277001   4.066   2.104   4.204 -0.4867 -0.3965 -0.9598
18504TIP3   OH277002   0.875   0.939   6.026 -0.0996 -0.1062  0.1066
18504TIP3    H177003   0.847   0.934   6.117 -0.4331  2.2345  0.1604
18504TIP3    H277004   0.809   0.994   5.983  0.2651 -0.8608 -1.4575
18505TIP3   OH277005   1.900   3.052  12.678  0.3964 -0.1994  0.3975
18505TIP3    H177006   1.814   3.087  12.656  1.6092  1.4653 -1.9437
18505TIP3    H277007   1.906   3.061  12.773 -1.6119  0.5927  0.4717
18506TIP3   OH277008   4.809   5.545   2.927 -0.2203 -0.5360 -1.0492
18506TIP3    H177009   4.732   5.504   2.966 -0.4085 -0.1045 -0.9700
18506TIP3    H277010   4.858   5.472   2.890  0.3649 -1.0394  0.6800
18507TIP3   OH277011   2.215   0.175  15.625 -0.7578  0.1929  0.6438
18507TIP3    H177012   2.178   0.108  15.567  2.0347  1.0658 -2.2748
18507TIP3    H277013   2.232   0.128  15.707  0.2148 -2.4410 -1.0075
18508TIP3   OH277014   3.643   1.418   3.641  0.2780  0.5181  0.1404
18508TIP3    H177015   3.556   1.445   3.610 -0.6401 -0.0653  2.0965
18508TIP3    H277016   3.648   1.455   3.729  1.7633 -0.0267  0.2850
18509TIP3   OH277017   5.576   3.594   3.160 -0.1017  0.3080  0.3339
18509TIP3    H177018   5.581   3.544   3.242  0.2759 -0.9196 -0.4115
18509TIP3    H277019   5.488   3.632   3.160  1.0546  3.2303  2.9339
18510TIP3   OH277020   2.741   3.569   3.265 -0.5985  0.1959 -1.2732
18510TIP3    H177021   2.818   3.518   3.241 -0.1102  0.1213  0.3770
18510TIP3    H277022   2.689   3.509   3.319  0.5123  1.7457  1.6061
18511TIP3   OH277023   4.294   4.845   4.157 -0.0879  0.1565 -0.5009
18511TIP3    H177024   4.213   4.796   4.144 -0.6246  0.8361  0.2694
18511TIP3    H277025   4.285   4.922   4.101 -0.4848  0.8320  0.4885
18512TIP3   OH277026   5.248   3.388   4.075 -0.4767  0.3773 -0.0628
18512TIP3    H177027   5.182   3.320   4.068  1.4554 -1.5082 -0.3092
18512TIP3    H277028   5.234   3.443   3.997 -1.7307 -0.0153 -0.1185
18513TIP3   OH277029   4.686   3.623  14.716 -0.4712  0.0095 -0.1772
18513TIP3    H177030   4.764   3.652  14.669  0.1927 -0.7783  0.4212
18513TIP3    H277031   4.692   3.527  14.716 -0.1935 -0.0048  1.9092
18514TIP3   OH277032   3.007   4.795   1.942  0.0898 -0.3689 -0.5924
18514TIP3    H177033   3.010   4.825   1.851  0.4214  2.8404  0.4224
18514TIP3    H277034   3.099   4.782   1.966 -0.0244 -1.7937 -0.8572
18515TIP3   OH277035   3.925   1.123  13.901 -0.5221  0.0971  1.0663
18515TIP3    H177036   3.851   1.184  13.906 -1.1552 -0.6719  1.1894
18515TIP3    H277037   3.884   1.037  13.892  0.3675 -0.1450 -1.1300
18516TIP3   OH277038   4.912   4.893   2.746 -0.0659 -0.3643 -0.0404
18516TIP3    H177039   4.883   4.960   2.685  0.7356  0.2386  0.2438
18516TIP3    H277040   5.000   4.870   2.718  0.0543 -0.5633  0.4844
18517TIP3   OH277041   6.454   0.900  16.621 -0.4232  0.7897  0.0206
18517TIP3    H177042   6.539   0.897  16.665 -0.6137  3.5648  0.6595
18517TIP3    H277043   6.475   0.929  16.532 -0.6297  0.7138 -0.0522
18518TIP3   OH277044   4.942   5.163  13.084 -0.1720 -0.0506 -0.4472
18518TIP3    H177045   4.875   5.103  13.116  0.7774 -1.6310 -1.3715
18518TIP3    H277046   4.997   5.109  13.027  1.8533  1.2405  0.2514
18519TIP3   OH277047   5.408   1.046  16.172 -0.0079  0.2884 -0.0525
18519TIP3    H177048   5.454   0.963  16.156  1.5348  0.7962  1.5968
18519TIP3    H277049   5.378   1.074  16.085  2.6185 -0.1876 -1.1574
18520TIP3   OH277050   0.064   3.715   4.096 -0.0433 -0.1238 -0.0449
18520TIP3    H177051  -0.025   3.736   4.125  0.0697  2.4696 -1.3896
18520TIP3    H277052   0.120   3.768   4.151  0.5717 -0.3973 -0.4064
18521TIP3   OH277053   1.842   3.117   4.565 -0.0654  0.6311 -0.4250
18521TIP3    H177054   1.789   3.171   4.507 -1.1924  1.0953  0.9994
18521TIP3    H277055   1.786   3.103   4.642  1.1716 -0.4516  0.2951
18522TIP3   OH277056   5.101   4.434  12.884 -0.6078 -0.1735 -0.2496
18522TIP3    H177057   5.068   4.522  12.898  0.1647  0.2409 -0.9997
18522TIP3    H277058   5.119   4.429  12.790  1.9748 -0.2050  0.2214
18523TIP3   OH277059   4.315   5.879  16.399  0.0307 -0.5557  0.1888
18523TIP3    H177060   4.265   5.961  16.401  0.3592 -0.3396 -0.1833
18523TIP3    H277061   4.381   5.894  16.331  2.1989  0.1089  2.3443
18524TIP3   OH277062   3.188   6.424  11.780 -0.0762  0.6098 -0.6536
18524TIP3    H177063   3.147   6.507  11.757 -0.5989  0.0125 -1.9227
18524TIP3    H277064   3.143   6.359  11.725 -1.2097 -0.8333  1.8625
18525TIP3   OH277065   3.375   3.658   2.857  0.1188  0.0183  0.4627
18525TIP3    H177066   3.307   3.592   2.871  1.3184 -1.0480  1.4005
18525TIP3    H277067   3.363   3.720   2.930  0.0394 -0.0530  0.5105
18526TIP3   OH277068   0.853   5.122  15.976 -0.0510 -0.3049  0.4879
18526TIP3    H177069   0.890   5.098  16.061 -0.5558 -0.8725  0.5493
18526TIP3    H277070   0.929   5.124  15.917  0.1993 -0.6316  0.7936
18527TIP3   OH277071   4.826   3.112  13.103 -0.2639  0.9812 -0.2265
18527TIP3    H177072   4.858   3.136  13.190  0.2466  1.1598 -0.4610
18527TIP3    H277073   4.882   3.160  13.043  0.2740 -0.1988 -0.6813
18528TIP3   OH277074   0.844   6.270  12.807 -0.4389  0.4991  0.1971
18528TIP3    H177075   0.903   6.195  12.801 -1.9401 -0.5615 -2.7926
18528TIP3    H277076   0.902   6.346  12.809  1.1344 -0.4909 -3.1268
18529TIP3   OH277077   2.590   2.189  15.356  0.0916 -0.2575 -0.2255
18529TIP3    H177078   2.542   2.252  15.303 -0.7261 -0.9445 -0.3232
18529TIP3    H277079   2.640   2.242  15.417  0.8233  0.5362 -1.4969
18530TIP3   OH277080   2.074   6.558   3.241  0.8713  0.6242 -0.3055
18530TIP3    H177081   2.100   6.563   3.333  0.2081 -2.3279  0.0926
18530TIP3    H277082   1.985   6.523   3.244  0.4563  1.5073 -2.0489
18531TIP3   OH277083   1.411   0.437  14.711  0.7683  0.6547 -0.1471
18531TIP3    H177084   1.453   0.446  14.625 -2.4774  2.3029 -1.6613
18531TIP3    H277085   1.420   0.524  14.750 -2.5873  1.5370 -1.2083
18532TIP3   OH277086   6.361   5.971   0.275 -0.0236  0.6045 -0.6249
18532TIP3    H177087   6.270   5.994   0.259 -0.7061 -0.8962  1.0271
18532TIP3    H277088   6.374   5.891   0.224 -0.4857 -0.8229  1.4592
18533TIP3   OH277089   0.212   3.272  13.381 -0.3277  0.1837 -0.2451
18533TIP3    H177090   0.132   3.268  13.433 -0.1293  0.0890  0.0538
18533TIP3    H277091   0.228   3.182  13.352 -0.9680  0.3935 -1.2833
18534TIP3   OH277092   5.277   0.792   5.489  0.0016 -0.2148 -0.1164
18534TIP3    H177093   5.201   0.828   5.536 -0.7840 -1.9227 -0.0679
18534TIP3    H277094   5.311   0.867   5.439 -1.4936  0.6510  0.1318
18535TIP3   OH277095   5.635   6.168   4.067 -0.0200  0.2907 -0.6782
18535TIP3    H177096   5.632   6.255   4.025  0.5313 -1.6077 -4.9003
18535TIP3    H277097   5.544   6.137   4.064 -0.0124  0.2137 -0.2176
18536TIP3   OH277098   4.248   1.514  16.573  0.8398  0.0494 -0.1085
18536TIP3    H177099   4.324   1.470  16.612  1.1235  0.5440 -0.1002
18536TIP3    H277100   4.261   1.507  16.479  2.1962  2.3261 -0.1356
18537TIP3   OH277101   5.867   5.234   1.836  0.5219  0.2431 -0.2659
18537TIP3    H177102   5.861   5.303   1.770 -1.0612 -1.3386 -1.8298
18537TIP3    H277103   5.946   5.184   1.811  1.8808  1.6643  1.0847
18538TIP3   OH277104   0.140   4.242  15.631 -0.1887 -0.2295  0.7463
18538TIP3    H177105   0.220   4.223  15.584  0.0578 -0.2783  1.1836
18538TIP3    H277106   0.073   4.189  15.588 -0.0371 -0.0024  0.2267
18539TIP3   OH277107   3.472   4.344   2.221 -0.1448  0.2657  0.3412
18539TIP3    H177108   3.532   4.287   2.172  0.0880  0.5682  0.2776
18539TIP3    H277109   3.391   4.293   2.227 -0.2238  0.2829 -0.4963
18540TIP3   OH277110   4.055   3.227   0.770  0.1088 -0.8564  0.0019
18540TIP3    H177111   4.019   3.293   0.711  0.3098 -1.9662 -1.3824
18540TIP3    H277112   4.050   3.268   0.857 -1.7201  0.1556 -0.5510
18541TIP3   OH277113   4.634   3.683  16.339 -0.4977  0.0662  0.0393
18541TIP3    H177114   4.574   3.671  16.265 -0.0537 -0.9468 -0.1678
18541TIP3    H277115   4.662   3.594  16.362  1.4894  0.5648 -0.3433
18542TIP3   OH277116   2.460   2.974  14.596 -0.3525 -0.2377  0.4716
18542TIP3    H177117   2.528   2.978  14.664 -0.0635 -2.7736  0.4096
18542TIP3    H277118   2.458   3.062  14.559  2.8980 -0.0635  0.5073
18543TIP3   OH277119   3.155   3.300   5.600  0.3552  0.9929  0.0782
18543TIP3    H177120   3.199   3.223   5.635 -1.9135 -0.1428  0.5121
18543TIP3    H277121   3.087   3.321   5.665 -1.9347  0.6615 -2.1316
18544TIP3   OH277122   4.257   3.758   4.198 -0.4725 -0.2349  0.4873
18544TIP3    H177123   4.259   3.693   4.268 -0.3809 -1.7400 -0.8938
18544TIP3    H277124   4.218   3.835   4.239  1.6194 -0.3200  2.8189
18545TIP3   OH277125   3.681   4.652   4.777  0.2614  0.5297 -0.2995
18545TIP3    H177126   3.681   4.694   4.691  1.9855 -0.0624 -0.6134
18545TIP3    H277127   3.623   4.706   4.830  0.4283  1.8295 -1.4072
18546TIP3   OH277128   1.012   2.959  14.125  0.6521 -0.0562 -0.3535
18546TIP3    H177129   0.973   2.902  14.059 -2.3744  1.4599  0.0589
18546TIP3    H277130   1.099   2.979  14.091  0.3796 -1.9414 -2.2619
18547TIP3   OH277131   4.540   2.403   6.300  0.3224 -0.1330 -0.3481
18547TIP3    H177132   4.451   2.431   6.319  0.6378  0.8774 -0.2846
18547TIP3    H277133   4.575   2.373   6.384  0.6880  1.3754  0.0679
18548TIP3   OH277134   2.474   4.271  17.130  0.1496 -0.6297  0.1871
18548TIP3    H177135   2.506   4.227  17.209 -0.9215 -3.1768 -0.7435
18548TIP3    H277136   2.512   4.221  17.058 -0.1575  0.7051 -0.9166
18549TIP3   OH277137   6.680   1.921  11.550 -0.5390 -0.6312  0.1893
18549TIP3    H177138   6.722   1.883  11.472 -0.5757 -0.2166 -0.0378
18549TIP3    H277139   6.688   1.854  11.617  0.8669 -0.4094  0.2688
18550TIP3   OH277140   0.320   0.762  11.974  0.1816 -0.4212  1.2859
18550TIP3    H177141   0.342   0.758  11.880 -1.7158  1.5982  0.7139
18550TIP3    H277142   0.289   0.851  11.987  0.0816 -0.8033  3.7976
18551TIP3   OH277143   5.111   4.263   3.667 -0.1330  0.7222  0.0604
18551TIP3    H177144   5.167   4.185   3.667  0.3450  1.0540 -1.3781
18551TIP3    H277145   5.050   4.248   3.740 -0.4505 -1.2977 -0.5698
18552TIP3   OH277146   2.557   3.397  15.856  0.2449  0.2414 -0.0645
18552TIP3    H177147   2.539   3.405  15.950  1.2414 -1.0454  0.2510
18552TIP3    H277148   2.505   3.321  15.829  0.9320 -0.1563 -0.2837
18553TIP3   OH277149   0.957   4.169  11.407  0.2976 -0.0324 -0.0270
18553TIP3    H177150   0.862   4.177  11.417  0.2812 -0.1411 -0.0909
18553TIP3    H277151   0.972   4.186  11.314  0.2214 -1.1142 -0.2408
18554TIP3   OH277152   0.383   6.213   6.370 -0.6270 -0.7234 -0.6945
18554TIP3    H177153   0.406   6.151   6.300  0.7158  0.1606 -1.0541
18554TIP3    H277154   0.454   6.276   6.370 -0.9860 -0.3121  1.0253
18555TIP3   OH277155   4.463   6.691  15.184 -0.3793  0.4586  0.2920
18555TIP3    H177156   4.520   6.713  15.258 -1.7012 -0.7799  1.7242
18555TIP3    H277157   4.434   6.602  15.202 -1.0818  0.3010 -1.5147
18556TIP3   OH277158   5.738   6.133  11.210  0.1494 -0.1031 -0.6073
18556TIP3    H177159   5.662   6.192  11.215  1.1378  1.2865 -1.6140
18556TIP3    H277160   5.701   6.046  11.224 -1.4474  0.6689  0.2489
18557TIP3   OH277161   3.902   1.469  13.185  0.3353 -0.0081 -0.4356
18557TIP3    H177162   3.954   1.416  13.124  0.0039  1.4207 -2.0144
18557TIP3    H277163   3.964   1.532  13.221  0.5617 -0.9452  0.8397
18558TIP3   OH277164   2.759   5.584   1.947 -0.4228 -0.3252  0.0154
18558TIP3    H177165   2.685   5.622   1.900 -2.9265  0.6067  4.4196
18558TIP3    H277166   2.833   5.641   1.926 -1.6647  0.6166 -1.9450
18559TIP3   OH277167   3.341   4.400  12.734 -0.2990 -0.7032  0.2065
18559TIP3    H177168   3.323   4.484  12.691  1.3691  0.5917  1.9641
18559TIP3    H277169   3.303   4.410  12.822  0.8999 -1.3681  0.8057
18560TIP3   OH277170   5.643   3.289  16.187  0.1938  0.6519 -0.1630
18560TIP3    H177171   5.681   3.377  16.194 -0.6504  0.9311  1.1708
18560TIP3    H277172   5.566   3.292  16.244 -0.2966 -0.7168 -0.7373
18561TIP3   OH277173   6.352   0.178   3.045  0.0201 -0.2448 -0.6561
18561TIP3    H177174   6.306   0.216   3.120 -0.6536 -2.1315 -0.1033
18561TIP3    H277175   6.433   0.143   3.081 -0.1979 -0.9582 -0.8643
18562TIP3   OH277176   4.485   4.414   3.660  0.0774  0.2210  0.3084
18562TIP3    H177177   4.442   4.346   3.608 -0.2222  1.2011 -0.7377
18562TIP3    H277178   4.546   4.366   3.715  0.8166 -0.8131 -1.3526
18563TIP3   OH277179   6.799   2.535  11.258 -0.2088  0.2857 -0.0614
18563TIP3    H177180   6.792   2.445  11.226 -0.2186  0.0240  0.6723
18563TIP3    H277181   6.881   2.568  11.220 -0.2241 -0.0201 -0.3575
18564TIP3   OH277182   3.165   4.828   5.564 -0.6382 -0.3338 -0.0206
18564TIP3    H177183   3.207   4.787   5.488 -2.3322 -2.6129  0.1997
18564TIP3    H277184   3.190   4.773   5.638  1.6466  2.3296  1.2547
18565TIP3   OH277185   1.916   0.239  15.468 -0.1894 -0.1202 -0.5663
18565TIP3    H177186   1.991   0.180  15.465 -0.4575 -0.4206 -1.7036
18565TIP3    H277187   1.853   0.195  15.525 -0.7964 -1.4418 -2.2181
18566TIP3   OH277188   5.754   6.309   5.111 -0.0394 -0.0355 -0.2975
18566TIP3    H177189   5.847   6.292   5.127 -0.2782 -0.4123  0.7140
18566TIP3    H277190   5.716   6.223   5.092 -0.6092 -0.2043  1.5311
18567TIP3   OH277191   3.258   3.248   4.250 -0.3476 -0.0376  0.5884
18567TIP3    H177192   3.246   3.289   4.164  2.3971  0.5714  0.4408
18567TIP3    H277193   3.318   3.175   4.234  0.1916  0.0786  1.9701
18568TIP3   OH277194   6.305   3.730  11.658 -0.4075  0.6232 -0.2683
18568TIP3    H177195   6.375   3.754  11.719  0.6227 -1.8999 -0.3975
18568TIP3    H277196   6.330   3.773  11.576  0.2166  0.9644  0.0942
18569TIP3   OH277197   5.881   2.028  14.517 -0.3923  0.3743 -0.3813
18569TIP3    H177198   5.799   2.065  14.550  0.1698 -0.1999  1.7165
18569TIP3    H277199   5.945   2.047  14.585  0.6888 -1.3279 -0.9100
18570TIP3   OH277200   5.866   0.913   5.016  0.0816  0.2700 -0.6306
18570TIP3    H177201   5.920   0.979   5.060  0.8037 -0.4165 -0.4618
18570TIP3    H277202   5.857   0.944   4.926  0.9322  0.2972 -0.7087
18571TIP3   OH277203   0.246   3.319   4.681 -0.1539 -0.4132 -0.7249
18571TIP3    H177204   0.286   3.365   4.754 -0.8244  1.9055 -1.7813
18571TIP3    H277205   0.160   3.293   4.714 -0.1103 -0.1602 -0.4065
18572TIP3   OH277206   3.594   4.319   2.751 -0.3664  0.4789 -0.0017
18572TIP3    H177207   3.594   4.332   2.656 -1.8456 -0.7986 -0.1922
18572TIP3    H277208   3.675   4.271   2.768 -0.7533 -0.4576 -0.7840
18573TIP3   OH277209   5.874   6.346   0.225  0.1085  0.3225  0.0981
18573TIP3    H177210   5.909   6.280   0.167 -0.6940  0.9884 -1.1619
18573TIP3    H277211   5.912   6.428   0.194 -0.2742  0.6710  0.5460
18574TIP3   OH277212   3.684   3.112   4.552 -0.2789 -0.2244 -0.2231
18574TIP3    H177213   3.641   3.030   4.578  0.3499 -0.2444  0.8016
18574TIP3    H277214   3.775   3.100   4.581 -0.4706  1.3414  1.0980
18575TIP3   OH277215   2.777   2.283   5.717  0.4045 -1.0388 -0.7204
18575TIP3    H177216   2.734   2.213   5.765  0.0690  0.5882  1.4420
18575TIP3    H277217   2.864   2.249   5.695  0.1991 -2.1533  0.1950
18576TIP3   OH277218   3.106   1.625  13.574  0.1505 -0.4046  0.5297
18576TIP3    H177219   3.037   1.656  13.515  1.5924 -1.0779 -1.5692
18576TIP3    H277220   3.077   1.537  13.599 -0.6587  0.0316  1.1520
18577TIP3   OH277221   2.731   3.351   4.439 -0.2431 -0.5230  0.1355
18577TIP3    H177222   2.766   3.425   4.390  1.2842 -2.0079 -1.1232
18577TIP3    H277223   2.636   3.358   4.431 -0.0761  0.6901 -0.8730
18578TIP3   OH277224   5.164   0.342  15.987  0.2138 -0.3386  0.0255
18578TIP3    H177225   5.234   0.402  15.961 -0.4069  0.5051  0.2682
18578TIP3    H277226   5.200   0.293  16.060  0.9922 -0.7820 -0.6468
18579TIP3   OH277227   4.565   6.765   4.558 -0.5917  0.3358  0.2291
18579TIP3    H177228   4.649   6.810   4.564 -0.6410  0.5966 -0.9467
18579TIP3    H277229   4.507   6.829   4.516 -1.2909  0.0445  0.7573
18580TIP3   OH277230   2.190   6.045   2.264  0.3905  0.4665 -0.1107
18580TIP3    H177231   2.188   6.136   2.233  0.9137  0.8329  0.9134
18580TIP3    H277232   2.264   6.006   2.217  0.6796  0.7969  0.0648
18581TIP3   OH277233   1.847   4.161   4.124 -0.1706 -0.2677 -0.3511
18581TIP3    H177234   1.923   4.113   4.156 -0.3223 -0.4235 -0.2274
18581TIP3    H277235   1.772   4.107   4.148 -0.5285  1.1993  1.9396
18582TIP3   OH277236   1.256   4.933  15.985 -0.3341 -0.0176  0.4038
18582TIP3    H177237   1.333   4.949  16.039 -1.0452  0.6390  1.2510
18582TIP3    H277238   1.189   4.905  16.047 -0.4754 -1.6459 -0.4691
18583TIP3   OH277239   0.555   6.117   4.002 -0.2148  0.1927  0.1985
18583TIP3    H177240   0.577   6.192   4.058  0.1959 -0.4673  0.9198
18583TIP3    H277241   0.538   6.045   4.063 -1.3150 -0.1227 -0.4669
18584TIP3   OH277242   1.269   3.972   6.772 -0.3844 -0.0006  0.5007
18584TIP3    H177243   1.173   3.977   6.768 -0.2972  3.0359  0.9973
18584TIP3    H277244   1.293   4.039   6.836  2.0831 -0.7497  0.3909
18585TIP3   OH277245   0.332   5.330   5.728 -0.1183  0.3671 -0.0390
18585TIP3    H177246   0.423   5.347   5.702 -0.6521 -0.7138 -2.7721
18585TIP3    H277247   0.293   5.417   5.735  0.8096  0.7954 -0.1420
18586TIP3   OH277248   0.910   0.757   2.564  0.5004 -0.4888  0.4728
18586TIP3    H177249   0.899   0.835   2.619 -0.9741  1.2338 -2.1510
18586TIP3    H277250   0.965   0.788   2.491 -0.7728 -1.6818 -1.0149
18587TIP3   OH277251   3.489   6.255   4.224  0.2339 -0.0974  0.2250
18587TIP3    H177252   3.580   6.285   4.227  1.2508 -3.0583  0.6681
18587TIP3    H277253   3.470   6.245   4.130  0.6182 -0.1965  0.1572
18588TIP3   OH277254   5.831   6.538   2.977  0.4617  0.5487  0.0747
18588TIP3    H177255   5.803   6.621   3.016 -0.2484  0.8828 -1.1114
18588TIP3    H277256   5.892   6.564   2.907  0.8979  0.0214  0.2564
18589TIP3   OH277257   3.863   6.498   3.431  0.1027 -0.1730  0.4347
18589TIP3    H177258   3.940   6.452   3.464  0.3945  1.0737  1.5417
18589TIP3    H277259   3.817   6.433   3.378 -0.1738 -2.1022  2.9807
18590TIP3   OH277260   2.126   0.956  16.517  0.0899 -0.2425  0.4602
18590TIP3    H177261   2.153   0.917  16.434  0.4592  1.2762 -0.1492
18590TIP3    H277262   2.115   0.881  16.576 -0.2277 -1.3387 -0.9604
18591TIP3   OH277263   3.464   2.518  12.206 -0.5847  0.2439 -0.2020
18591TIP3    H177264   3.376   2.484  12.193 -0.6932 -0.5125  2.2022
18591TIP3    H277265   3.494   2.475  12.286  0.8883  2.6168  0.5667
18592TIP3   OH277266   2.379   4.200   5.638  0.3575 -0.2005 -0.2242
18592TIP3    H177267   2.329   4.119   5.645  0.5377 -0.2418  0.6213
18592TIP3    H277268   2.403   4.222   5.728 -0.6551  1.3990 -0.3136
18593TIP3   OH277269   2.606   0.076  15.527 -0.4444 -0.1311 -0.8167
18593TIP3    H177270   2.687   0.098  15.481 -0.7095  1.1277 -0.7252
18593TIP3    H277271   2.537   0.093  15.462 -0.6069 -1.7430 -1.0798
18594TIP3   OH277272   1.407   2.501  16.276  0.5513 -0.2478 -0.0031
18594TIP3    H177273   1.337   2.560  16.250 -0.3429 -1.5645 -0.6389
18594TIP3    H277274   1.375   2.414  16.252  2.2778 -0.8883 -0.0467
18595TIP3   OH277275   0.576   4.938  15.369  0.5455 -0.2260 -0.1321
18595TIP3    H177276   0.569   4.988  15.450  1.3911  2.7537 -1.8104
18595TIP3    H277277   0.508   4.975  15.312  2.7332  0.7201 -2.2246
18596TIP3   OH277278   0.750   3.654  17.263 -0.4757  0.2890 -0.8086
18596TIP3    H177279   0.770   3.613  17.347  1.0668  1.2762 -0.6699
18596TIP3    H277280   0.710   3.738  17.285  1.1370  1.1376 -1.0186
18597TIP3   OH277281   1.998   2.266   1.432  0.1966 -0.2155 -0.4231
18597TIP3    H177282   1.948   2.281   1.352 -1.3875  1.0187  0.7490
18597TIP3    H277283   1.955   2.191   1.474 -0.5640  0.6950  0.4670
18598TIP3   OH277284   1.837   5.308   5.725 -0.7508  0.2888  0.2392
18598TIP3    H177285   1.893   5.252   5.671 -0.2520 -1.0280  2.1001
18598TIP3    H277286   1.892   5.382   5.749 -0.5589  0.2009  0.0706
18599TIP3   OH277287   4.784   6.000  15.521 -0.1304 -0.6515  0.0243
18599TIP3    H177288   4.746   6.063  15.460  1.1592  2.4180  2.2807
18599TIP3    H277289   4.852   5.956  15.470 -1.4895 -0.7406 -1.7733
18600TIP3   OH277290   3.112   4.246  15.550 -0.1068  0.2630 -0.0682
18600TIP3    H177291   3.192   4.249  15.498  0.3319 -1.4333  0.5092
18600TIP3    H277292   3.140   4.257  15.640 -0.6114  0.4344  0.0742
18601TIP3   OH277293   4.116   5.774  11.535  0.3487 -0.4058 -0.0525
18601TIP3    H177294   4.043   5.808  11.586 -0.2968 -1.0000 -0.5848
18601TIP3    H277295   4.187   5.763  11.599 -1.1714 -3.4193  1.1876
18602TIP3   OH277296   6.225   2.947   3.252  0.5108  0.1643 -0.5731
18602TIP3    H177297   6.289   2.992   3.197  0.5543  0.1024 -0.5733
18602TIP3    H277298   6.246   2.854   3.242  0.1265  0.1133 -0.9475
18603TIP3   OH277299   1.425   0.808   0.188 -0.1399  0.1581  0.6883
18603TIP3    H177300   1.446   0.746   0.118  0.7266 -1.0585  1.9961
18603TIP3    H277301   1.331   0.799   0.200 -0.1525 -0.2792  0.2892
18604TIP3   OH277302   3.080   1.502  10.823 -0.5605 -0.0932  0.0563
18604TIP3    H177303   3.065   1.528  10.732 -1.2757  0.3107  0.2842
18604TIP3    H277304   3.081   1.585  10.871  1.1785 -0.1998  0.2320
18605TIP3   OH277305   1.014   4.632  11.338  0.6476 -0.9420  0.1821
18605TIP3    H177306   0.978   4.552  11.377 -1.6296 -0.1292 -0.1660
18605TIP3    H277307   0.983   4.702  11.396 -1.3843  0.1222 -2.1182
18606TIP3   OH277308   5.008   0.844  16.423 -0.4895  0.0358 -0.2986
18606TIP3    H177309   4.995   0.931  16.387 -2.4685 -0.3517 -0.5818
18606TIP3    H277310   5.051   0.795  16.353  1.3764  0.9806  0.1561
18607TIP3   OH277311   4.426   2.399   4.158  0.0072  0.2222  0.5037
18607TIP3    H177312   4.484   2.459   4.206  1.2757  0.1047 -0.8429
18607TIP3    H277313   4.356   2.454   4.125  0.2534  0.6678  0.7215
18608TIP3   OH277314   1.049   6.352   1.392 -0.4845 -0.3211 -0.5842
18608TIP3    H177315   1.113   6.419   1.369 -1.2309 -0.2900 -2.6255
18608TIP3    H277316   0.964   6.393   1.376 -0.9727 -1.3489 -0.6645
18609TIP3   OH277317   4.775   3.626   3.441 -0.2937 -0.4065  0.2489
18609TIP3    H177318   4.772   3.565   3.367 -0.4408 -0.1678  0.0548
18609TIP3    H277319   4.811   3.575   3.513 -0.3459 -0.7018  0.0679
18610TIP3   OH277320   3.901   3.799   1.896  0.1735 -0.0291 -0.7640
18610TIP3    H177321   3.950   3.719   1.876 -2.1985 -1.4336 -1.1954
18610TIP3    H277322   3.918   3.857   1.822  1.9853 -0.0767 -0.4014
18611TIP3   OH277323   6.715   4.473   4.386  0.4468  0.2780 -0.3768
18611TIP3    H177324   6.783   4.521   4.434  1.1869 -1.7856  0.6994
18611TIP3    H277325   6.642   4.467   4.447  0.5514 -0.4083 -0.3175
18612TIP3   OH277326   0.184   0.092  12.358  0.4233  0.0173 -0.0788
18612TIP3    H177327   0.222   0.128  12.438 -1.4714  0.9909  0.4221
18612TIP3    H277328   0.222   0.144  12.287  2.3165 -1.0306  0.1434
18613TIP3   OH277329   0.702   0.379  12.104 -0.1691  0.1761  0.2174
18613TIP3    H177330   0.726   0.424  12.185 -0.2060  0.5535  0.0172
18613TIP3    H277331   0.667   0.294  12.133 -0.0908  0.2724  0.5906
18614TIP3   OH277332   4.003   2.051   2.616 -0.7724 -0.0821  0.4171
18614TIP3    H177333   4.006   2.035   2.711  1.3084 -1.5061  0.1483
18614TIP3    H277334   4.086   2.095   2.597  1.0962 -4.0901 -1.4083
18615TIP3   OH277335   4.421   2.574   4.571  0.4179  0.2182 -0.2097
18615TIP3    H177336   4.346   2.523   4.542  0.3285  1.0987 -1.5322
18615TIP3    H277337   4.384   2.653   4.609  0.6611  0.5420 -0.6416
18616TIP3   OH277338   1.132   2.043   2.119  0.0516 -0.4070  0.3789
18616TIP3    H177339   1.125   1.951   2.143  0.8110 -0.5365  0.1176
18616TIP3    H277340   1.171   2.085   2.195 -1.9099  0.0225  1.1870
18617TIP3   OH277341   4.325   1.745  15.948 -0.4044 -0.1500  0.1960
18617TIP3    H177342   4.411   1.716  15.917  0.1935  1.2420  0.5261
18617TIP3    H277343   4.332   1.840  15.952 -1.9828 -0.0218  0.1928
18618TIP3   OH277344   0.915   1.203  13.692 -0.2606 -0.2768 -0.6459
18618TIP3    H177345   0.837   1.186  13.639 -0.6707 -0.1945 -0.0846
18618TIP3    H277346   0.952   1.284  13.656 -1.0976  0.3272 -0.1861
18619TIP3   OH277347   4.248   6.360   3.723 -0.7493  0.0525  0.4460
18619TIP3    H177348   4.322   6.392   3.671 -0.1749  0.3638  1.4366
18619TIP3    H277349   4.270   6.270   3.744 -0.7478  0.0799  0.5640
18620TIP3   OH277350   5.895   5.825   2.330  0.9341  0.5196 -0.1603
18620TIP3    H177351   5.911   5.740   2.288  0.1331 -0.0905  0.7485
18620TIP3    H277352   5.940   5.888   2.274  3.7668 -0.7824  0.5587
18621TIP3   OH277353   2.549   0.471   1.260  0.1205  0.1506  0.0064
18621TIP3    H177354   2.474   0.529   1.244 -1.3139 -1.2263  1.6584
18621TIP3    H277355   2.513   0.398   1.309  2.5919 -0.4634  0.9567
18622TIP3   OH277356   6.218   5.994   4.165  0.7865  0.1651  0.3386
18622TIP3    H177357   6.166   5.915   4.152 -0.4365  1.0173 -0.0347
18622TIP3    H277358   6.299   5.977   4.117  1.0119 -1.3024  1.1888
18623TIP3   OH277359   0.351   4.148  12.931  0.4334 -0.3805  0.0629
18623TIP3    H177360   0.375   4.237  12.955 -0.0702  0.0401 -0.9607
18623TIP3    H277361   0.310   4.112  13.010 -1.3000  1.0148 -0.1802
18624TIP3   OH277362   0.021   2.503  12.176 -0.6724  0.2683  0.0854
18624TIP3    H177363  -0.070   2.528  12.161 -0.5463  0.8740  0.3141
18624TIP3    H277364   0.063   2.583  12.207 -0.2784 -0.2411  0.9000
18625TIP3   OH277365   6.148   0.019  12.094 -0.0662  0.4095 -0.0821
18625TIP3    H177366   6.242   0.003  12.086  0.1609  1.6102  0.1789
18625TIP3    H277367   6.137   0.112  12.077 -1.1560  0.3765  0.3637
18626TIP3   OH277368   0.297   4.744   5.941 -0.5430 -0.0713 -0.0908
18626TIP3    H177369   0.389   4.765   5.961 -0.7615 -0.5293  1.3834
18626TIP3    H277370   0.302   4.667   5.885  0.0878  1.5418 -2.3705
18627TIP3   OH277371   4.456   5.650   3.105  0.2521  0.5125 -0.3791
18627TIP3    H177372   4.489   5.732   3.068 -2.7446  0.6725 -2.9645
18627TIP3    H277373   4.405   5.612   3.034 -0.5565 -2.3302  1.6592
18628TIP3   OH277374   1.737   3.094  12.387  0.0430 -0.0384 -0.4897
18628TIP3    H177375   1.734   3.024  12.453 -0.5072 -0.9030 -1.4206
18628TIP3    H277376   1.674   3.159  12.418 -1.1094 -1.0040 -0.7811
18629TIP3   OH277377   4.972   6.175   6.502 -0.1776 -0.4340 -0.1941
18629TIP3    H177378   5.042   6.185   6.566 -0.0299  1.6983 -0.6542
18629TIP3    H277379   4.892   6.173   6.554  0.0834 -0.7778  0.1923
18630TIP3   OH277380   2.451   4.917  16.171  0.1128 -0.1497  0.2897
18630TIP3    H177381   2.365   4.912  16.212  0.7115 -0.8332  1.5115
18630TIP3    H277382   2.508   4.867  16.230  1.4165  0.6212 -0.2989
18631TIP3   OH277383   1.897   1.456   2.049 -0.1517 -0.3440  0.2046
18631TIP3    H177384   1.834   1.517   2.088  1.8117  0.9773  1.4015
18631TIP3    H277385   1.939   1.507   1.979  0.1214 -0.9724 -0.0971
18632TIP3   OH277386   1.748   4.527   3.324  0.0687 -0.2648 -0.3995
18632TIP3    H177387   1.656   4.554   3.320 -0.5952 -2.1250  1.2666
18632TIP3    H277388   1.762   4.507   3.417  2.7485  1.8846 -0.2899
18633TIP3   OH277389   6.615   0.611   5.316 -0.1712 -0.2522  0.1564
18633TIP3    H177390   6.637   0.687   5.262  1.0525 -0.0435  0.9159
18633TIP3    H277391   6.543   0.568   5.271 -0.5727  1.1259 -0.5092
18634TIP3   OH277392   0.563   5.497  15.642 -0.1761 -0.2030 -0.0043
18634TIP3    H177393   0.637   5.442  15.666 -0.5050 -0.8737 -0.4696
18634TIP3    H277394   0.563   5.568  15.705 -0.5941 -1.5311  1.5201
18635TIP3   OH277395   4.320   4.062  12.584  0.4055  0.1546  0.4872
18635TIP3    H177396   4.357   4.063  12.672  1.0303 -1.2953  0.2602
18635TIP3    H277397   4.382   4.010  12.533  0.5532  1.7989 -1.0525
18636TIP3   OH277398   6.291   5.853  12.651 -0.1768  0.1364  0.1428
18636TIP3    H177399   6.318   5.802  12.727  0.6632 -1.4809 -1.2136
18636TIP3    H277400   6.364   5.912  12.634  1.4944 -2.4307 -1.9375
18637TIP3   OH277401   4.035   3.397  14.296 -0.2742  0.2387 -0.7344
18637TIP3    H177402   4.000   3.373  14.210 -1.9518 -0.2684  0.0676
18637TIP3    H277403   3.959   3.393  14.355  1.1889 -1.2516  1.1240
18638TIP3   OH277404   2.811   3.728   0.042 -0.3616 -0.2178  0.7992
18638TIP3    H177405   2.831   3.688   0.127  2.4383 -1.0928 -0.2160
18638TIP3    H277406   2.851   3.815   0.046  1.2303 -0.8864 -0.2037
18639TIP3   OH277407   5.008   0.698  16.652  0.1005  0.4277 -0.0432
18639TIP3    H177408   4.998   0.759  16.725 -1.8365  0.5080 -0.3439
18639TIP3    H277409   5.004   0.752  16.574  0.7075  0.1775 -0.2477
18640TIP3   OH277410   0.618   6.277  12.372  0.5626  0.0889 -0.1146
18640TIP3    H177411   0.543   6.217  12.371  1.1340 -0.6242 -0.2608
18640TIP3    H277412   0.661   6.262  12.288  0.2145  1.3353 -0.5252
18641TIP3   OH277413   0.693   6.693  11.828 -0.0205  0.4485 -0.2394
18641TIP3    H177414   0.720   6.784  11.810  0.1973  0.4447  0.0592
18641TIP3    H277415   0.621   6.701  11.891  0.1244  0.4104 -0.0657
18642TIP3   OH277416   0.858   6.146   1.620 -0.4591  0.3644  0.1292
18642TIP3    H177417   0.794   6.199   1.574 -0.6196  0.2018  0.1660
18642TIP3    H277418   0.834   6.154   1.713 -0.4662  0.2515  0.1375
18643TIP3   OH277419   5.179   3.813   1.542 -0.0664 -0.1138  0.2971
18643TIP3    H177420   5.169   3.887   1.482 -0.7824 -0.2286  0.2660
18643TIP3    H277421   5.092   3.803   1.582 -0.7758 -2.7815 -1.8118
18644TIP3   OH277422   0.959   1.403  14.259  0.0714  0.2621  0.0207
18644TIP3    H177423   0.962   1.461  14.182 -0.3177 -2.2182 -1.9475
18644TIP3    H277424   0.866   1.402  14.284  0.1692  0.9348  0.4070
18645TIP3   OH277425   2.018   4.423   3.058  0.0305 -0.4593 -0.6262
18645TIP3    H177426   2.089   4.471   3.016 -0.5912  0.6586 -0.4130
18645TIP3    H277427   1.955   4.407   2.988 -1.5968  2.5092  0.0885
18646TIP3   OH277428   0.711   3.604  15.607 -0.4161 -0.2124 -0.0259
18646TIP3    H177429   0.794   3.612  15.655  0.3296 -1.9139 -1.0134
18646TIP3    H277430   0.702   3.688  15.562  1.4375 -0.4963 -0.9727
18647TIP3   OH277431   6.714   5.677  14.473 -0.5580 -1.0247  0.2674
18647TIP3    H177432   6.783   5.723  14.425 -1.1697 -1.2658 -0.8700
18647TIP3    H277433   6.731   5.584  14.458 -1.1966 -1.0829 -0.1210
18648TIP3   OH277434   6.604   0.909   2.529  0.3955  0.5828  0.4228
18648TIP3    H177435   6.571   0.997   2.510  1.5152  1.3394  1.8923
18648TIP3    H277436   6.628   0.873   2.443 -1.4310  1.1402 -0.3372
18649TIP3   OH277437   3.797   2.842   2.257 -0.3024 -0.1500 -0.2669
18649TIP3    H177438   3.710   2.871   2.287 -1.8825 -2.9743 -1.8540
18649TIP3    H277439   3.816   2.898   2.182  0.2093  1.8308  1.2944
18650TIP3   OH277440   0.845   0.675   6.258 -0.0268  0.8497 -0.0423
18650TIP3    H177441   0.922   0.718   6.294 -0.3220  0.7655  0.7116
18650TIP3    H277442   0.780   0.681   6.328 -0.9013  1.4716 -0.8948
18651TIP3   OH277443   3.066   5.188   6.021 -0.0471  0.1739  0.3986
18651TIP3    H177444   3.050   5.226   5.935 -1.3056  1.0427  1.0052
18651TIP3    H277445   3.087   5.096   6.002  1.8626  0.8550 -0.9732
18652TIP3   OH277446   2.461   4.336  11.849 -0.1545 -0.0815 -0.6619
18652TIP3    H177447   2.550   4.352  11.881 -0.4055 -0.2615  0.1235
18652TIP3    H277448   2.427   4.423  11.829  0.2241 -0.0166 -1.0411
18653TIP3   OH277449   0.104   0.199   2.988 -0.2262 -0.0812  0.0678
18653TIP3    H177450   0.014   0.198   2.955 -0.5175  2.3193  0.6534
18653TIP3    H277451   0.099   0.255   3.066  1.6230 -0.6049  0.5766
18654TIP3   OH277452   0.601   4.709   5.421 -0.6837 -0.3536  0.2298
18654TIP3    H177453   0.607   4.663   5.505  2.1097 -1.0987 -0.2991
18654TIP3    H277454   0.657   4.658   5.363  0.4376  2.2698 -1.0727
18655TIP3   OH277455   0.682   4.551   1.198  0.5110  0.8534  0.1524
18655TIP3    H177456   0.655   4.575   1.109 -1.5542 -1.5996  0.0368
18655TIP3    H277457   0.763   4.502   1.185  1.7745  2.9722 -0.0906
18656TIP3   OH277458   2.191   5.809   6.683 -0.2092  0.2549  0.1475
18656TIP3    H177459   2.210   5.720   6.713  0.1747  0.5488  0.7597
18656TIP3    H277460   2.097   5.808   6.665  0.2428 -1.0767 -2.5030
18657TIP3   OH277461   4.735   5.378  13.275  0.0043  0.2535 -0.0816
18657TIP3    H177462   4.793   5.306  13.250 -0.5370  0.5638 -2.3220
18657TIP3    H277463   4.794   5.450  13.298  0.5677 -0.9601  2.5951
18658TIP3   OH277464   2.223   1.572  17.279  0.4985 -0.4899  0.2810
18658TIP3    H177465   2.218   1.573  17.183 -1.9305 -1.1581  0.3653
18658TIP3    H277466   2.236   1.664  17.303 -0.3616 -0.1228 -0.6386
18659TIP3   OH277467   6.774   3.922  13.530  0.0131 -0.5075 -0.0644
18659TIP3    H177468   6.851   3.964  13.569 -0.1467 -0.8315  0.6130
18659TIP3    H277469   6.789   3.927  13.436  0.2736  0.5477  0.0270
18660TIP3   OH277470   3.653   3.842   5.782  0.0782  0.7529 -0.1884
18660TIP3    H177471   3.696   3.801   5.706  0.0575 -1.3155  0.8697
18660TIP3    H277472   3.695   3.801   5.858 -1.7262  0.8501  0.8864
18661TIP3   OH277473   3.961   4.138  17.111  0.7252 -0.1675  0.3680
18661TIP3    H177474   3.913   4.221  17.119  0.1534 -0.0304 -3.6722
18661TIP3    H277475   3.977   4.112  17.202 -1.6639  2.8539  1.7785
18662TIP3   OH277476   6.429   5.826  15.633  0.1201  0.4664 -0.2050
18662TIP3    H177477   6.449   5.916  15.659 -0.0646  0.8835 -1.5087
18662TIP3    H277478   6.508   5.776  15.657  0.5817  1.1326 -0.3338
18663TIP3   OH277479   4.619   5.925  12.647 -0.3627 -0.4791 -0.0802
18663TIP3    H177480   4.669   5.952  12.569  0.4915 -0.6453  0.4028
18663TIP3    H277481   4.595   5.835  12.629 -1.6723  0.0242 -0.9114
18664TIP3   OH277482   5.546   4.167   5.727 -0.3921 -0.3148 -0.1109
18664TIP3    H177483   5.618   4.105   5.717 -1.0138 -0.8288 -1.5416
18664TIP3    H277484   5.495   4.158   5.646 -0.5243  1.9986 -0.3277
18665TIP3   OH277485   5.019   2.771   0.863  0.2053 -0.3459 -0.6141
18665TIP3    H177486   5.033   2.827   0.787  0.7110  0.4832  0.0877
18665TIP3    H277487   5.064   2.815   0.935 -2.5408  0.2695  0.7848
18666TIP3   OH277488   4.642   3.886  16.532  0.1467 -0.0293 -0.2571
18666TIP3    H177489   4.725   3.857  16.569  0.0872 -1.0165 -0.8816
18666TIP3    H277490   4.632   3.835  16.451 -1.1347 -0.0394 -0.1090
18667TIP3   OH277491   2.384   1.986  17.020  0.9257 -0.7667  0.5633
18667TIP3    H177492   2.434   1.916  16.979 -1.6754 -1.3065 -1.8812
18667TIP3    H277493   2.313   1.941  17.066  1.2526  0.0956  1.9556
18668TIP3   OH277494   1.948   4.352  11.874 -0.2981  0.0095  0.3506
18668TIP3    H177495   1.964   4.389  11.788 -2.5068  1.3201  0.4629
18668TIP3    H277496   1.898   4.272  11.856  0.4811 -0.4740  0.3417
18669TIP3   OH277497   4.004   4.082   3.895 -0.4496  0.1431  0.0087
18669TIP3    H177498   4.039   4.019   3.959 -0.2688 -0.2186 -0.4383
18669TIP3    H277499   3.927   4.120   3.938 -0.7621 -0.6357  0.1598
18670TIP3   OH277500   5.683   1.314   1.733  0.3434  0.7281  0.3299
18670TIP3    H177501   5.702   1.238   1.678  1.2064  1.8739 -0.9839
18670TIP3    H277502   5.610   1.358   1.689  0.2511  0.9938  0.7464
18671TIP3   OH277503   1.363   5.443   1.937 -0.1608  0.2286 -0.5925
18671TIP3    H177504   1.386   5.410   2.024  0.1608  1.8456 -0.0423
18671TIP3    H277505   1.315   5.371   1.895  0.9212 -1.0835  0.3839
18672TIP3   OH277506   2.111   0.785  12.064 -0.1035  0.0498 -0.0779
18672TIP3    H177507   2.031   0.763  12.111  0.6768  0.0340  1.2533
18672TIP3    H277508   2.146   0.701  12.035 -2.0012  0.2177 -3.1080
18673TIP3   OH277509   5.010   2.388  14.889 -0.4324 -0.5593 -0.0658
18673TIP3    H177510   5.075   2.357  14.952 -0.8854 -1.5494 -0.0785
18673TIP3    H277511   4.945   2.318  14.884 -0.1512 -0.7273 -1.9857
18674TIP3   OH277512   1.946   1.311  10.900 -0.1564  0.1465  0.0665
18674TIP3    H177513   1.975   1.332  10.989 -1.1250  1.1285  0.1654
18674TIP3    H277514   2.004   1.361  10.843 -0.2079  0.3391  0.1841
18675TIP3   OH277515   0.802   6.323  14.913  0.7937  0.0566  0.4725
18675TIP3    H177516   0.815   6.400  14.968 -0.7282  0.0508  0.8637
18675TIP3    H277517   0.847   6.252  14.960  1.8089  0.6180  0.3382
18676TIP3   OH277518   3.220   2.904   5.190 -0.0324 -0.0133 -0.0527
18676TIP3    H177519   3.308   2.883   5.160  0.3278 -2.2260  2.3015
18676TIP3    H277520   3.162   2.858   5.129  0.4755  0.4151 -0.8626
18677TIP3   OH277521   6.560   4.302  15.724 -0.1893 -0.3552 -0.0918
18677TIP3    H177522   6.575   4.352  15.804  0.4826 -1.3754  0.4305
18677TIP3    H277523   6.612   4.347  15.658  0.1172 -0.1459  0.2893
18678TIP3   OH277524   5.235   1.483   4.073  0.2807  0.1058 -0.0837
18678TIP3    H177525   5.167   1.479   4.139  0.0329 -0.6886 -0.3837
18678TIP3    H277526   5.193   1.522   3.996  0.0538 -0.7065 -0.3852
18679TIP3   OH277527   0.034   1.687  14.065  0.0770 -0.4639 -0.3310
18679TIP3    H177528   0.116   1.642  14.046  0.2227 -0.3020 -0.0741
18679TIP3    H277529   0.042   1.771  14.020 -0.2719 -0.7608 -0.9702
18680TIP3   OH277530   3.647   4.463  13.769 -0.7176 -0.3516 -0.8222
18680TIP3    H177531   3.615   4.378  13.739 -0.2799 -0.6982 -0.3239
18680TIP3    H277532   3.642   4.458  13.864  0.8035 -0.4266 -0.7246
18681TIP3   OH277533   3.496   1.479   2.670  0.1937 -0.6764 -0.3435
18681TIP3    H177534   3.402   1.496   2.663  0.4450  0.5422 -0.9218
18681TIP3    H277535   3.504   1.412   2.737 -1.1028 -0.8762 -0.3842
18682TIP3   OH277536   3.907   5.889   2.945  0.5242 -0.2350  0.5487
18682TIP3    H177537   3.859   5.844   2.876  1.3480  0.3628 -0.4211
18682TIP3    H277538   3.889   5.982   2.930  1.2613 -0.0604  0.7145
18683TIP3   OH277539   0.179   3.615   2.493 -0.7052  0.0727  0.1905
18683TIP3    H177540   0.145   3.601   2.581 -0.4372  0.9929  0.4395
18683TIP3    H277541   0.268   3.579   2.495 -0.3124  1.0591  0.5997
18684TIP3   OH277542   0.312   0.424  13.236  0.1258  0.0567 -0.0936
18684TIP3    H177543   0.321   0.332  13.213  1.6485  0.3992 -0.9709
18684TIP3    H277544   0.343   0.471  13.158  0.2226  1.2880  0.6678
18685TIP3   OH277545   6.743   2.316   4.316  0.3659 -0.1521 -0.2642
18685TIP3    H177546   6.709   2.253   4.253  2.2374 -1.0000 -0.4473
18685TIP3    H277547   6.776   2.388   4.263  2.0376 -0.9128 -0.2797
18686TIP3   OH277548   6.563   0.947   4.692 -0.4271  0.3345 -0.3237
18686TIP3    H177549   6.626   0.981   4.628  0.2088  0.7982  0.5325
18686TIP3    H277550   6.568   0.852   4.683 -0.2707  0.3954 -0.8947
18687TIP3   OH277551   5.942   0.660   1.261 -0.0990  0.5980  0.5958
18687TIP3    H177552   6.034   0.637   1.272 -0.2027 -0.2722 -0.2312
18687TIP3    H277553   5.942   0.753   1.239  0.7540  0.1141 -1.6086
18688TIP3   OH277554   1.151   1.504  12.540  0.2862 -0.2071  0.8937
18688TIP3    H177555   1.232   1.453  12.554 -0.8572 -2.4532 -0.4795
18688TIP3    H277556   1.171   1.561  12.466 -0.4357 -3.1941 -1.6941
18689TIP3   OH277557   0.352   2.677  16.981  0.1947  0.2647  1.0636
18689TIP3    H177558   0.437   2.713  17.008  0.8471 -0.3260 -0.1619
18689TIP3    H277559   0.344   2.594  17.027 -0.1018  0.6954  1.8079
18690TIP3   OH277560   5.462   4.707   2.649  0.2284 -0.2842  0.0650
18690TIP3    H177561   5.430   4.687   2.737 -0.2231  1.7187  0.4005
18690TIP3    H277562   5.557   4.716   2.659  0.1468  0.2460  0.4358
18691TIP3   OH277563   3.442   1.577   6.334  0.3957 -0.1371 -0.1533
18691TIP3    H177564   3.475   1.643   6.394 -0.6001 -0.8301  1.1707
18691TIP3    H277565   3.509   1.509   6.334  0.7044  0.1648 -0.3418
18692TIP3   OH277566   0.093   0.268  11.778 -0.2831  0.1267  0.2500
18692TIP3    H177567   0.077   0.362  11.778  0.1302  0.1958  0.1738
18692TIP3    H277568   0.119   0.247  11.688 -0.9536 -0.1609  0.1168
18693TIP3   OH277569   1.454   4.499  15.557 -0.3904 -0.2316 -0.1528
18693TIP3    H177570   1.526   4.442  15.583 -0.6825  0.3316  1.9674
18693TIP3    H277571   1.472   4.520  15.465  0.7361 -2.1705 -0.3972
18694TIP3   OH277572   0.414   3.003   5.472  0.1810  0.2931 -0.0878
18694TIP3    H177573   0.375   3.060   5.538 -0.1643 -0.5431  0.4500
18694TIP3    H277574   0.344   2.989   5.408  0.0915  0.0549  0.0593
18695TIP3   OH277575   3.441   4.172  13.291  0.4534  0.3257  0.4201
18695TIP3    H177576   3.370   4.122  13.251 -0.8917  2.7350 -0.3267
18695TIP3    H277577   3.508   4.177  13.223 -0.9399  2.5949 -0.8407
18696TIP3   OH277578   5.774   4.845  14.944 -0.0445  0.3168 -0.0964
18696TIP3    H177579   5.828   4.837  14.866 -0.5222 -2.7721 -0.1877
18696TIP3    H277580   5.709   4.911  14.922  1.5416  1.5326 -1.2478
18697TIP3   OH277581   1.281   4.233   2.044  0.5937  0.2876  0.5605
18697TIP3    H177582   1.198   4.198   2.075 -0.8530 -0.0035 -3.3554
18697TIP3    H277583   1.327   4.156   2.008  1.5639  0.8263  0.6337
18698TIP3   OH277584   3.923   2.219  15.335  0.4614 -0.2305  0.3758
18698TIP3    H177585   3.955   2.155  15.272 -0.6709  0.5475 -1.0043
18698TIP3    H277586   3.828   2.211  15.332  0.3801 -0.2566  2.0808
18699TIP3   OH277587   6.737   1.042   0.934  0.2643  0.0989  0.5269
18699TIP3    H177588   6.816   1.071   0.978  0.5428 -1.0021  0.7768
18699TIP3    H277589   6.737   1.089   0.851  1.0533  0.2855  0.6276
18700TIP3   OH277590   2.797   1.767  11.905 -0.3648  0.0743  0.2687
18700TIP3    H177591   2.862   1.766  11.835 -1.2306  0.6488 -0.5488
18700TIP3    H277592   2.779   1.859  11.920 -0.4698 -0.0584  0.9899
18701TIP3   OH277593   5.170   3.378  14.965  0.1523  0.4688  0.3284
18701TIP3    H177594   5.103   3.337  14.910  0.5236  0.0658  0.1750
18701TIP3    H277595   5.149   3.471  14.963 -0.3689  0.3493  0.2320
18702TIP3   OH277596   3.070   1.648  13.871 -0.2547 -0.1930 -0.4754
18702TIP3    H177597   3.031   1.638  13.784 -0.8506 -0.4485 -0.1858
18702TIP3    H277598   3.164   1.659  13.855  0.0609 -3.0748 -1.0184
18703TIP3   OH277599   4.541   0.311  13.807  0.0393 -0.5035  0.2766
18703TIP3    H177600   4.608   0.290  13.872 -1.2750  0.7393  2.0793
18703TIP3    H277601   4.521   0.403  13.822 -0.3551 -0.2173 -1.8594
18704TIP3   OH277602   3.402   1.640   0.153  0.2029 -0.7727 -0.3346
18704TIP3    H177603   3.497   1.634   0.164 -0.0358 -3.5660  0.4220
18704TIP3    H277604   3.372   1.689   0.230  0.9756 -0.1223 -0.4379
18705TIP3   OH277605   4.501   5.561   1.928  0.1258  0.3162 -0.6276
18705TIP3    H177606   4.499   5.477   1.973  2.5464 -1.0135 -2.8871
18705TIP3    H277607   4.411   5.576   1.901 -0.4022 -1.3655  0.1461
18706TIP3   OH277608   3.787   6.245   3.340  0.1718 -0.1334  0.1079
18706TIP3    H177609   3.781   6.222   3.433 -2.1807  0.0451  0.0188
18706TIP3    H277610   3.738   6.176   3.295  0.4121  0.3552 -0.9070
18707TIP3   OH277611   4.417   1.538   4.915  0.2579 -0.5523 -0.1027
18707TIP3    H177612   4.371   1.510   4.994  0.9382 -0.8062  0.2093
18707TIP3    H277613   4.412   1.462   4.856  2.3024 -1.4618  0.8313
18708TIP3   OH277614   2.861   1.280  12.062  0.1484 -0.2517  0.1537
18708TIP3    H177615   2.896   1.205  12.014 -0.6196  0.2032 -1.1357
18708TIP3    H277616   2.930   1.302  12.125  1.3550 -0.5956 -1.0138
18709TIP3   OH277617   6.142   6.799   1.622 -0.2408 -0.3421  0.0612
18709TIP3    H177618   6.150   6.722   1.678 -1.8213 -0.6509 -0.1021
18709TIP3    H277619   6.124   6.871   1.683  0.0411 -0.3090  0.1090
18710TIP3   OH277620   1.123   3.161   0.525  0.2163  0.6406 -0.1069
18710TIP3    H177621   1.037   3.203   0.518 -0.8752 -1.6815 -1.1893
18710TIP3    H277622   1.147   3.140   0.435 -0.2118 -2.7914  0.4997
18711TIP3   OH277623   2.303   1.796   2.598 -0.8179  0.7609 -0.1656
18711TIP3    H177624   2.372   1.782   2.663  0.7142  1.4835 -1.6062
18711TIP3    H277625   2.297   1.891   2.589 -1.6147  0.6873 -0.4664
18712TIP3   OH277626   3.377   5.728   1.615  0.4990  0.2016 -0.0788
18712TIP3    H177627   3.326   5.694   1.689  1.2866  1.1083  0.8995
18712TIP3    H277628   3.314   5.731   1.542 -0.5521  0.2271  0.8091
18713TIP3   OH277629   1.399   2.295   2.447  0.4826 -0.1196 -0.1822
18713TIP3    H177630   1.343   2.343   2.507  0.8604  0.3546 -0.2027
18713TIP3    H277631   1.447   2.233   2.502 -0.1254 -0.5882 -0.1792
18714TIP3   OH277632   4.833   0.918  11.928 -0.6514 -0.5020 -0.6451
18714TIP3    H177633   4.833   0.991  11.991 -1.2081 -0.2685 -0.9111
18714TIP3    H277634   4.922   0.882  11.933 -0.0005  0.9288 -1.3459
18715TIP3   OH277635   1.697   0.683   5.557 -0.0679  0.0527 -0.1730
18715TIP3    H177636   1.777   0.728   5.529 -1.0414  0.5177 -2.3093
18715TIP3    H277637   1.725   0.594   5.577  0.9394  0.0932 -1.3304
18716TIP3   OH277638   0.596   0.669  10.418  0.0021 -0.0664 -0.4653
18716TIP3    H177639   0.671   0.618  10.447 -0.6425 -1.0733 -0.5287
18716TIP3    H277640   0.627   0.716  10.341  0.6980 -0.1059 -0.2122
18717TIP3   OH277641   3.554   5.800  14.588 -0.0297 -0.0478  0.1050
18717TIP3    H177642   3.643   5.772  14.612 -0.1453  0.6210  1.3866
18717TIP3    H277643   3.568   5.871  14.526  0.3275 -0.2490 -0.0465
18718TIP3   OH277644   2.822   4.347  13.921  0.1970 -0.2735 -0.0017
18718TIP3    H177645   2.896   4.304  13.877 -1.1756  0.7521 -3.5007
18718TIP3    H277646   2.775   4.275  13.964  2.2844 -1.1476  0.8787
18719TIP3   OH277647   5.377   6.198   5.339 -0.2508  0.0678 -0.0453
18719TIP3    H177648   5.342   6.217   5.252  1.2830  2.7258 -0.1149
18719TIP3    H277649   5.308   6.227   5.400 -1.1327 -1.3770 -0.3286
18720TIP3   OH277650   6.782   4.927   0.810  0.2256  0.1456 -0.1388
18720TIP3    H177651   6.691   4.897   0.809 -0.0699  0.9986  0.2850
18720TIP3    H277652   6.803   4.943   0.718 -0.6703  1.7230 -0.0887
18721TIP3   OH277653   5.270   3.645  15.763 -0.0638 -0.4116  0.4055
18721TIP3    H177654   5.329   3.582  15.806 -0.9925 -0.0675  2.2437
18721TIP3    H277655   5.264   3.718  15.825 -0.9209  0.4091 -0.6293
18722TIP3   OH277656   3.591   0.545   6.166 -0.4456 -0.2896 -0.3579
18722TIP3    H177657   3.577   0.460   6.207  2.1793 -1.2731 -1.4203
18722TIP3    H277658   3.575   0.608   6.236 -0.1650 -1.7538  1.0562
18723TIP3   OH277659   6.621   3.570   5.664 -0.0575  0.9087 -0.0335
18723TIP3    H177660   6.601   3.653   5.621  0.3159  1.3853  0.6978
18723TIP3    H277661   6.685   3.593   5.731 -1.0094  0.2617  1.1024
18724TIP3   OH277662   1.389   0.353   2.468  0.1029  0.0971 -0.2717
18724TIP3    H177663   1.367   0.269   2.428  1.4633  0.9120 -2.8851
18724TIP3    H277664   1.311   0.408   2.455 -0.3013 -0.3480  0.2622
18725TIP3   OH277665   6.389   5.290   1.991  0.4834  0.8544 -0.7807
18725TIP3    H177666   6.371   5.229   2.063  0.6646 -0.3083 -1.7022
18725TIP3    H277667   6.385   5.377   2.031  1.1890  0.1915  0.7528
18726TIP3   OH277668   1.297   0.152   5.968 -0.4849  0.2942  0.2149
18726TIP3    H177669   1.207   0.135   5.997 -0.1546 -1.3016  0.3533
18726TIP3    H277670   1.309   0.095   5.893  0.9563 -0.7424  1.2004
18727TIP3   OH277671   2.738   0.087  12.245 -0.1485  0.1117 -0.0528
18727TIP3    H177672   2.771  -0.002  12.244  0.0781  0.2059 -0.7102
18727TIP3    H277673   2.668   0.088  12.180 -0.1286  0.4264 -0.0731
18728TIP3   OH277674   4.662   0.282  15.790  0.0939 -0.3586  0.1532
18728TIP3    H177675   4.675   0.210  15.852  0.1520 -2.2842 -2.0295
18728TIP3    H277676   4.567   0.294  15.788  0.0247 -0.8752  0.0149
18729TIP3   OH277677   6.731   1.760   2.477 -0.3191  0.0846  0.0325
18729TIP3    H177678   6.803   1.806   2.434  0.5129  0.3524  1.6865
18729TIP3    H277679   6.758   1.668   2.476  0.5543  0.3009  1.5623
18730TIP3   OH277680   6.378   0.073  11.710  0.1836  0.1483  0.1312
18730TIP3    H177681   6.358  -0.009  11.666  1.5735  0.2006 -0.6454
18730TIP3    H277682   6.390   0.050  11.802 -2.0878 -0.0746  0.3847
18731TIP3   OH277683   0.062   4.715   5.169  0.0124  0.1943 -0.3960
18731TIP3    H177684  -0.021   4.668   5.169  1.1937 -1.9919 -1.0241
18731TIP3    H277685   0.067   4.757   5.083 -0.0697 -0.3824 -0.6844
18732TIP3   OH277686   3.389   1.301  13.822  0.0193  0.3956  0.2387
18732TIP3    H177687   3.419   1.332  13.907  0.9920 -0.5939  0.2673
18732TIP3    H277688   3.421   1.367  13.760 -0.8493  1.2115  0.6454
18733TIP3   OH277689   6.226   3.972  17.254  0.6954 -0.4975 -0.3342
18733TIP3    H177690   6.315   3.980  17.288  0.4336  1.0062  0.0094
18733TIP3    H277691   6.194   4.062  17.249 -0.4653 -0.9620 -1.3764
18734TIP3   OH277692   1.993   2.828  16.393 -0.7356 -0.2014 -0.1447
18734TIP3    H177693   2.006   2.917  16.362 -1.2264 -0.6494 -1.7123
18734TIP3    H277694   1.915   2.833  16.449 -0.8511  0.3352 -0.3533
18735TIP3   OH277695   0.082   5.024   1.893 -0.4228 -0.5168  0.1125
18735TIP3    H177696   0.013   4.974   1.850  0.3027 -0.9914 -0.5008
18735TIP3    H277697   0.119   4.963   1.957 -0.1580 -0.4589  0.0133
18736TIP3   OH277698   2.633   3.839  12.853 -0.4408 -0.3262 -0.2102
18736TIP3    H177699   2.698   3.833  12.783 -0.4812 -2.5310 -0.0812
18736TIP3    H277700   2.562   3.781  12.826 -0.5869 -0.9916  1.5002
18737TIP3   OH277701   0.560   1.649  14.703  0.1486 -0.1716 -0.0570
18737TIP3    H177702   0.600   1.562  14.696 -0.4506 -0.6145  1.6949
18737TIP3    H277703   0.632   1.710  14.693  0.3576 -0.8087 -2.9313
18738TIP3   OH277704   6.163   5.861  15.522  0.0011  0.1279 -0.1353
18738TIP3    H177705   6.107   5.797  15.564  0.3406  0.2747  0.5489
18738TIP3    H277706   6.252   5.833  15.544  0.1869  0.1339 -0.8600
18739TIP3   OH277707   4.366   0.911  11.005 -0.2495  0.0658  0.2429
18739TIP3    H177708   4.314   0.954  10.938  0.5212  0.2207 -0.2684
18739TIP3    H277709   4.303   0.884  11.072 -1.0292 -0.1852 -0.5948
18740TIP3   OH277710   2.100   6.089   0.797 -0.4683  0.3873 -0.5810
18740TIP3    H177711   2.073   6.155   0.734 -0.8844  1.1067  0.3271
18740TIP3    H277712   2.191   6.111   0.818 -0.6964  0.8389 -0.0691
18741TIP3   OH277713   2.759   4.818  16.546 -0.4208  0.1452 -0.2249
18741TIP3    H177714   2.700   4.890  16.568 -0.2426  0.2974 -0.2506
18741TIP3    H277715   2.725   4.744  16.597 -1.0917  0.0350 -0.8183
18742TIP3   OH277716   0.857   5.120  15.338  0.2297 -0.1137 -0.1018
18742TIP3    H177717   0.801   5.122  15.415  0.2157  4.1999 -0.1127
18742TIP3    H277718   0.945   5.131  15.372  0.6357 -2.0144 -0.4668
18743TIP3   OH277719   0.730   1.529   0.142 -0.4647 -0.0137 -0.2360
18743TIP3    H177720   0.762   1.587   0.073 -1.5623  1.8302  0.7582
18743TIP3    H277721   0.804   1.471   0.162  0.4208  0.5838 -1.7255
18744TIP3   OH277722   0.198   2.110  11.050  0.2828 -0.2088 -0.7031
18744TIP3    H177723   0.278   2.149  11.085 -0.3240  0.8192 -0.4555
18744TIP3    H277724   0.196   2.137  10.958  0.1633 -0.1476 -0.6822
18745TIP3   OH277725   2.370   6.693  14.010  0.3843 -0.0562  0.4731
18745TIP3    H177726   2.372   6.626  14.077  0.5087  0.0071  0.5343
18745TIP3    H277727   2.461   6.721  14.001  0.2586  0.4694  0.8163
18746TIP3   OH277728   0.402   0.752   2.100 -0.6305  0.3350  0.1873
18746TIP3    H177729   0.493   0.729   2.085 -0.9523 -0.2269 -0.9714
18746TIP3    H277730   0.389   0.740   2.194  0.6985  1.2157  0.4989
18747TIP3   OH277731   5.931   1.342  17.248  0.2050 -0.2485  0.2783
18747TIP3    H177732   5.939   1.389  17.331  1.1447 -0.8406  0.5287
18747TIP3    H277733   5.845   1.300  17.253  0.7866 -1.3370  1.5180
18748TIP3   OH277734   0.622   1.961   6.528  0.2933  0.2376 -0.0865
18748TIP3    H177735   0.694   2.008   6.487  1.4886 -0.4723  1.1518
18748TIP3    H277736   0.586   2.024   6.591  0.1032  0.4477 -0.4051
18749TIP3   OH277737   3.508   5.863   5.579 -0.5606 -0.4955  0.3204
18749TIP3    H177738   3.476   5.822   5.659 -0.3948 -0.3772  0.4484
18749TIP3    H277739   3.603   5.869   5.591 -0.0873 -3.6041 -1.3079
18750TIP3   OH277740   1.578   2.808  10.402  0.3192  0.1226 -0.2294
18750TIP3    H177741   1.545   2.880  10.455  2.7701 -0.1444  1.7815
18750TIP3    H277742   1.616   2.850  10.325 -0.1653  0.8149 -0.0943
18751TIP3   OH277743   4.659   2.951  16.662  0.3960  0.4465  0.4651
18751TIP3    H177744   4.631   2.866  16.629  0.3013  0.1403  1.3051
18751TIP3    H277745   4.699   2.931  16.747 -1.4337  1.4664  1.5940
18752TIP3   OH277746   5.252   0.716  11.217 -0.1044 -0.1835  0.0607
18752TIP3    H177747   5.251   0.780  11.288  0.3454 -1.4510  1.2427
18752TIP3    H277748   5.162   0.712  11.187 -0.2543  0.5344  0.4098
18753TIP3   OH277749   2.126   1.878   1.179 -0.9908  0.2174 -0.1880
18753TIP3    H177750   2.180   1.800   1.172 -0.3453  0.7409 -1.1605
18753TIP3    H277751   2.153   1.919   1.262 -0.1851  0.2659 -0.4757
18754TIP3   OH277752   5.556   1.443   3.839  0.1175  0.5726 -0.3754
18754TIP3    H177753   5.505   1.523   3.826  0.0042  0.5221 -0.2475
18754TIP3    H277754   5.564   1.405   3.751 -1.0312 -0.0054 -0.2401
18755TIP3   OH277755   3.650   6.686  13.251 -0.0975  0.2931 -0.1018
18755TIP3    H177756   3.745   6.682  13.247 -0.1869 -1.0163 -1.5495
18755TIP3    H277757   3.622   6.675  13.160 -1.6268  1.1118  0.2469
18756TIP3   OH277758   0.902   0.338   1.103 -0.1201 -0.1032 -0.0404
18756TIP3    H177759   0.858   0.290   1.173 -0.1643  0.4682  0.3257
18756TIP3    H277760   0.866   0.426   1.108  0.8031  0.2752  0.0336
18757TIP3   OH277761   6.072   0.883   1.182  0.4811 -0.7774 -0.1127
18757TIP3    H177762   6.103   0.912   1.096  0.8033  1.0138  0.5875
18757TIP3    H277763   6.035   0.962   1.222  1.9641 -1.1729  2.1158
18758TIP3   OH277764   2.486   2.028   0.220 -0.6782  0.2882 -0.0092
18758TIP3    H177765   2.553   1.973   0.180 -1.6051 -0.7451 -0.1787
18758TIP3    H277766   2.449   2.078   0.147  1.1651  2.2320  0.3704
18759TIP3   OH277767   5.762   5.257  12.517  0.4534  1.3346 -0.1952
18759TIP3    H177768   5.853   5.228  12.517 -0.1711 -0.7230  1.0795
18759TIP3    H277769   5.728   5.227  12.432 -0.5883 -3.2666  1.6601
18760TIP3   OH277770   3.041   0.712  16.749  0.2929  0.0213  0.3234
18760TIP3    H177771   3.065   0.653  16.677 -0.2895  1.2936 -0.9383
18760TIP3    H277772   3.029   0.654  16.824  1.3010 -1.2969 -0.4956
18761TIP3   OH277773   5.386   2.646   3.334 -0.4282  0.2254  0.1492
18761TIP3    H177774   5.309   2.659   3.278  1.0812  1.7112 -1.6298
18761TIP3    H277775   5.458   2.633   3.273  0.9686  0.1422  1.7917
18762TIP3   OH277776   2.938   0.732   4.783  1.0678 -0.1730  0.2737
18762TIP3    H177777   2.948   0.807   4.724 -1.8539 -0.1077 -0.2241
18762TIP3    H277778   2.969   0.765   4.868  3.8945  0.1888 -0.8400
18763TIP3   OH277779   3.944   2.168   1.600  0.0412 -0.9360 -0.4098
18763TIP3    H177780   3.933   2.074   1.614  1.3016 -1.0143  0.1191
18763TIP3    H277781   3.984   2.175   1.514  0.9806 -0.9532  0.0172
18764TIP3   OH277782   2.807   3.789   3.593 -0.4281 -0.3865  0.3313
18764TIP3    H177783   2.833   3.819   3.506  0.6501  2.1705  1.4911
18764TIP3    H277784   2.833   3.697   3.595  2.1903  0.2635 -1.0490
18765TIP3   OH277785   5.218   5.841  13.394  0.8807 -0.3668  0.3758
18765TIP3    H177786   5.178   5.914  13.440  1.3960  0.2754 -0.1849
18765TIP3    H277787   5.161   5.827  13.318 -0.5058 -2.0407  1.6821
18766TIP3   OH277788   4.206   1.812  13.843 -0.2659  0.1218 -0.3345
18766TIP3    H177789   4.258   1.864  13.782 -0.5398 -0.5527 -1.1530
18766TIP3    H277790   4.116   1.819  13.811 -0.9435  2.5819  1.9952
18767TIP3   OH277791   5.803   2.867  16.618  0.0892 -0.2443 -0.9361
18767TIP3    H177792   5.718   2.872  16.576  0.0782 -0.5606 -0.9501
18767TIP3    H277793   5.791   2.912  16.702  0.2523  0.8667 -1.4908
18768TIP3   OH277794   0.491   3.760  14.466  0.3732  0.0903 -0.0488
18768TIP3    H177795   0.483   3.842  14.417 -1.6548 -0.0040  0.1068
18768TIP3    H277796   0.582   3.732  14.451  1.1755  2.4900  0.1032
18769TIP3   OH277797   6.259   5.284   0.880  0.1101  0.8362  0.0746
18769TIP3    H177798   6.222   5.345   0.817  0.0124  0.8351  0.1296
18769TIP3    H277799   6.296   5.340   0.949  0.9775  0.8623 -0.4005
18770TIP3   OH277800   5.639   2.262   5.293 -0.5137 -0.2174 -0.1958
18770TIP3    H177801   5.735   2.263   5.299 -0.4635  0.3314 -0.9613
18770TIP3    H277802   5.611   2.213   5.370  0.4670 -2.0011 -0.9333
18771TIP3   OH277803   3.898   4.457   1.070  0.6744  0.1104 -0.7785
18771TIP3    H177804   3.892   4.504   0.987  0.2373  0.3186 -0.6377
18771TIP3    H277805   3.961   4.387   1.055 -0.3360 -0.6250 -1.6601
18772TIP3   OH277806   0.803   4.945  15.710  0.2820  0.2072  0.3087
18772TIP3    H177807   0.794   4.972  15.801  1.8664 -1.4942  0.9877
18772TIP3    H277808   0.768   5.019  15.660  1.9474  2.3438  2.1902
18773TIP3   OH277809   3.309   1.758   3.645  0.3877  0.4646 -0.3326
18773TIP3    H177810   3.264   1.838   3.670  1.3374  0.6735  0.7365
18773TIP3    H277811   3.263   1.728   3.566 -1.7777  0.5029  0.8929
18774TIP3   OH277812   6.618   0.858   5.188 -0.3576 -0.3287  0.3138
18774TIP3    H177813   6.550   0.921   5.212  0.7313  0.4294  1.4599
18774TIP3    H277814   6.667   0.901   5.118  0.1287 -0.0628  0.8116
18775TIP3   OH277815   1.026   2.906  11.667  0.1694 -0.1040  0.3443
18775TIP3    H177816   1.044   2.997  11.689  1.7392 -0.4500  0.4911
18775TIP3    H277817   0.943   2.887  11.712 -0.6302  1.4985 -0.4107
18776TIP3   OH277818   4.168   1.149   5.428  0.2931  0.5179 -0.2868
18776TIP3    H177819   4.170   1.139   5.524  1.3112  2.3398 -0.0999
18776TIP3    H277820   4.076   1.158   5.407 -0.0107 -0.7219  0.4205
18777TIP3   OH277821   5.811   4.340  12.839 -0.4387  0.0110  0.3793
18777TIP3    H177822   5.868   4.398  12.890  1.1165 -1.8316  0.7657
18777TIP3    H277823   5.722   4.367  12.864  0.2657  1.2486  1.6535
18778TIP3   OH277824   1.496   4.718   5.446 -0.1195  0.1743  0.0955
18778TIP3    H177825   1.488   4.694   5.538 -0.2197  0.0664  0.0586
18778TIP3    H277826   1.515   4.812   5.447 -4.0837  1.0871  0.1415
18779TIP3   OH277827   3.499   6.663  10.691  0.4714  0.3264 -0.5402
18779TIP3    H177828   3.438   6.664  10.765  1.9717 -1.5460  0.7781
18779TIP3    H277829   3.453   6.615  10.623  0.3182 -0.8156  0.3434
18780TIP3   OH277830   2.699   5.586  16.453  0.1174  0.1025  0.2140
18780TIP3    H177831   2.761   5.513  16.442  0.5697  0.4223  0.6389
18780TIP3    H277832   2.615   5.550  16.425  0.8123  0.1957 -2.1367
18781TIP3   OH277833   0.795   5.990  14.987 -0.4964  0.5463  0.1443
18781TIP3    H177834   0.886   5.962  15.000 -0.9022 -0.8453  0.1104
18781TIP3    H277835   0.791   6.013  14.894  0.0635  1.5389  0.3611
18782TIP3   OH277836   3.414   0.848  10.923  0.2521  0.6630 -0.5106
18782TIP3    H177837   3.450   0.936  10.911 -0.5111  1.1081  0.3992
18782TIP3    H277838   3.380   0.848  11.013 -0.1160 -0.4272 -0.6437
18783TIP3   OH277839   2.365   5.734  15.408 -0.5365  0.1400 -0.3315
18783TIP3    H177840   2.406   5.813  15.374  0.1451  0.3000  0.8194
18783TIP3    H277841   2.423   5.707  15.480 -2.6397  0.5997  1.5927
18784TIP3   OH277842   6.195   1.259  15.466 -0.4204  0.0963  0.2579
18784TIP3    H177843   6.208   1.354  15.463 -0.7118  0.1037 -1.2901
18784TIP3    H277844   6.177   1.240  15.558 -0.4129  1.5476  0.5718
18785TIP3   OH277845   3.830   3.866   4.293  0.3495  0.5136  0.3671
18785TIP3    H177846   3.909   3.920   4.298 -0.3062  1.4252  1.0798
18785TIP3    H277847   3.862   3.779   4.269  1.4603  1.1184 -0.3758
18786TIP3   OH277848   6.422   5.936   5.910 -0.6635  0.2761  0.1455
18786TIP3    H177849   6.501   5.988   5.897  0.3573 -0.8914  1.5818
18786TIP3    H277850   6.368   5.988   5.969 -0.6771  0.7564 -0.2863
18787TIP3   OH277851   5.816   6.775   2.219 -0.4398 -0.2700 -0.3700
18787TIP3    H177852   5.825   6.869   2.235 -0.5162 -0.6319  2.0119
18787TIP3    H277853   5.756   6.768   2.145 -1.1422  1.5393  0.0197
18788TIP3   OH277854   0.150   4.187   5.145  0.4136 -0.0916 -0.7439
18788TIP3    H177855   0.057   4.167   5.145  0.4775 -0.3823  0.1677
18788TIP3    H277856   0.154   4.281   5.125 -0.1618  0.3231  1.0304
18789TIP3   OH277857   5.266   2.091   0.279 -0.7180 -0.3429 -0.2189
18789TIP3    H177858   5.270   1.996   0.290 -0.0960 -0.4045 -0.9612
18789TIP3    H277859   5.294   2.106   0.189 -0.7996  0.5493 -0.0989
18790TIP3   OH277860   6.165   5.292   4.993 -0.0264 -0.6037 -0.4230
18790TIP3    H177861   6.100   5.321   4.930  0.0958 -0.8714 -0.6750
18790TIP3    H277862   6.116   5.277   5.074 -0.1326  0.0305 -0.3711
18791TIP3   OH277863   2.369   0.368   4.076 -0.1330  0.2292 -0.6375
18791TIP3    H177864   2.309   0.427   4.032  2.1157  4.0846  1.1789
18791TIP3    H277865   2.438   0.350   4.011 -0.7836 -0.3955 -1.1661
18792TIP3   OH277866   5.021   1.428   1.995  0.1339  0.0417  0.4457
18792TIP3    H177867   5.002   1.336   2.012  0.6514  0.2091  1.9711
18792TIP3    H277868   4.935   1.468   1.981 -0.4178  0.0329  3.4238
18793TIP3   OH277869   4.064   2.485  14.785 -0.0215 -0.3090  0.0501
18793TIP3    H177870   4.007   2.497  14.861  2.2534  0.1897  1.7214
18793TIP3    H277871   4.056   2.568  14.737  0.3045  0.2752  0.9819
18794TIP3   OH277872   5.457   1.828  17.045 -0.3619  0.2710  0.3092
18794TIP3    H177873   5.485   1.797  17.131 -1.8588  0.5498  0.9191
18794TIP3    H277874   5.471   1.922  17.048 -2.1893  0.5486  0.9702
18795TIP3   OH277875   2.012   2.482   4.655  0.2810 -0.2535  0.0572
18795TIP3    H177876   2.086   2.500   4.712 -0.4166 -0.7126  1.1153
18795TIP3    H277877   1.937   2.473   4.714 -0.4739 -0.5794 -0.9304
18796TIP3   OH277878   5.708   3.541   1.682 -0.5370 -0.6641  0.5011
18796TIP3    H177879   5.666   3.487   1.615  0.8377 -2.0672  0.7410
18796TIP3    H277880   5.768   3.482   1.727  0.0275  0.7495  1.6609
18797TIP3   OH277881   6.391   6.384   0.201 -0.0066 -0.0270 -0.2682
18797TIP3    H177882   6.460   6.449   0.187 -1.9885  2.2768  0.3265
18797TIP3    H277883   6.421   6.333   0.277  1.0277  0.9123 -0.0269
18798TIP3   OH277884   1.685   6.405   6.540  0.0562  0.0294 -0.1039
18798TIP3    H177885   1.748   6.354   6.490  1.0009  1.5761 -0.5361
18798TIP3    H277886   1.622   6.436   6.475  0.2888  0.5801 -0.0717
18799TIP3   OH277887   6.728   6.419  13.612  0.0602 -0.9358 -0.1674
18799TIP3    H177888   6.794   6.438  13.545 -0.3566 -0.8997 -0.5659
18799TIP3    H277889   6.745   6.483  13.682 -0.3136 -0.1401 -0.7937
18800TIP3   OH277890   4.454   5.986   4.644  0.5503  1.5644  0.5253
18800TIP3    H177891   4.445   5.971   4.550  1.3970 -0.3228  0.7164
18800TIP3    H277892   4.496   6.072   4.650  1.2557  1.3395 -0.8625
18801TIP3   OH277893   1.202   5.964  14.804 -0.7483 -0.3189  0.2640
18801TIP3    H177894   1.227   5.896  14.866  0.9227 -0.8773 -1.0221
18801TIP3    H277895   1.171   5.917  14.727  2.4317  0.2797 -1.4736
18802TIP3   OH277896   1.038   5.518   0.657  0.0333  0.6866 -0.0950
18802TIP3    H177897   1.026   5.490   0.566 -1.4701  0.6812  0.0955
18802TIP3    H277898   0.993   5.451   0.708 -2.8802  2.9348  0.4185
18803TIP3   OH277899   3.173   5.583  12.053  1.0310 -0.0290  0.5501
18803TIP3    H177900   3.176   5.554  12.144  1.0287 -0.1227  0.5210
18803TIP3    H277901   3.098   5.536  12.016 -0.6104  2.0024  1.1952
18804TIP3   OH277902   3.516   6.449  17.064  0.2874 -0.3823  0.1977
18804TIP3    H177903   3.554   6.372  17.022  1.5859  0.0679  0.5104
18804TIP3    H277904   3.477   6.499  16.992  0.4658 -0.7559 -0.1593
18805TIP3   OH277905   0.148   4.650  11.501  0.2175  0.3831  0.1721
18805TIP3    H177906   0.147   4.723  11.439 -1.6311 -0.7889 -1.2252
18805TIP3    H277907   0.134   4.572  11.447  0.9017 -0.8972  1.7855
18806TIP3   OH277908   6.409   5.329  17.081  0.1918 -0.1352 -0.2881
18806TIP3    H177909   6.327   5.279  17.074  1.5838 -2.7967  1.6073
18806TIP3    H277910   6.404   5.371  17.167  2.1368 -2.8700  1.2244
18807TIP3   OH277911   5.718   5.730   4.057 -0.2976  0.1793 -0.6234
18807TIP3    H177912   5.745   5.792   4.125  1.8330 -0.5037 -0.7937
18807TIP3    H277913   5.729   5.778   3.975  0.9216 -0.2406 -0.7239
18808TIP3   OH277914   0.932   5.720   5.309 -0.1148  0.7369 -0.3669
18808TIP3    H177915   0.934   5.719   5.404 -1.0412 -0.3272 -0.3452
18808TIP3    H277916   0.985   5.796   5.284  2.0953 -0.3602  0.9092
18809TIP3   OH277917   1.888   5.397   1.995 -0.2136 -0.1564 -0.3477
18809TIP3    H177918   1.798   5.425   2.009 -0.2738 -0.5013 -0.0545
18809TIP3    H277919   1.908   5.423   1.905 -0.6293 -0.1570 -0.4370
18810TIP3   OH277920   1.752   3.810   5.259  0.2379 -0.0994 -0.3430
18810TIP3    H177921   1.793   3.896   5.252  1.4848 -0.6729 -0.2384
18810TIP3    H277922   1.671   3.817   5.208  0.7691  0.8696 -1.0648
18811TIP3   OH277923   0.628   6.535  13.329 -0.2546 -0.1461  0.1254
18811TIP3    H177924   0.619   6.480  13.251 -3.3315 -1.1597  1.1017
18811TIP3    H277925   0.627   6.473  13.402 -0.2271  0.9792  1.0967
18812TIP3   OH277926   5.412   3.346  13.470  0.5832 -0.7483  0.1963
18812TIP3    H177927   5.443   3.435  13.452  1.1009 -0.6145  1.6405
18812TIP3    H277928   5.447   3.327  13.557  0.0718 -2.1884  0.0851
18813TIP3   OH277929   5.842   6.484   4.799  0.0603 -0.2172 -0.3800
18813TIP3    H177930   5.833   6.579   4.800 -0.1521 -0.2393 -0.1883
18813TIP3    H277931   5.756   6.452   4.772  0.4964 -0.3086 -1.7084
18814TIP3   OH277932   0.801   3.327   4.987  0.1514  0.4610  0.4609
18814TIP3    H177933   0.726   3.339   5.045  2.1258  0.6009  3.0618
18814TIP3    H277934   0.841   3.413   4.981  0.7232  0.1619 -0.0705
18815TIP3   OH277935   5.794   2.662   5.345  0.7010 -0.6806  0.4883
18815TIP3    H177936   5.806   2.589   5.284 -1.4227 -0.4635 -0.2174
18815TIP3    H277937   5.772   2.736   5.289  0.1238 -0.1381  1.4298
18816TIP3   OH277938   6.559   6.700  15.338 -0.5745 -0.2950 -0.8278
18816TIP3    H177939   6.637   6.750  15.313  0.5021 -1.9729 -0.9719
18816TIP3    H277940   6.486   6.756  15.315  0.5531  0.6614 -2.2319
18817TIP3   OH277941   1.301   6.374  11.864 -0.4103 -0.2558  0.2269
18817TIP3    H177942   1.267   6.289  11.892  0.5269 -0.0671  1.9727
18817TIP3    H277943   1.390   6.355  11.833  0.0830  0.2173  1.3615
18818TIP3   OH277944   2.393   2.175   4.156  0.0486  0.4234 -0.1154
18818TIP3    H177945   2.400   2.221   4.239 -0.1098  0.7036 -0.2564
18818TIP3    H277946   2.391   2.082   4.179  1.3060  0.4410  0.1208
18819TIP3   OH277947   2.958   4.091   4.584 -0.1341  0.8210  0.4218
18819TIP3    H177948   3.004   4.152   4.640  0.3172  0.7139  0.1722
18819TIP3    H277949   3.024   4.061   4.521  0.4877 -2.2952  2.4328
18820TIP3   OH277950   1.270   0.542   6.691  0.8724 -0.3771  0.0796
18820TIP3    H177951   1.186   0.580   6.718  2.7161  2.0048  2.8642
18820TIP3    H277952   1.256   0.448   6.696 -1.4555 -0.0256  1.1009
18821TIP3   OH277953   3.990   2.340   2.682  0.2815 -0.7451 -0.4867
18821TIP3    H177954   3.977   2.282   2.607  0.3809 -2.2809  0.6352
18821TIP3    H277955   4.006   2.426   2.644  1.1109 -1.6403 -2.2536
18822TIP3   OH277956   0.619   6.141   4.531  0.6911 -0.6838 -0.0098
18822TIP3    H177957   0.713   6.134   4.513  0.5896 -1.3079 -0.3014
18822TIP3    H277958   0.608   6.229   4.568  1.5682 -1.0618  1.1465
18823TIP3   OH277959   5.981   4.191   1.250  0.4960  0.2375 -0.0529
18823TIP3    H177960   5.963   4.213   1.158  1.4113  1.1917 -0.0152
18823TIP3    H277961   5.897   4.159   1.283  0.4500 -1.2205 -1.5316
18824TIP3   OH277962   5.813   1.697  10.465  0.3038 -0.5263  0.1434
18824TIP3    H177963   5.735   1.752  10.476 -0.4668 -1.5944  0.1409
18824TIP3    H277964   5.781   1.608  10.482  1.7800 -0.8517  1.2976
18825TIP3   OH277965   2.997   0.184   1.561 -0.6535  0.1370 -0.1763
18825TIP3    H177966   2.970   0.093   1.562  0.4205 -0.1949 -0.1315
18825TIP3    H277967   2.956   0.221   1.483 -1.4459 -0.2699  0.0500
18826TIP3   OH277968   1.021   2.220  15.241 -0.0122 -0.5361  0.3997
18826TIP3    H177969   1.080   2.238  15.168 -0.7118 -0.2762 -0.1113
18826TIP3    H277970   0.991   2.306  15.269  0.8874 -0.5800  1.5345
18827TIP3   OH277971   1.501   4.773  11.661  0.2674  0.0381 -0.0021
18827TIP3    H177972   1.505   4.868  11.674  1.0667 -0.0893  0.7675
18827TIP3    H277973   1.587   4.749  11.627 -0.2951 -0.2745 -1.2284
18828TIP3   OH277974   2.580   1.026   5.606 -0.1028  0.1639  0.1519
18828TIP3    H177975   2.673   1.045   5.618  0.2812  0.1659 -2.5531
18828TIP3    H277976   2.567   0.939   5.645  1.5723 -0.9007 -1.6061
18829TIP3   OH277977   5.039   6.802   1.434 -0.4480 -0.2020 -0.5497
18829TIP3    H177978   4.946   6.814   1.415 -0.2778  3.0291  0.2952
18829TIP3    H277979   5.063   6.880   1.485  3.2101  0.1106 -2.5984
18830TIP3   OH277980   1.385   1.446   4.654 -0.8060  0.2748  0.3538
18830TIP3    H177981   1.418   1.518   4.600 -1.1579  0.9092  0.9858
18830TIP3    H277982   1.425   1.368   4.616 -0.6336  0.7700 -0.5061
18831TIP3   OH277983   5.832   2.331   4.417  0.1120 -0.1848  0.1784
18831TIP3    H177984   5.824   2.402   4.353  0.3409  0.6583  1.0790
18831TIP3    H277985   5.818   2.373   4.502 -0.8090 -1.4114  0.6488
18832TIP3   OH277986   0.018   6.232   6.576 -0.1057  0.0706 -0.5137
18832TIP3    H177987  -0.053   6.286   6.611 -0.2325 -0.4169 -0.0196
18832TIP3    H277988  -0.012   6.142   6.586  1.0071 -0.1871  0.6579
18833TIP3   OH277989   4.292   5.614  13.194 -0.0218  0.2718  0.1542
18833TIP3    H177990   4.286   5.596  13.288  2.6830  1.1090  0.5253
18833TIP3    H277991   4.270   5.707  13.185  2.6656  0.9760  0.3839
18834TIP3   OH277992   0.177   4.660  15.452 -0.1136 -0.2934 -0.2744
18834TIP3    H177993   0.082   4.654  15.437 -0.2881  1.7472 -0.1143
18834TIP3    H277994   0.204   4.736  15.401  1.0825  0.3755  1.3436
18835TIP3   OH277995   5.743   2.584   0.212 -0.1302  0.2717 -0.0131
18835TIP3    H177996   5.781   2.503   0.245 -1.5065 -0.0208  0.8845
18835TIP3    H277997   5.712   2.563   0.124  0.8379  0.2441 -0.3599
18836TIP3   OH277998   3.970   0.786  16.961  0.0150 -0.2557  0.5250
18836TIP3    H177999   3.920   0.864  16.985  0.9280  0.0307  1.5693
18836TIP3    H278000   4.009   0.807  16.877 -1.4109 -0.3883 -0.1740
18837TIP3   OH278001   4.803   3.725  16.701  0.2775  0.0128  0.2035
18837TIP3    H178002   4.786   3.737  16.795 -1.6585 -0.1581 -0.1021
18837TIP3    H278003   4.811   3.630  16.690 -1.4117 -0.1020 -0.1020
18838TIP3   OH278004   4.411   5.436   2.425 -0.6470  0.6347 -0.1179
18838TIP3    H178005   4.423   5.405   2.336 -1.2341  0.9356 -0.3063
18838TIP3    H278006   4.449   5.524   2.427  2.0396 -0.4854  0.7114
18839TIP3   OH278007   3.223   0.384   0.197  0.5571  0.1347  0.4655
18839TIP3    H178008   3.194   0.473   0.180 -0.4883 -0.5066 -1.2200
18839TIP3    H278009   3.182   0.332   0.128 -0.2487 -1.9238  2.4395
18840TIP3   OH278010   2.309   5.289  15.178 -0.8047 -0.0737 -0.0511
18840TIP3    H178011   2.402   5.306  15.166 -0.5211 -1.6184 -0.1375
18840TIP3    H278012   2.281   5.352  15.246 -0.1259  1.6207 -1.3168
18841TIP3   OH278013   5.153   5.325  11.814 -0.2742 -0.8009  0.6253
18841TIP3    H178014   5.122   5.294  11.899  0.1861 -1.2191  0.6449
18841TIP3    H278015   5.226   5.384  11.836  0.8251 -2.0754  0.4702
18842TIP3   OH278016   5.969   5.009   3.176 -0.3456 -0.3182 -0.2538
18842TIP3    H178017   5.941   4.936   3.121 -1.2577  0.5147 -0.9028
18842TIP3    H278018   6.043   4.974   3.226 -0.5479 -1.5752 -0.8152
18843TIP3   OH278019   1.939   1.934   3.662 -0.5872  0.2102  0.0904
18843TIP3    H178020   1.859   1.974   3.696 -0.6029 -0.0831  0.4078
18843TIP3    H278021   1.940   1.957   3.569 -1.9152 -1.1735 -0.2928
18844TIP3   OH278022   4.756   4.321  16.060 -0.2421  0.1746 -0.1343
18844TIP3    H178023   4.730   4.319  15.968 -0.0623  1.3494 -0.2155
18844TIP3    H278024   4.852   4.323  16.058 -0.1726 -1.5146  0.1209
18845TIP3   OH278025   1.055   2.497   0.181  0.2849  0.0158 -0.5133
18845TIP3    H178026   1.062   2.589   0.158 -1.1430 -0.0737 -1.4005
18845TIP3    H278027   0.962   2.485   0.202  0.2275 -1.4535 -1.5074
18846TIP3   OH278028   0.517   2.721   4.496  0.0618  0.3594  0.0723
18846TIP3    H178029   0.539   2.801   4.543 -1.6665  1.0344 -0.1954
18846TIP3    H278030   0.584   2.712   4.429  0.4728  1.3876  0.3503
18847TIP3   OH278031   2.803   2.607   2.564  0.1416 -0.8924  0.1195
18847TIP3    H178032   2.841   2.639   2.482 -1.1980 -0.7030 -0.4341
18847TIP3    H278033   2.834   2.516   2.570  1.0713 -0.5958 -0.0749
18848TIP3   OH278034   6.535   3.141   4.200 -0.1497  0.4902 -0.0119
18848TIP3    H178035   6.595   3.096   4.259 -2.3857 -0.5991  1.4942
18848TIP3    H278036   6.517   3.225   4.243 -0.7188  0.2741  0.1667
18849TIP3   OH278037   0.570   1.374  11.027  0.6146 -0.2272  0.0409
18849TIP3    H178038   0.516   1.315  10.973  0.6049 -0.6981  0.5619
18849TIP3    H278039   0.550   1.461  10.993 -1.2609 -0.3033  0.8894
18850TIP3   OH278040   3.334   4.930   6.312 -0.3022  0.0792  0.4882
18850TIP3    H178041   3.242   4.902   6.310 -0.8355  1.7766  0.3550
18850TIP3    H278042   3.349   4.955   6.403 -0.9177  2.7738 -0.1213
18851TIP3   OH278043   5.408   3.849   3.384  0.2400 -0.2488 -0.0008
18851TIP3    H178044   5.408   3.773   3.442 -0.5885 -1.6040 -1.7555
18851TIP3    H278045   5.317   3.879   3.383  0.4742  0.5046  0.3140
18852TIP3   OH278046   0.783   5.479  13.337  0.0351 -0.1729  0.2859
18852TIP3    H178047   0.748   5.545  13.277  1.2153  0.0825 -0.1539
18852TIP3    H278048   0.863   5.447  13.293 -0.0391 -1.2479  0.9088
18853TIP3   OH278049   3.533   5.184   1.469 -0.4112 -0.8587 -0.1264
18853TIP3    H178050   3.493   5.146   1.547 -0.7267  2.2233  1.2811
18853TIP3    H278051   3.462   5.187   1.405 -0.2128 -3.1873 -0.5069
18854TIP3   OH278052   3.036   4.218   5.168 -0.0107  0.2601 -0.1151
18854TIP3    H178053   2.967   4.267   5.213  0.2421 -0.1632  0.7545
18854TIP3    H278054   2.990   4.165   5.104 -0.4484  0.3360  0.1342
18855TIP3   OH278055   1.353   1.020   5.078  0.2199  0.2759  0.3684
18855TIP3    H178056   1.264   1.016   5.111 -0.0174 -0.6826 -0.3758
18855TIP3    H278057   1.380   1.111   5.093 -0.7124  0.4526  1.0060
18856TIP3   OH278058   3.189   2.689   3.943 -0.2623 -0.8212 -0.0445
18856TIP3    H178059   3.237   2.763   3.905 -0.5040 -1.3761 -1.4628
18856TIP3    H278060   3.140   2.727   4.016  0.3395  0.2341 -0.1786
18857TIP3   OH278061   5.791   6.098   3.085 -0.1471  0.4389 -0.1840
18857TIP3    H178062   5.876   6.056   3.089 -0.4504 -0.1047  0.7159
18857TIP3    H278063   5.753   6.084   3.172 -0.9229  1.1527 -0.3978
18858TIP3   OH278064   6.158   4.900  16.946  0.0522 -0.0633  0.0548
18858TIP3    H178065   6.153   4.959  16.871 -1.5016 -1.4598 -0.9932
18858TIP3    H278066   6.201   4.821  16.912  0.3915 -0.2687  0.9353
18859TIP3   OH278067   4.667   0.107   6.357  0.5056 -0.1546 -0.1722
18859TIP3    H178068   4.613   0.184   6.377 -0.5086 -0.4220 -1.7427
18859TIP3    H278069   4.676   0.061   6.441 -0.6686  0.5559  0.3586
18860TIP3   OH278070   1.391   2.906  14.892  0.1522  0.3632  0.1292
18860TIP3    H178071   1.383   2.832  14.832 -0.4571 -0.4395  1.1672
18860TIP3    H278072   1.482   2.935  14.883 -0.1924  0.9028 -1.8921
18861TIP3   OH278073   0.199   4.760   4.294 -0.6469 -0.0879  0.1879
18861TIP3    H178074   0.263   4.746   4.223  1.1237 -0.7638  1.8679
18861TIP3    H278075   0.178   4.853   4.290  1.2199  0.3550  0.2299
18862TIP3   OH278076   4.249   2.444   0.145  0.2476 -0.2675 -0.3390
18862TIP3    H178077   4.243   2.363   0.094  0.9627 -2.0173  2.2210
18862TIP3    H278078   4.313   2.498   0.099 -0.4247 -1.0382 -2.2168
18863TIP3   OH278079   0.756   4.822   4.016 -0.4437 -0.0621 -0.3488
18863TIP3    H178080   0.847   4.793   4.008 -0.8184 -1.3444 -0.1891
18863TIP3    H278081   0.720   4.767   4.085 -1.4368  0.1931 -0.6541
18864TIP3   OH278082   2.675   1.334  12.955  0.3266  0.0153 -0.0155
18864TIP3    H178083   2.607   1.267  12.946 -1.0133  1.0521  2.0621
18864TIP3    H278084   2.726   1.307  13.031 -1.1448  2.1049  1.7624
18865TIP3   OH278085   6.089   4.635  10.382  0.0117 -0.3950  0.4189
18865TIP3    H178086   6.067   4.544  10.403  2.9755 -1.6001 -1.2621
18865TIP3    H278087   6.060   4.647  10.292 -1.8706  0.8780  1.1873
18866TIP3   OH278088   4.895   1.988  12.926 -0.4939 -0.1379  0.2480
18866TIP3    H178089   4.943   1.920  12.879 -0.9140 -0.6458  0.5449
18866TIP3    H278090   4.822   1.942  12.967 -1.8698  0.7884 -1.0817
18867TIP3   OH278091   4.684   1.469   5.687  0.3247 -0.3897  0.3074
18867TIP3    H178092   4.638   1.549   5.663  0.5094 -0.8070 -1.5518
18867TIP3    H278093   4.683   1.467   5.783 -0.0612  1.6022  0.3503
18868TIP3   OH278094   1.295   6.662   4.161  0.1241  0.1670 -0.2648
18868TIP3    H178095   1.234   6.638   4.091  0.6706 -1.9394 -0.0460
18868TIP3    H278096   1.289   6.590   4.224  0.7012  1.3515  1.1705
18869TIP3   OH278097   0.166   5.078  13.161 -0.2221 -0.5381  0.5453
18869TIP3    H178098   0.222   5.101  13.087  2.0913 -0.5123  2.2337
18869TIP3    H278099   0.129   5.161  13.190  1.1670 -0.1330  1.1977
18870TIP3   OH278100   1.497   1.362  13.085 -0.4300 -0.1678 -1.2598
18870TIP3    H178101   1.543   1.300  13.141 -1.3940  0.3231  0.1033
18870TIP3    H278102   1.490   1.318  13.000  0.5339 -1.1474 -0.8396
18871TIP3   OH278103   0.460   1.968   2.951  0.6580 -0.3253 -0.0922
18871TIP3    H178104   0.377   1.972   2.905  0.6317 -0.3357 -0.0455
18871TIP3    H278105   0.450   2.027   3.025  0.7662 -0.1656 -0.2050
18872TIP3   OH278106   5.259   6.440   6.513 -0.4519  0.5525 -0.2847
18872TIP3    H178107   5.250   6.532   6.536 -1.0734  0.6363 -0.8298
18872TIP3    H278108   5.231   6.435   6.421 -0.7931 -0.2335 -0.1525
18873TIP3   OH278109   5.123   5.433  11.356  0.1667 -0.0982  0.3048
18873TIP3    H178110   5.159   5.398  11.275 -0.2866  1.5281 -0.6114
18873TIP3    H278111   5.151   5.371  11.423  1.6415 -0.7553 -0.8982
18874TIP3   OH278112   2.789   1.952   5.197 -0.1993 -0.2012  0.0839
18874TIP3    H178113   2.742   1.904   5.265 -1.2581  0.0255 -0.4816
18874TIP3    H278114   2.856   2.001   5.245  1.3048 -2.7134  0.5862
18875TIP3   OH278115   2.887   2.647  15.139 -0.1891 -0.5667 -0.6872
18875TIP3    H178116   2.879   2.717  15.204  1.9417 -0.6155 -0.3478
18875TIP3    H278117   2.901   2.568  15.191  1.1200 -0.6650 -1.1712
18876TIP3   OH278118   6.027   0.962   5.815  0.3627  0.0635 -0.2085
18876TIP3    H178119   6.052   1.025   5.882  1.9707 -3.4961  2.7065
18876TIP3    H278120   6.111   0.930   5.780 -0.4062 -0.7521 -1.3481
18877TIP3   OH278121   5.825   2.439   2.316 -0.3116 -0.4649 -0.1038
18877TIP3    H178122   5.818   2.351   2.352  1.7792 -0.5656  0.1207
18877TIP3    H278123   5.903   2.437   2.261 -2.6987  0.0655 -3.6968
18878TIP3   OH278124   5.872   6.038  12.112 -0.3042  0.1291 -0.1646
18878TIP3    H178125   5.916   6.116  12.144 -1.1696 -0.0098  1.4234
18878TIP3    H278126   5.943   5.979  12.086  0.3749  0.9601 -0.1972
18879TIP3   OH278127   3.510   1.035   5.076  0.2818 -0.4661  0.5052
18879TIP3    H178128   3.565   0.989   5.012 -1.5754 -0.2673 -1.3124
18879TIP3    H278129   3.421   1.026   5.041 -0.4738  1.8056  1.7678
18880TIP3   OH278130   3.746   0.144   5.030  0.7061 -0.1082  0.0910
18880TIP3    H178131   3.815   0.176   4.972  0.8207  1.5067  1.0774
18880TIP3    H278132   3.735   0.052   5.006  3.2262 -0.4001 -0.0778
18881TIP3   OH278133   5.500   1.824   0.022 -0.1325 -0.0933  0.2799
18881TIP3    H178134   5.557   1.860   0.090  2.1774 -2.0785 -0.5381
18881TIP3    H278135   5.474   1.738   0.055  0.6060 -0.8691 -1.0994
18882TIP3   OH278136   0.914   3.690  10.924  0.3898  0.1163  0.3278
18882TIP3    H178137   0.996   3.710  10.970  0.2456 -1.6175  1.3877
18882TIP3    H278138   0.846   3.703  10.990 -0.0045 -0.4253  0.0303
18883TIP3   OH278139   3.543   2.646   1.778 -0.0686  0.7441  0.3645
18883TIP3    H178140   3.598   2.724   1.780  0.5738  0.2806  0.7734
18883TIP3    H278141   3.594   2.581   1.730 -0.4020  0.4275  0.4340
18884TIP3   OH278142   5.457   1.315  11.454  0.2915 -0.2408 -0.3451
18884TIP3    H178143   5.519   1.255  11.413  2.0195  1.4416 -0.2399
18884TIP3    H278144   5.472   1.399  11.412 -2.0026  0.1865 -0.3827
18885TIP3   OH278145   4.766   1.206  17.055  0.0045  0.8139 -0.1619
18885TIP3    H178146   4.739   1.132  17.001  4.0924 -0.4939 -0.5842
18885TIP3    H278147   4.741   1.283  17.005 -2.7713 -0.2517 -0.5030
18886TIP3   OH278148   4.035   3.109   1.587 -0.0173  0.8700  0.2857
18886TIP3    H178149   4.112   3.096   1.643  1.2020 -0.5783 -1.6758
18886TIP3    H278150   3.978   3.035   1.607 -0.2435  1.1374  0.6459
18887TIP3   OH278151   5.413   4.734  15.942 -0.1453 -0.9323 -0.7615
18887TIP3    H178152   5.332   4.687  15.958 -0.2392  0.3387  3.0013
18887TIP3    H278153   5.482   4.673  15.969 -0.0649 -0.5853 -0.1668
18888TIP3   OH278154   5.380   3.826   2.190 -0.0403 -0.4823 -0.3109
18888TIP3    H178155   5.291   3.824   2.154  0.1356  1.3338 -0.8890
18888TIP3    H278156   5.421   3.903   2.149  1.7691 -1.2331  0.0196
18889TIP3   OH278157   0.275   5.473   1.246 -0.2277  0.1524 -0.6603
18889TIP3    H178158   0.346   5.442   1.302 -0.5552 -0.7793 -0.7670
18889TIP3    H278159   0.320   5.520   1.175  0.1382  2.8248  1.2303
18890TIP3   OH278160   6.136   0.821  12.738 -0.2064  0.0381  0.0682
18890TIP3    H178161   6.087   0.739  12.744  3.6747 -2.4419 -0.4184
18890TIP3    H278162   6.127   0.847  12.646 -0.6333 -0.3635 -0.0066
18891TIP3   OH278163   4.943   3.347  17.145  0.4666 -0.0141 -0.1146
18891TIP3    H178164   4.989   3.384  17.221 -0.4140 -0.0010  0.4188
18891TIP3    H278165   5.012   3.305  17.094  1.0763  0.0027  0.6764
18892TIP3   OH278166   2.584   1.997   3.343 -0.0943 -0.1151  0.4257
18892TIP3    H178167   2.673   2.002   3.378  0.2521 -0.6835 -0.3418
18892TIP3    H278168   2.554   1.908   3.364  0.1543 -0.4947 -0.7758
18893TIP3   OH278169   1.211   2.167   6.069 -0.2790 -0.5860  0.3873
18893TIP3    H178170   1.231   2.074   6.074  0.4321 -0.4297  0.4390
18893TIP3    H278171   1.253   2.205   6.147  1.3837  0.1294 -0.8377
18894TIP3   OH278172   6.705   0.826  15.572  0.2086  0.3530 -0.4557
18894TIP3    H178173   6.745   0.811  15.658  1.3893  0.7298 -0.9228
18894TIP3    H278174   6.779   0.827  15.511 -0.7315 -1.0269 -1.6357
18895TIP3   OH278175   5.558   4.956   4.957  0.2969  0.0733  0.5505
18895TIP3    H178176   5.470   4.993   4.946 -0.2748 -0.9083  1.7876
18895TIP3    H278177   5.583   4.927   4.869 -0.1965  1.2717  0.0036
18896TIP3   OH278178   3.338   3.974  13.452 -0.3818  0.5976 -0.1314
18896TIP3    H178179   3.397   4.018  13.391  0.7920 -3.3380 -2.0148
18896TIP3    H278180   3.394   3.948  13.525 -0.6891  0.6470  0.1246
18897TIP3   OH278181   5.107   4.264  15.670 -0.1671  0.0247  0.4129
18897TIP3    H178182   5.140   4.282  15.582  0.0304  1.8184  0.8392
18897TIP3    H278183   5.012   4.253  15.659 -0.0432 -0.5275 -0.1234
18898TIP3   OH278184   0.944   2.261  14.646  0.3051 -0.0415  0.6731
18898TIP3    H178185   0.855   2.271  14.681  0.2256  1.6127  0.0243
18898TIP3    H278186   0.999   2.311  14.706  0.5475  0.4101  0.0835
18899TIP3   OH278187   0.022   6.813  11.778 -0.2956  0.2367 -0.0533
18899TIP3    H178188   0.001   6.781  11.689 -0.8741  1.5910 -0.4160
18899TIP3    H278189  -0.013   6.902  11.780  0.2256  0.4154  1.3580
18900TIP3   OH278190   2.109   3.666   1.934 -0.4369 -0.2870  0.0870
18900TIP3    H178191   2.015   3.663   1.951  0.0276 -2.1304  2.6938
18900TIP3    H278192   2.144   3.587   1.976  2.6105  1.7598  1.6555
18901TIP3   OH278193   1.936   6.637  15.905  0.0203 -0.0226  0.3383
18901TIP3    H178194   1.984   6.557  15.928  2.5774  1.2371 -0.4081
18901TIP3    H278195   1.967   6.702  15.967 -0.8487  0.7760 -0.0635
18902TIP3   OH278196   4.583   2.853   6.115 -0.0982  0.0519 -0.1216
18902TIP3    H178197   4.665   2.840   6.163 -1.7359 -2.4681  2.0887
18902TIP3    H278198   4.595   2.804   6.034 -0.4237 -2.6193  1.4164
18903TIP3   OH278199   1.105   6.599   2.236  0.0036  0.3767 -0.0721
18903TIP3    H178200   1.102   6.516   2.189 -0.5177 -0.5796  1.6087
18903TIP3    H278201   1.062   6.661   2.178 -1.5839 -1.0205 -0.4161
18904TIP3   OH278202   2.175   2.880   3.991  0.1300  0.4470 -0.0816
18904TIP3    H178203   2.211   2.875   3.902 -0.3973  2.2358 -0.4044
18904TIP3    H278204   2.083   2.857   3.981 -0.1873  1.7306 -0.1782
18905TIP3   OH278205   4.863   3.861   4.751 -0.2645  0.5034  0.4036
18905TIP3    H178206   4.920   3.937   4.764 -0.0568  0.2068  1.2687
18905TIP3    H278207   4.825   3.874   4.664  1.2995  0.5986 -0.2894
18906TIP3   OH278208   2.887   6.399  16.417 -0.2720  0.1138  0.2242
18906TIP3    H178209   2.831   6.399  16.340  1.7422 -1.6118 -1.2707
18906TIP3    H278210   2.960   6.341  16.395  1.1796  0.8578  2.8110
18907TIP3   OH278211   2.379   2.421   3.425 -0.0497  0.0446 -0.1665
18907TIP3    H178212   2.437   2.496   3.411 -1.0138  1.0104  0.9277
18907TIP3    H278213   2.405   2.358   3.358  1.1148  1.1494 -0.7745
18908TIP3   OH278214   3.997   4.323   3.212  0.2894 -0.3943  0.4706
18908TIP3    H178215   3.913   4.363   3.193  1.0271  0.8192 -0.2972
18908TIP3    H278216   3.983   4.274   3.293 -0.5089  1.7167  1.6243
18909TIP3   OH278217   4.971   0.074  14.909 -0.0068  0.1148  0.5057
18909TIP3    H178218   4.992   0.135  14.979  1.6026 -1.7358  1.6983
18909TIP3    H278219   4.929  -0.000  14.953 -1.1894 -0.0199 -0.8055
18910TIP3   OH278220   5.867   1.647  15.953  0.1799  0.0367  0.3843
18910TIP3    H178221   5.885   1.720  16.012 -0.3058  0.1378  0.4138
18910TIP3    H278222   5.879   1.683  15.865 -2.8740  0.9894  0.2788
18911TIP3   OH278223   2.834   1.796  14.844 -0.1311  0.0619 -0.5408
18911TIP3    H178224   2.756   1.746  14.820  0.3824 -1.4160  0.7174
18911TIP3    H278225   2.902   1.729  14.854  0.6440  1.0498  0.9154
18912TIP3   OH278226   2.736   0.597   1.987  0.0297 -0.1863  0.2798
18912TIP3    H178227   2.832   0.595   1.990  0.0308  0.9285  1.6009
18912TIP3    H278228   2.709   0.574   2.076 -0.9498 -0.7534 -0.1547
18913TIP3   OH278229   3.760   1.994   0.744  0.0346  0.3754 -0.1100
18913TIP3    H178230   3.671   1.963   0.729  0.7803 -0.9272 -1.9619
18913TIP3    H278231   3.802   1.923   0.792  0.0777  1.0051  0.7942
18914TIP3   OH278232   2.617   5.997   4.440  0.5427  0.2823  0.5151
18914TIP3    H178233   2.536   5.982   4.489  0.4263  3.0918  1.3053
18914TIP3    H278234   2.594   6.064   4.376  1.6693 -0.5869 -0.8129
18915TIP3   OH278235   0.743   5.722   4.641 -0.6099  0.2824  0.2000
18915TIP3    H178236   0.740   5.662   4.716 -0.8098 -0.1315 -0.1333
18915TIP3    H278237   0.772   5.667   4.568 -1.8036  0.3346 -0.3372
18916TIP3   OH278238   0.415   2.319  15.024  0.1191 -0.3304 -0.2338
18916TIP3    H178239   0.339   2.362  15.063 -0.6195 -0.2819 -1.7099
18916TIP3    H278240   0.489   2.353  15.074 -0.7630 -0.0051  0.9027
18917TIP3   OH278241   5.319   0.684   2.910 -0.0007 -0.1134 -0.6906
18917TIP3    H178242   5.336   0.597   2.876 -0.2075 -0.2673 -0.4028
18917TIP3    H278243   5.234   0.677   2.954 -0.1749  0.3102 -0.9499
18918TIP3   OH278244   1.977   5.339  14.471 -0.0866 -0.3062 -0.4224
18918TIP3    H178245   2.059   5.357  14.426  0.1924 -0.4065  0.0351
18918TIP3    H278246   1.910   5.342  14.403  0.3831 -0.9022 -0.9174
18919TIP3   OH278247   0.300   1.885  11.757 -0.4799  0.1588 -0.2724
18919TIP3    H178248   0.279   1.978  11.754 -0.5317  0.0858 -3.3452
18919TIP3    H278249   0.254   1.848  11.682  0.2065 -2.2196  0.4465
18920TIP3   OH278250   4.903   3.488  13.525  0.0057  0.0164 -0.2698
18920TIP3    H178251   4.918   3.435  13.604  2.8310 -1.0611 -1.4741
18920TIP3    H278252   4.823   3.451  13.487 -0.8955 -0.0295  1.6126
18921TIP3   OH278253   6.788   3.323   3.861 -0.2122  0.0047  0.4302
18921TIP3    H178254   6.741   3.380   3.800 -1.4873 -0.7891  0.6596
18921TIP3    H278255   6.766   3.356   3.948 -0.7730 -0.6952  0.5571
18922TIP3   OH278256   2.919   2.469  13.942 -0.3234  0.3070 -0.4650
18922TIP3    H178257   2.852   2.402  13.952 -0.3193  0.5779  1.6875
18922TIP3    H278258   2.996   2.422  13.912  0.2197 -0.9940  2.8149
18923TIP3   OH278259   5.698   3.599   4.520  0.0937 -0.0445 -0.0909
18923TIP3    H178260   5.773   3.614   4.463 -0.3877 -0.3371 -0.8092
18923TIP3    H278261   5.714   3.656   4.596  1.4010 -0.6631  0.1136
18924TIP3   OH278262   3.620   4.642  13.374 -0.3842 -0.0427  0.1930
18924TIP3    H178263   3.613   4.717  13.314 -2.9505 -0.8914 -0.6086
18924TIP3    H278264   3.539   4.645  13.425 -0.7356 -2.5596 -0.1952
18925TIP3   OH278265   2.343   4.555   0.532 -0.4941 -0.4379 -0.0030
18925TIP3    H178266   2.306   4.511   0.455 -0.9160 -1.3654  0.7228
18925TIP3    H278267   2.308   4.644   0.528 -1.8942 -0.9808  0.0503
18926TIP3   OH278268   5.264   1.417   3.110  0.1001 -0.0352 -0.6980
18926TIP3    H178269   5.217   1.499   3.099  1.1894  0.6669 -0.1096
18926TIP3    H278270   5.249   1.393   3.201  1.1487  0.3513 -0.4248
18927TIP3   OH278271   1.350   2.970   0.486  0.3324  0.2784  0.2467
18927TIP3    H178272   1.257   2.987   0.504  0.2209 -2.6510  2.8690
18927TIP3    H278273   1.351   2.931   0.398 -1.2298 -1.8938  1.1531
18928TIP3   OH278274   4.343   3.931  15.668  0.1247 -0.2172  0.1646
18928TIP3    H178275   4.361   3.956  15.577 -0.1040  2.1404  0.7239
18928TIP3    H278276   4.394   3.993  15.720  2.5042 -3.3088  1.6765
18929TIP3   OH278277   6.187   5.449   2.167  0.1956 -0.5927 -0.3800
18929TIP3    H178278   6.144   5.365   2.184  0.6308 -0.9501 -1.0128
18929TIP3    H278279   6.166   5.468   2.076  0.6163 -0.3162 -0.4193
18930TIP3   OH278280   2.165   2.892  15.983 -0.3448 -0.5262 -0.4029
18930TIP3    H178281   2.154   2.830  15.911 -0.3810 -1.4167  0.3553
18930TIP3    H278282   2.152   2.840  16.062 -0.4827  0.4777  0.2488
18931TIP3   OH278283   2.632   4.792  15.491  0.1804 -0.0532  0.4374
18931TIP3    H178284   2.560   4.838  15.533 -1.2810 -0.2007 -1.7826
18931TIP3    H278285   2.600   4.774  15.402  2.6335 -0.8698 -0.3267
18932TIP3   OH278286   6.521   5.073  15.426  0.3268 -0.2237 -0.0259
18932TIP3    H178287   6.559   5.037  15.506 -0.4152  0.8333  0.8065
18932TIP3    H278288   6.594   5.120  15.384 -0.6109  4.0851  2.9002
18933TIP3   OH278289   6.798   4.560  14.403  0.2586 -0.5472 -0.4390
18933TIP3    H178290   6.812   4.514  14.320  0.3527  1.1668 -1.3910
18933TIP3    H278291   6.883   4.598  14.424  1.0715 -3.5223  2.0738
18934TIP3   OH278292   5.465   5.591   3.508 -0.1992  0.1078  0.2741
18934TIP3    H178293   5.473   5.659   3.576 -2.5754  0.3724  0.3447
18934TIP3    H278294   5.425   5.637   3.434 -0.2482 -0.8503 -0.2942
18935TIP3   OH278295   0.829   2.047   4.918  0.4691 -0.2855 -1.1165
18935TIP3    H178296   0.781   1.980   4.967 -1.4680  0.6466 -1.6978
18935TIP3    H278297   0.903   2.069   4.974 -0.4690 -0.8591  0.3807
18936TIP3   OH278298   1.487   2.387  14.685 -0.2079  0.1955  0.1779
18936TIP3    H178299   1.427   2.322  14.649 -0.9229  1.6573 -1.3745
18936TIP3    H278300   1.559   2.336  14.723 -0.4608 -1.4745 -1.5302
18937TIP3   OH278301   2.102   6.510   1.788  0.0729 -0.4020 -0.7737
18937TIP3    H178302   2.104   6.598   1.826  2.6654 -0.6775 -0.1417
18937TIP3    H278303   2.189   6.475   1.806 -0.4277 -2.5431 -2.3626
18938TIP3   OH278304   6.489   6.809   2.319  0.1357 -1.1074 -0.0900
18938TIP3    H178305   6.480   6.861   2.239 -0.6139 -1.6617 -0.3732
18938TIP3    H278306   6.399   6.801   2.352  0.4795 -0.6007  0.9856
18939TIP3   OH278307   5.471   5.906  14.887  0.1937 -0.6033 -0.2203
18939TIP3    H178308   5.469   5.961  14.809 -1.0922 -0.2761  0.0297
18939TIP3    H278309   5.523   5.955  14.951  0.2944 -0.3562 -0.4964
18940TIP3   OH278310   0.040   5.468   0.143 -0.6609 -0.3146  0.4073
18940TIP3    H178311   0.072   5.382   0.116  1.8144  0.5483  0.4526
18940TIP3    H278312   0.062   5.474   0.236 -2.2472 -0.2289  0.7974
18941TIP3   OH278313   3.686   4.549  13.138  0.3375  0.3289  0.1007
18941TIP3    H178314   3.599   4.566  13.102  0.3962  0.1528 -0.1210
18941TIP3    H278315   3.675   4.560  13.232  0.0230  0.0717  0.0940
18942TIP3   OH278316   3.964   1.674  15.405 -0.5834  0.1280  0.2786
18942TIP3    H178317   3.892   1.667  15.468 -0.1493 -2.0512  0.5777
18942TIP3    H278318   4.026   1.734  15.446 -1.9115  1.4796  0.3329
18943TIP3   OH278319   5.160   3.549   5.866  0.3694 -0.0147  0.0250
18943TIP3    H178320   5.226   3.599   5.913 -1.7605 -0.2712  3.4628
18943TIP3    H278321   5.076   3.580   5.901 -1.2865 -1.1866 -2.6852
18944TIP3   OH278322   3.209   1.620   3.113 -0.0500  0.2145 -0.6595
18944TIP3    H178323   3.211   1.713   3.093 -0.7481  0.1378 -1.1292
18944TIP3    H278324   3.120   1.605   3.147  0.0261 -0.2863 -0.6698
18945TIP3   OH278325   0.151   0.925   2.311 -0.0310  0.1829  0.3333
18945TIP3    H178326   0.166   1.017   2.333  0.0328  0.0791  0.7157
18945TIP3    H278327   0.121   0.928   2.220  0.6183  0.5284  0.1206
18946TIP3   OH278328   6.075   2.578  11.201  0.2166  0.1866 -0.3523
18946TIP3    H178329   6.145   2.624  11.154  1.8071  0.0771  1.8140
18946TIP3    H278330   6.075   2.618  11.288 -2.3208  0.0506 -0.2599
18947TIP3   OH278331   2.923   0.845   0.517  0.1377 -0.7668 -0.0368
18947TIP3    H178332   2.993   0.908   0.498  1.0593 -1.0624  2.1742
18947TIP3    H278333   2.845   0.899   0.531  0.6749 -0.1842  0.7571
18948TIP3   OH278334   5.683   1.505  14.526 -0.0328 -0.1613 -0.6353
18948TIP3    H178335   5.721   1.450  14.594 -0.9707 -0.5112 -0.3828
18948TIP3    H278336   5.732   1.587  14.531 -0.5610  0.0698  0.9437
18949TIP3   OH278337   0.750   1.282  15.374  0.3959 -0.0195 -0.3383
18949TIP3    H178338   0.741   1.188  15.357 -0.8232  0.1438 -0.5953
18949TIP3    H278339   0.844   1.298  15.364  0.6505 -1.2496 -0.0750
18950TIP3   OH278340   2.980   3.985  16.021  0.0366 -0.1241 -0.0182
18950TIP3    H178341   3.024   3.961  16.102  1.9677 -0.8365 -1.2590
18950TIP3    H278342   3.016   4.071  15.998 -0.4175  0.0266 -0.1828
18951TIP3   OH278343   4.582   0.711   6.010 -0.4815 -0.2453 -0.2198
18951TIP3    H178344   4.523   0.767   6.061 -1.4458 -0.0234 -1.5596
18951TIP3    H278345   4.669   0.729   6.046 -1.0849  0.1964  1.0743
18952TIP3   OH278346   1.316   6.467   2.005 -0.1337  0.7540  0.2504
18952TIP3    H178347   1.221   6.458   2.001 -0.1797  0.4589  1.6905
18952TIP3    H278348   1.336   6.538   1.944 -1.0176 -0.8446 -1.9497
18953TIP3   OH278349   6.007   0.250  17.245  0.1558 -0.4882 -0.3213
18953TIP3    H178350   5.938   0.191  17.215 -0.4665 -0.4720  1.0184
18953TIP3    H278351   6.040   0.291  17.165 -1.6622 -0.2031 -0.9614
18954TIP3   OH278352   2.204   4.686  14.666 -0.3744  0.0155  0.0414
18954TIP3    H178353   2.214   4.696  14.761  1.2491  1.7604 -0.2944
18954TIP3    H278354   2.284   4.641  14.638 -0.8127 -0.4159 -0.5340
18955TIP3   OH278355   6.371   4.103  16.694 -0.2525  0.0157  0.2437
18955TIP3    H178356   6.418   4.062  16.768  0.6095 -0.9837 -0.8329
18955TIP3    H278357   6.434   4.100  16.622 -0.8294  1.6596 -0.3452
18956TIP3   OH278358   0.135   0.045   2.248 -0.3812 -0.2775 -0.6858
18956TIP3    H178359   0.208   0.096   2.284 -0.5873 -1.1902  1.0900
18956TIP3    H278360   0.175  -0.032   2.209 -0.4469 -1.2959  1.2097
18957TIP3   OH278361   3.371   5.863  15.714 -0.1773 -0.1122  0.5068
18957TIP3    H178362   3.353   5.928  15.781  2.3610  1.4385 -0.2200
18957TIP3    H278363   3.420   5.794  15.760 -1.2258 -0.6146  0.8848
18958TIP3   OH278364   6.351   5.569  16.333  0.3997 -0.4590 -0.1242
18958TIP3    H178365   6.308   5.492  16.298 -4.3823  1.8108  0.4387
18958TIP3    H278366   6.426   5.584  16.274  0.0237 -4.0595 -1.6204
18959TIP3   OH278367   1.801   4.447  11.342  0.5155 -0.7399 -0.4084
18959TIP3    H178368   1.866   4.516  11.343  0.5801 -0.8061  1.2686
18959TIP3    H278369   1.717   4.493  11.339  0.5969 -0.6541 -2.3212
18960TIP3   OH278370   1.669   4.575   4.714 -0.5549 -0.0165  0.0094
18960TIP3    H178371   1.761   4.551   4.712 -0.4889  0.1047  1.4236
18960TIP3    H278372   1.638   4.548   4.800 -2.2622 -1.5378 -1.0365
18961TIP3   OH278373   4.860   1.747  12.544  0.0550  1.0971  0.0128
18961TIP3    H178374   4.870   1.734  12.450 -1.8674 -2.2150  0.2189
18961TIP3    H278375   4.946   1.725  12.581  0.4126  1.0682 -0.8305
18962TIP3   OH278376   0.572   1.143  16.003 -0.0321 -0.3300 -0.0548
18962TIP3    H178377   0.482   1.114  15.990  0.0218 -1.1273  1.2154
18962TIP3    H278378   0.568   1.201  16.080  0.2371  1.1814 -1.1514
18963TIP3   OH278379   6.336   0.908   2.350  0.7191 -0.2388  0.1786
18963TIP3    H178380   6.366   0.864   2.270 -0.3364  1.4042 -1.1654
18963TIP3    H278381   6.388   0.988   2.354 -0.8159  0.7992 -0.1316
18964TIP3   OH278382   3.796   5.307  13.564 -0.1176 -0.4124 -0.0211
18964TIP3    H178383   3.725   5.255  13.603  0.3281 -0.8593  0.1997
18964TIP3    H278384   3.862   5.243  13.539  0.7814  0.1101  0.9816
18965TIP3   OH278385   2.093   0.273  12.472 -0.1634  0.2601 -0.6855
18965TIP3    H178386   2.009   0.234  12.497 -0.5369  0.4651 -1.6221
18965TIP3    H278387   2.145   0.272  12.553 -1.1779  0.4327 -0.0322
18966TIP3   OH278388   5.560   1.030  12.077  0.1287  0.7360  0.1520
18966TIP3    H178389   5.606   0.951  12.107 -0.2671  0.2249 -0.5645
18966TIP3    H278390   5.623   1.072  12.018  0.1540  0.7004  0.1532
18967TIP3   OH278391   2.148   3.165   3.459 -0.2213  0.6225 -0.2362
18967TIP3    H178392   2.238   3.132   3.457 -0.6340 -0.5435 -0.2137
18967TIP3    H278393   2.126   3.170   3.552  0.1430  1.8453 -0.2060
18968TIP3   OH278394   2.099   6.472  14.711 -0.0388  0.1685  0.5019
18968TIP3    H178395   2.157   6.548  14.721 -1.1970  1.1357 -0.0919
18968TIP3    H278396   2.097   6.432  14.798  1.8339 -0.1198  0.4486
18969TIP3   OH278397   5.698   2.920  11.735 -0.3581 -0.1324  0.5080
18969TIP3    H178398   5.631   2.925  11.803 -0.9609  0.8158 -0.1324
18969TIP3    H278399   5.735   2.832  11.744 -1.1315 -0.3788  1.3934
18970TIP3   OH278400   0.360   4.700  14.681 -0.3565  0.0979 -0.0045
18970TIP3    H178401   0.442   4.707  14.631 -0.2534  1.6713  0.3491
18970TIP3    H278402   0.376   4.629  14.744 -0.3000 -1.5405 -1.8268
18971TIP3   OH278403   5.269   6.694   3.786  0.3406  0.2602 -0.3532
18971TIP3    H178404   5.189   6.745   3.775  0.4167  0.5237  0.2669
18971TIP3    H278405   5.240   6.602   3.784  0.3285  0.2769 -2.4700
18972TIP3   OH278406   4.913   5.850  13.066 -0.5468 -0.2589  0.5401
18972TIP3    H178407   4.845   5.870  13.002 -0.3113  2.9497  1.2570
18972TIP3    H278408   4.866   5.841  13.149 -0.3538 -0.4736  0.6280
18973TIP3   OH278409   3.891   2.495   1.438  0.7240 -0.0995 -1.1472
18973TIP3    H178410   3.860   2.445   1.513  1.3970  0.6831 -0.3247
18973TIP3    H278411   3.852   2.452   1.362  0.9250 -1.5854 -0.4324
18974TIP3   OH278412   4.072   0.298   4.338 -0.2214 -0.1343 -0.1736
18974TIP3    H178413   4.084   0.204   4.353  1.5312  0.0858 -0.0753
18974TIP3    H278414   4.132   0.319   4.266 -0.2582  0.9907  0.1128
18975TIP3   OH278415   0.571   3.350   2.036  0.6936  0.2124 -0.7304
18975TIP3    H178416   0.524   3.286   2.088  0.3654  0.5214 -0.6428
18975TIP3    H278417   0.522   3.432   2.048  1.6868  0.7107 -0.0287
18976TIP3   OH278418   3.212   5.746   1.392 -0.3273  0.2079 -0.1030
18976TIP3    H178419   3.273   5.780   1.326 -0.2137  1.3702  0.5857
18976TIP3    H278420   3.161   5.680   1.345 -0.2025  0.9632 -1.3386
18977TIP3   OH278421   4.876   4.110   0.646 -0.5975 -0.0799  0.0345
18977TIP3    H178422   4.855   4.043   0.581  1.9303 -0.9220  0.0032
18977TIP3    H278423   4.793   4.128   0.690 -1.9471 -0.9211 -2.0913
18978TIP3   OH278424   2.921   0.312  11.660 -0.0097 -0.3340  0.8874
18978TIP3    H178425   2.863   0.327  11.734  0.0333  0.8226  0.7070
18978TIP3    H278426   2.866   0.328  11.583  0.5592  0.9358  0.7171
18979TIP3   OH278427   2.299   3.687  12.236 -1.0262 -0.0626  0.3855
18979TIP3    H178428   2.246   3.682  12.156 -1.5590  0.2551  0.7180
18979TIP3    H278429   2.368   3.750  12.216 -0.6922 -0.5827 -0.0976
18980TIP3   OH278430   4.232   0.766  16.436 -0.1083  1.0267 -0.0730
18980TIP3    H178431   4.318   0.757  16.397  0.9707  0.2461  2.4273
18980TIP3    H278432   4.174   0.714  16.380  1.6287 -1.1168  0.0986
18981TIP3   OH278433   2.530   0.072   0.048 -0.4227  0.3629 -0.3567
18981TIP3    H178434   2.551  -0.010   0.003  0.0745  0.5686 -0.4970
18981TIP3    H278435   2.549   0.054   0.140  0.1953  0.4828 -0.4549
18982TIP3   OH278436   1.143   3.949   3.079 -0.3218 -0.1921  0.0012
18982TIP3    H178437   1.141   3.908   3.165 -0.0718  0.3116  0.2453
18982TIP3    H278438   1.235   3.944   3.052 -0.0330  1.4864  0.6411
18983TIP3   OH278439   6.020   5.238  13.890  0.4055  0.0042 -0.5296
18983TIP3    H178440   6.105   5.229  13.846 -0.1233 -0.0508 -1.5723
18983TIP3    H278441   5.980   5.315  13.849  1.3057  2.0260  2.2622
18984TIP3   OH278442   5.786   4.742  14.132 -0.1809  0.4502  0.1228
18984TIP3    H178443   5.873   4.725  14.095 -0.5950  0.3011 -0.7788
18984TIP3    H278444   5.741   4.795  14.066 -1.2643 -0.6378 -0.0128
18985TIP3   OH278445   4.006   2.055  12.355  0.4009  0.0574 -0.2149
18985TIP3    H178446   3.971   2.050  12.444 -1.3170  1.2327 -0.7941
18985TIP3    H278447   4.049   2.140  12.350  0.1317  0.1717 -0.6338
18986TIP3   OH278448   2.449   5.781   5.092 -0.1280  0.4552 -0.0142
18986TIP3    H178449   2.387   5.729   5.041  1.3868 -1.4460 -0.0082
18986TIP3    H278450   2.400   5.807   5.170 -2.2010  2.6674 -1.9873
18987TIP3   OH278451   5.587   6.223  10.812  0.7963 -0.4603 -0.0077
18987TIP3    H178452   5.610   6.182  10.729  0.9737 -3.1893  1.3513
18987TIP3    H278453   5.671   6.239  10.855  0.5953 -1.8962  0.9507
18988TIP3   OH278454   6.533   3.214   6.191  0.5055  0.1784 -0.0871
18988TIP3    H178455   6.467   3.267   6.236  1.6243  2.2627 -0.8282
18988TIP3    H278456   6.612   3.226   6.244  0.8035 -0.6268 -0.3548
18989TIP3   OH278457   2.464   1.368   1.200  0.0379  0.0528 -0.5943
18989TIP3    H178458   2.416   1.397   1.277  0.6785  1.1525 -0.6150
18989TIP3    H278459   2.543   1.420   1.198  0.7379 -1.0025 -1.1788
18990TIP3   OH278460   3.159   3.317   0.754  0.0465 -0.5416 -0.1305
18990TIP3    H178461   3.222   3.370   0.803  0.6451 -0.7679 -0.6455
18990TIP3    H278462   3.108   3.381   0.704 -1.3637 -0.2174  1.6822
18991TIP3   OH278463   4.640   2.312   3.681 -0.0368  0.1484  0.1925
18991TIP3    H178464   4.630   2.255   3.757 -0.0114  0.5734  0.5162
18991TIP3    H278465   4.575   2.281   3.618  0.4784 -0.7103  0.0827
18992TIP3   OH278466   4.311   5.259   4.140 -0.4570  0.5670 -0.2214
18992TIP3    H178467   4.236   5.319   4.139  0.1925  1.3735 -0.9271
18992TIP3    H278468   4.388   5.316   4.140  0.1731 -0.2589 -1.2081
18993TIP3   OH278469   0.620   1.927  12.795  0.2594  0.2006 -0.7760
18993TIP3    H178470   0.649   2.004  12.747  0.2887  0.3332 -0.5471
18993TIP3    H278471   0.527   1.919  12.774  0.0827  0.7357 -0.2091
18994TIP3   OH278472   5.548   5.029  12.822  0.0427  0.3580 -0.6768
18994TIP3    H178473   5.604   5.073  12.886  0.0105 -0.1695 -0.2825
18994TIP3    H278474   5.583   4.940  12.816  0.6961  0.7084 -2.1854
18995TIP3   OH278475   3.132   2.282   5.963 -0.2729  0.2139 -0.0226
18995TIP3    H178476   3.082   2.363   5.955 -5.1512 -2.6483 -0.5718
18995TIP3    H278477   3.153   2.257   5.873  1.7323  1.0825  0.1744
18996TIP3   OH278478   6.747   4.326   5.904 -0.2543  0.3750 -0.2499
18996TIP3    H178479   6.806   4.298   5.974 -0.6121 -0.9399 -0.4632
18996TIP3    H278480   6.764   4.420   5.895  0.2407  0.4458  1.1731
18997TIP3   OH278481   6.400   5.915   4.753  0.6136  0.0028 -0.2098
18997TIP3    H178482   6.479   5.897   4.804  0.5944  2.2954  0.6945
18997TIP3    H278483   6.362   5.993   4.794  0.0955  1.3587 -3.1419
18998TIP3   OH278484   1.759   2.490  15.160  0.1849  0.4440  0.2075
18998TIP3    H178485   1.680   2.470  15.109  1.1946 -0.6308 -0.9605
18998TIP3    H278486   1.742   2.576  15.197 -2.0476 -0.2897  0.9722
18999TIP3   OH278487   2.890   1.504  15.037  0.0516 -0.6690 -0.4231
18999TIP3    H178488   2.911   1.416  15.006  0.1713 -1.6813  2.3878
18999TIP3    H278489   2.973   1.550  15.039  0.4036 -1.3214  0.5141
19000TIP3   OH278490   2.737   3.983   4.415  0.4751  0.3066  0.2581
19000TIP3    H178491   2.824   4.006   4.447  1.9262 -2.9166 -1.0977
19000TIP3    H278492   2.738   4.007   4.323  0.4724 -1.0570 -0.1096
19001TIP3   OH278493   1.901   5.138   1.455  0.3958 -0.4870 -0.0995
19001TIP3    H178494   1.980   5.144   1.508  0.8299 -2.6630 -0.4469
19001TIP3    H278495   1.924   5.180   1.372  0.7304  0.1017  0.2867
19002TIP3   OH278496   2.936   6.354   4.684 -0.0182  0.0282  0.4553
19002TIP3    H178497   2.919   6.385   4.773  2.4948  3.1088 -0.0190
19002TIP3    H278498   2.859   6.382   4.634 -0.8492 -0.5513  1.3982
19003TIP3   OH278499   1.545   1.651  13.669  0.4578  0.1266 -0.2258
19003TIP3    H178500   1.618   1.650  13.731  0.2828 -0.1146 -0.0214
19003TIP3    H278501   1.492   1.575  13.694 -0.5738  1.0631  0.4975
19004TIP3   OH278502   4.454   5.934  14.235 -0.3599 -0.1317 -0.2337
19004TIP3    H178503   4.537   5.887  14.233 -1.5108 -2.2687  0.8902
19004TIP3    H278504   4.466   6.002  14.300  0.7951  0.1185 -0.7022
19005TIP3   OH278505   5.706   6.411  11.431 -0.0799  0.5163  0.2050
19005TIP3    H178506   5.626   6.359  11.434  0.3122 -0.0127  1.7196
19005TIP3    H278507   5.677   6.502  11.439 -0.8220  0.6273 -3.0480
19006TIP3   OH278508   5.444   5.698   2.161 -0.4731 -0.0151  0.3887
19006TIP3    H178509   5.535   5.680   2.140 -0.6512 -1.0020  0.4250
19006TIP3    H278510   5.410   5.742   2.083 -0.5803 -1.7886 -0.6146
19007TIP3   OH278511   0.805   3.189   3.828 -0.1898 -0.0765  0.2685
19007TIP3    H178512   0.814   3.284   3.834 -1.3675  0.0864 -0.5842
19007TIP3    H278513   0.810   3.169   3.735 -1.9547 -0.6416  0.2751
19008TIP3   OH278514   0.178   0.711  16.870 -0.2640 -0.1012  0.0286
19008TIP3    H178515   0.161   0.686  16.779  0.5468 -2.7888  0.5557
19008TIP3    H278516   0.248   0.776  16.866  0.0991 -0.5695 -1.2420
19009TIP3   OH278517   6.292   0.021  14.155  0.3114  0.6477 -0.1908
19009TIP3    H178518   6.275   0.016  14.249 -0.2287 -0.0942 -0.3176
19009TIP3    H278519   6.388   0.021  14.148  0.3575  1.8062  0.4056
19010TIP3   OH278520   6.017   5.352   0.411  0.1341 -0.2409 -0.0216
19010TIP3    H178521   5.954   5.286   0.385 -1.2471  0.5526  1.2040
19010TIP3    H278522   6.030   5.337   0.505 -1.4482  2.1751  0.6510
19011TIP3   OH278523   2.170   3.392  14.696 -0.8196 -0.7171 -0.1158
19011TIP3    H178524   2.111   3.455  14.737 -2.2750 -0.2381 -2.8051
19011TIP3    H278525   2.118   3.352  14.627  1.7117 -0.9951 -1.9328
19012TIP3   OH278526   0.057   3.325  16.872 -0.6218 -0.6051  0.0209
19012TIP3    H178527   0.082   3.417  16.866 -2.1652 -0.1722  0.0088
19012TIP3    H278528  -0.014   3.323  16.936 -0.7088 -1.7679 -0.0904
19013TIP3   OH278529   0.367   3.693  15.802  0.0926  0.0662 -0.3991
19013TIP3    H178530   0.440   3.750  15.779 -0.7183  0.8504 -1.1047
19013TIP3    H278531   0.290   3.751  15.801 -0.6555 -0.9126 -0.5353
19014TIP3   OH278532   1.367   3.003   4.403 -0.6711 -0.2004  0.1393
19014TIP3    H178533   1.454   2.969   4.425 -0.5826 -0.4267 -0.5558
19014TIP3    H278534   1.353   2.976   4.312 -1.8446 -0.9121  0.5337
19015TIP3   OH278535   0.342   3.331   6.110  0.1591  0.0074 -0.3493
19015TIP3    H178536   0.408   3.320   6.178 -0.8597 -0.5783  0.5676
19015TIP3    H278537   0.261   3.296   6.149  0.0448 -2.4358 -2.6424
19016TIP3   OH278538   3.141   3.700   0.254 -0.0922  0.7262  0.1879
19016TIP3    H178539   3.156   3.655   0.337 -1.0000  1.3677  0.7170
19016TIP3    H278540   3.174   3.788   0.268  1.2311  0.3764 -0.6788
19017TIP3   OH278541   4.241   2.738  13.196 -0.4404 -0.6553  0.7471
19017TIP3    H178542   4.300   2.699  13.131 -0.8452  0.5419 -0.3616
19017TIP3    H278543   4.189   2.801  13.146 -0.5889  0.4695  2.2943
19018TIP3   OH278544   3.477   5.671   6.177  0.0267 -0.4877  0.2590
19018TIP3    H178545   3.528   5.689   6.256  0.2752  2.2110 -0.4468
19018TIP3    H278546   3.386   5.675   6.207  0.1260 -3.8735  1.2291
19019TIP3   OH278547   3.352   5.066  13.101 -0.2481  0.4181  0.2456
19019TIP3    H178548   3.417   5.011  13.144  0.1359 -0.7293 -1.7605
19019TIP3    H278549   3.275   5.061  13.157  1.7833  3.0363  3.5306
19020TIP3   OH278550   3.143   0.585  15.151 -0.6137 -0.9754 -0.1865
19020TIP3    H178551   3.073   0.639  15.187 -0.4947  0.2705 -1.7921
19020TIP3    H278552   3.147   0.509  15.210  0.0229  1.2812  2.8104
19021TIP3   OH278553   6.388   1.804  10.803  0.3719  0.2553  0.4671
19021TIP3    H178554   6.466   1.748  10.802  0.0190 -0.2237 -0.1172
19021TIP3    H278555   6.402   1.865  10.731 -0.3354 -0.5734 -0.3774
19022TIP3   OH278556   3.833   6.608   5.223  0.1522  0.1573  0.2563
19022TIP3    H178557   3.846   6.515   5.240  1.6891  0.1433 -0.8723
19022TIP3    H278558   3.920   6.646   5.234 -0.0283  1.0933 -1.5054
19023TIP3   OH278559   0.132   2.208  11.410 -0.4224  0.1849  0.0056
19023TIP3    H178560   0.102   2.210  11.319 -1.6587  0.3982  0.4101
19023TIP3    H278561   0.228   2.214  11.403 -0.6327  2.9530 -1.1822
19024TIP3   OH278562   3.084   0.418   2.548  0.4761 -0.2468  0.0043
19024TIP3    H178563   3.161   0.414   2.604  0.7114 -0.8933 -0.3638
19024TIP3    H278564   3.017   0.369   2.595  0.6259 -0.6530 -0.2055
19025TIP3   OH278565   2.499   2.793   1.527 -0.6146 -0.7014  0.0875
19025TIP3    H178566   2.450   2.743   1.593  0.3027 -3.1859 -1.0447
19025TIP3    H278567   2.560   2.846   1.578 -1.8033 -0.4970  1.3374
19026TIP3   OH278568   5.397   5.775   0.582  0.2859 -0.5587 -0.0962
19026TIP3    H178569   5.444   5.821   0.652 -0.1954  0.3222 -0.3371
19026TIP3    H278570   5.423   5.822   0.502 -0.4570 -0.5180 -0.3101
19027TIP3   OH278571   2.535   3.690  16.763 -0.3538 -0.1298  0.4023
19027TIP3    H178572   2.527   3.688  16.859  2.9443  0.5723  0.7274
19027TIP3    H278573   2.578   3.608  16.740  2.5647  1.4846 -0.0573
19028TIP3   OH278574   5.732   4.955  11.638 -0.1335  0.0968  0.4563
19028TIP3    H178575   5.681   5.036  11.633 -0.9654 -0.4073  0.6723
19028TIP3    H278576   5.760   4.951  11.729  0.8048  0.6820  0.1968
19029TIP3   OH278577   2.534   6.130  16.314  0.2866 -0.6926  0.1783
19029TIP3    H178578   2.591   6.143  16.389 -1.6063 -2.2395  1.9626
19029TIP3    H278579   2.455   6.180  16.335 -0.8876 -2.4024 -0.0211
19030TIP3   OH278580   2.829   3.988  16.863  0.8468  0.3162  0.0586
19030TIP3    H178581   2.845   3.904  16.905  0.3713 -0.8001 -1.9182
19030TIP3    H278582   2.775   4.036  16.926  2.0679 -0.3927  1.6976
19031TIP3   OH278583   4.841   1.540   0.629 -0.3453 -0.4453  0.2012
19031TIP3    H178584   4.771   1.602   0.615 -0.4194 -0.9876 -2.0745
19031TIP3    H278585   4.803   1.455   0.605  0.2870 -1.1071  1.5112
19032TIP3   OH278586   1.615   2.637   3.405 -0.0145  0.0799  0.2068
19032TIP3    H178587   1.681   2.645   3.474 -0.4309 -2.3579  0.9614
19032TIP3    H278588   1.657   2.672   3.326  1.6029  0.0041  1.0207
19033TIP3   OH278589   2.086   1.487   3.515 -0.1405  0.6804 -0.0564
19033TIP3    H178590   2.032   1.499   3.437 -0.1302  1.0157 -0.0133
19033TIP3    H278591   2.123   1.573   3.532 -2.1500  1.2142  1.8039
19034TIP3   OH278592   4.694   2.835  14.579  0.1694 -0.2122 -0.7947
19034TIP3    H178593   4.671   2.914  14.629 -1.9838 -0.8639 -0.7403
19034TIP3    H278594   4.689   2.764  14.643  2.4437 -0.3834 -0.7612
19035TIP3   OH278595   4.727   1.964   1.600  0.2315 -0.7178  0.0244
19035TIP3    H178596   4.816   1.993   1.579  0.9668 -1.3843  2.1606
19035TIP3    H278597   4.705   2.011   1.680 -0.9803 -1.2972  0.0416
19036TIP3   OH278598   0.380   6.697  11.459 -0.0367 -0.0166  0.4247
19036TIP3    H178599   0.316   6.666  11.522 -1.6971 -0.8595 -1.6051
19036TIP3    H278600   0.462   6.654  11.484 -0.6977 -0.4490  1.8783
19037TIP3   OH278601   5.313   0.512   4.811  0.0182  0.0209  0.2303
19037TIP3    H178602   5.321   0.509   4.716 -0.5364  2.3971  0.0718
19037TIP3    H278603   5.399   0.487   4.844  0.1848 -0.9053 -0.8879
19038TIP3   OH278604   6.519   1.863   3.510 -0.3172  0.2693  0.3089
19038TIP3    H178605   6.502   1.924   3.581 -0.9745  2.4238 -1.6085
19038TIP3    H278606   6.434   1.823   3.492 -0.4269  0.6714 -0.0830
19039TIP3   OH278607   4.410   3.584   3.830  0.2430 -0.0521 -0.3576
19039TIP3    H178608   4.329   3.552   3.791  0.3793 -1.1803  0.2769
19039TIP3    H278609   4.479   3.531   3.789  0.4504 -0.7271  0.8515
19040TIP3   OH278610   1.764   3.768  13.090 -0.0032 -0.3386  0.3302
19040TIP3    H178611   1.787   3.700  13.027  0.4743 -2.0064  2.2391
19040TIP3    H278612   1.761   3.849  13.039 -1.2181 -1.8728 -2.1263
19041TIP3   OH278613   5.569   3.065   1.825  0.2400  0.4294  0.4140
19041TIP3    H178614   5.642   3.046   1.767  0.4967 -0.3784  0.9965
19041TIP3    H278615   5.542   3.154   1.801  0.2419  0.0475 -1.0259
19042TIP3   OH278616   5.006   5.328  13.680 -0.1433  0.2876  0.2957
19042TIP3    H178617   4.912   5.329  13.696 -0.2099  1.3498 -0.1245
19042TIP3    H278618   5.039   5.403  13.729  0.5443 -0.3434  0.7976
19043TIP3   OH278619   0.645   1.070   5.964  0.3471  0.5128  0.3819
19043TIP3    H178620   0.567   1.053   5.910  0.7763 -1.3229  0.2904
19043TIP3    H278621   0.618   1.139   6.024 -2.0728 -1.5730  1.7986
19044TIP3   OH278622   1.877   2.075  16.622 -0.0209  0.6520  0.4015
19044TIP3    H178623   1.884   2.036  16.535 -1.6990 -3.8292  2.0998
19044TIP3    H278624   1.962   2.116  16.638  1.2522 -0.8892 -2.2317
19045TIP3   OH278625   3.429   5.827  11.695 -0.2056 -0.3272 -0.8736
19045TIP3    H178626   3.463   5.794  11.778 -1.1701 -2.0525 -1.1231
19045TIP3    H278627   3.483   5.903  11.675 -0.8069  0.9333  1.9881
19046TIP3   OH278628   0.974   5.494   2.239 -0.1187 -0.5720  0.2209
19046TIP3    H178629   0.944   5.420   2.186  1.6614 -0.9924 -0.2029
19046TIP3    H278630   1.027   5.454   2.308  2.3013  0.4127 -1.0096
19047TIP3   OH278631   0.695   1.958   2.060 -0.2307 -0.1678  0.0814
19047TIP3    H178632   0.731   1.869   2.056 -0.2753 -0.1123 -2.4268
19047TIP3    H278633   0.753   2.010   2.004 -1.1448  1.0443  0.2377
19048TIP3   OH278634   2.213   0.972  15.828 -0.1758 -0.5282 -0.1080
19048TIP3    H178635   2.271   1.014  15.764  0.8203 -1.1347  0.3730
19048TIP3    H278636   2.272   0.921  15.883 -0.9994  0.2134  1.4826
19049TIP3   OH278637   4.661   5.768   0.479 -0.0410 -0.4377 -0.1175
19049TIP3    H178638   4.722   5.831   0.518 -0.7642  0.6887 -0.7606
19049TIP3    H278639   4.576   5.792   0.516  0.1201 -3.0917  2.1229
19050TIP3   OH278640   2.446   0.108   1.153  0.1267  0.2300 -0.2299
19050TIP3    H178641   2.362   0.108   1.107  0.1417 -0.6199 -0.2596
19050TIP3    H278642   2.510   0.083   1.086  0.2402 -0.3385  0.0933
19051TIP3   OH278643   2.376   3.829   3.364 -0.1504  0.3555  0.2959
19051TIP3    H178644   2.412   3.772   3.431 -0.3924  0.2883  0.3694
19051TIP3    H278645   2.378   3.777   3.284  0.4026  0.5349  0.1912
19052TIP3   OH278646   6.646   5.898  12.120 -0.5227 -0.2544  0.4283
19052TIP3    H178647   6.657   5.939  12.206 -1.5266 -0.7647  0.8045
19052TIP3    H278648   6.622   5.807  12.139 -1.6128 -0.1492 -0.3768
19053TIP3   OH278649   2.186   1.474  15.998  0.2341 -0.0766 -0.1959
19053TIP3    H178650   2.254   1.406  15.991  1.6937  1.3750 -0.3180
19053TIP3    H278651   2.233   1.553  16.025 -1.6404  0.5934  1.2287
19054TIP3   OH278652   3.712   1.317  12.621 -0.3186 -0.0665 -1.0479
19054TIP3    H178653   3.801   1.325  12.589  0.9481  0.6785  2.3706
19054TIP3    H278654   3.703   1.224  12.644  0.2943  0.2309  0.4500
19055TIP3   OH278655   4.247   6.248   2.674 -0.3807  0.1217  0.5976
19055TIP3    H178656   4.243   6.161   2.633 -0.1241  1.1482 -1.6722
19055TIP3    H278657   4.337   6.255   2.706  0.2948  0.4896 -1.3658
19056TIP3   OH278658   0.975   0.912  15.556 -0.4264  1.0654  0.0897
19056TIP3    H178659   1.065   0.879  15.563 -0.0901  2.1209  0.9872
19056TIP3    H278660   0.968   0.976  15.627 -2.1867  0.3052  0.6236
19057TIP3   OH278661   4.975   1.599  11.775 -0.3573  0.4731  0.5621
19057TIP3    H178662   4.997   1.602  11.682 -1.2434 -0.0235  0.3274
19057TIP3    H278663   5.024   1.671  11.814 -1.3596  1.8214 -0.5986
19058TIP3   OH278664   4.019   2.132  16.296 -0.3743  0.0626  0.2618
19058TIP3    H178665   3.926   2.150  16.307 -1.0522 -1.1809 -2.8837
19058TIP3    H278666   4.061   2.218  16.305 -1.9980  0.8817  0.2272
19059TIP3   OH278667   0.773   6.216   2.530  0.3662  0.1945 -0.1165
19059TIP3    H178668   0.682   6.238   2.551  0.3898  1.0171 -0.8517
19059TIP3    H278669   0.821   6.299   2.538  0.6114  0.2666 -2.0788
19060TIP3   OH278670   0.336   6.614   2.556  0.0536 -0.3122 -0.4990
19060TIP3    H178671   0.259   6.650   2.513 -1.4004 -0.6234  1.7577
19060TIP3    H278672   0.304   6.536   2.601  1.1476  0.8848  2.4536
19061TIP3   OH278673   3.719   4.245   0.969  0.0763  1.0162  0.4923
19061TIP3    H178674   3.730   4.276   0.879  0.1729 -0.2789  0.0546
19061TIP3    H278675   3.801   4.268   1.013  0.3320  0.9561  0.0448
19062TIP3   OH278676   4.815   4.550   5.461 -0.2255  0.2118 -0.3000
19062TIP3    H178677   4.825   4.632   5.508 -2.2441  1.0697 -1.2982
19062TIP3    H278678   4.724   4.525   5.475  0.1024 -1.3671 -0.8057
19063TIP3   OH278679   1.450   3.266   1.188 -0.0210 -0.3487  0.1384
19063TIP3    H178680   1.491   3.184   1.159 -0.4011  0.4508 -2.7259
19063TIP3    H278681   1.356   3.253   1.174 -0.0028  0.9324 -1.2743
19064TIP3   OH278682   4.451   6.275  12.322  0.1721  0.7227 -0.3202
19064TIP3    H178683   4.430   6.303  12.412 -0.2840 -0.2917 -0.1075
19064TIP3    H278684   4.374   6.225  12.294  0.6491  0.3562 -0.9836
19065TIP3   OH278685   6.076   6.783   3.724  0.3190 -0.1282  0.3851
19065TIP3    H178686   6.059   6.694   3.693  0.4412  0.2033 -0.6362
19065TIP3    H278687   5.991   6.812   3.758 -0.2113  0.0665 -1.0648
19066TIP3   OH278688   6.030   0.331   4.402  0.2111 -0.6710  0.2899
19066TIP3    H178689   6.086   0.282   4.341  0.8593  0.1522  0.2197
19066TIP3    H278690   6.085   0.403   4.432 -0.6992 -0.0671  0.5054
19067TIP3   OH278691   1.938   3.561   6.275  0.2659 -0.5110  0.4998
19067TIP3    H178692   1.863   3.510   6.247 -0.9681  1.7687 -0.4733
19067TIP3    H278693   1.900   3.641   6.311  2.2247  0.5767  0.1989
19068TIP3   OH278694   5.120   4.664  15.566  0.3322 -0.4245  0.0965
19068TIP3    H178695   5.215   4.666  15.573  0.4328 -2.7560 -0.5173
19068TIP3    H278696   5.090   4.619  15.645 -0.1614 -1.2189 -0.5382
19069TIP3   OH278697   6.363   0.277   4.526  0.4390 -0.0654  0.0734
19069TIP3    H178698   6.311   0.229   4.461 -0.6181 -0.3867  1.1353
19069TIP3    H278699   6.349   0.369   4.503  0.1445 -0.1782 -0.2208
19070TIP3   OH278700   5.179   5.012   0.259  0.1599  0.4260  0.2975
19070TIP3    H178701   5.186   4.923   0.225  0.4622  0.1842  0.9788
19070TIP3    H278702   5.236   5.064   0.202 -0.3859  0.2771 -0.3968
19071TIP3   OH278703   3.956   1.923   1.741  0.1796  0.4954 -0.5376
19071TIP3    H178704   3.861   1.908   1.733  0.4046 -0.8594 -0.7010
19071TIP3    H278705   3.983   1.868   1.815  0.9038  0.6021 -0.7192
19072TIP3   OH278706   0.738   3.851  11.428  0.3977 -0.5098  0.1185
19072TIP3    H178707   0.701   3.809  11.506 -1.6090 -0.2099 -0.6574
19072TIP3    H278708   0.755   3.941  11.455 -3.3079  0.5092 -0.6474
19073TIP3   OH278709   6.725   4.367   1.214  0.1314  0.3528  0.2055
19073TIP3    H178710   6.791   4.432   1.191 -1.2979  1.3014 -1.3590
19073TIP3    H278711   6.693   4.335   1.130 -1.2882 -0.1851  0.9365
19074TIP3   OH278712   3.635   5.790  10.709 -0.2709  0.1563  0.3632
19074TIP3    H178713   3.583   5.739  10.647  1.2952  2.4148 -2.9609
19074TIP3    H278714   3.710   5.734  10.730  0.3899  0.2257 -1.6667
19075TIP3   OH278715   3.645   5.120   2.523  0.0296  0.2297 -0.3815
19075TIP3    H178716   3.596   5.073   2.590  2.1032 -0.7294  0.4916
19075TIP3    H278717   3.721   5.155   2.569 -0.3108  2.5492 -1.5003
19076TIP3   OH278718   0.346   4.164   5.834 -0.5129  0.2494  0.0686
19076TIP3    H178719   0.314   4.105   5.765  0.3663  0.3823 -0.4640
19076TIP3    H278720   0.292   4.242   5.824  0.3607  0.7120 -1.2328
19077TIP3   OH278721   5.985   6.303  15.023 -0.3150 -0.3899  0.6316
19077TIP3    H178722   5.922   6.231  15.033  1.4858 -1.9005  1.2085
19077TIP3    H278723   5.994   6.341  15.110  0.8954 -1.3043  0.9113
19078TIP3   OH278724   6.414   4.810  12.726  0.4206  0.4413 -0.2445
19078TIP3    H178725   6.492   4.835  12.775 -0.0353  0.2756  0.5787
19078TIP3    H278726   6.375   4.740  12.778 -1.0117  1.4414  0.0435
19079TIP3   OH278727   2.935   2.076   6.058  0.6649  0.1301 -0.3963
19079TIP3    H178728   2.890   2.069   5.973 -0.7679  0.3772  0.3182
19079TIP3    H278729   3.014   2.126   6.040 -0.1574  1.0930 -1.4020
19080TIP3   OH278730   1.730   2.931   3.617 -0.0209 -0.1387 -0.8362
19080TIP3    H178731   1.650   2.930   3.669 -0.1504 -0.9339 -1.0524
19080TIP3    H278732   1.751   2.839   3.602  0.9273  0.0651 -0.7931
19081TIP3   OH278733   3.562   3.557   4.074 -0.7318  1.0464  0.1425
19081TIP3    H178734   3.604   3.595   4.151  0.2999  1.0468 -0.4147
19081TIP3    H278735   3.520   3.477   4.107  1.4682 -0.0734  0.3305
19082TIP3   OH278736   3.001   3.113  13.012  0.2177  0.0131  0.4819
19082TIP3    H178737   3.072   3.075  13.063 -0.2078  1.2036  2.0053
19082TIP3    H278738   2.963   3.039  12.964  0.3140 -1.2222  2.2728
19083TIP3   OH278739   5.568   3.358  12.919 -0.2641 -0.1902 -0.0814
19083TIP3    H178740   5.613   3.388  12.840 -0.2952 -0.2687 -0.1289
19083TIP3    H278741   5.636   3.360  12.987 -0.0505 -0.8079 -0.2672
19084TIP3   OH278742   1.351   0.432  13.333  0.5673  0.4152 -0.3203
19084TIP3    H178743   1.359   0.526  13.317  0.1167  0.8426  1.7677
19084TIP3    H278744   1.428   0.409  13.385 -1.3259  0.5015  2.6550
19085TIP3   OH278745   2.932   4.793   6.800 -0.2459  0.4632 -0.4448
19085TIP3    H178746   2.905   4.756   6.716  0.3188  0.0182 -0.4342
19085TIP3    H278747   3.024   4.766   6.809 -0.0014  1.3908 -0.1698
19086TIP3   OH278748   4.662   4.182   4.953 -0.0136  0.1047  0.4124
19086TIP3    H178749   4.596   4.154   4.889  1.9337 -1.2573 -1.0641
19086TIP3    H278750   4.689   4.269   4.922 -0.1135  0.0680  0.2159
19087TIP3   OH278751   2.263   6.135   0.457  0.0675  0.5468 -0.5336
19087TIP3    H178752   2.253   6.181   0.374  0.0237 -0.0481 -0.8631
19087TIP3    H278753   2.188   6.075   0.460  1.5709 -1.3969 -1.3530
19088TIP3   OH278754   6.388   5.719   4.355  0.4818 -0.2995 -0.0116
19088TIP3    H178755   6.456   5.749   4.416  0.7345  3.0895 -1.8696
19088TIP3    H278756   6.306   5.752   4.393  0.2852 -1.0065  0.1823
19089TIP3   OH278757   2.291   3.530  14.081 -0.0582 -0.3444 -0.3094
19089TIP3    H178758   2.300   3.458  14.143 -0.1385  1.2296  1.5964
19089TIP3    H278759   2.312   3.608  14.132 -1.2099  1.1071 -1.9880
19090TIP3   OH278760   5.453   6.216  11.204 -0.5415  0.2156 -0.0883
19090TIP3    H178761   5.385   6.151  11.188  0.4330 -1.2713  1.5143
19090TIP3    H278762   5.408   6.291  11.243 -1.3543 -0.4700  0.2894
19091TIP3   OH278763   5.621   0.718  12.840 -0.7831  0.8406 -0.6548
19091TIP3    H178764   5.633   0.639  12.893  1.0043  1.0352 -0.7355
19091TIP3    H278765   5.623   0.790  12.904  2.0464  1.1300 -0.9644
19092TIP3   OH278766   5.161   1.267   3.343 -0.6462  0.5292 -0.3402
19092TIP3    H178767   5.079   1.308   3.367 -0.2097  1.0482  0.2636
19092TIP3    H278768   5.211   1.263   3.424  0.9137  2.4720 -1.1860
19093TIP3   OH278769   4.443   1.790   4.377  0.1958 -0.1160 -0.1189
19093TIP3    H178770   4.440   1.699   4.408  0.8114  0.1247  0.6687
19093TIP3    H278771   4.375   1.834   4.427 -0.5644 -0.2807 -0.9896
19094TIP3   OH278772   4.848   2.533   3.580  0.3715  0.0087 -0.4274
19094TIP3    H178773   4.845   2.483   3.499  0.0524  0.3207 -0.6101
19094TIP3    H278774   4.797   2.483   3.642  1.5966 -0.8313 -0.0793
19095TIP3   OH278775   1.731   6.750  14.081 -0.2391  0.4943 -0.7045
19095TIP3    H178776   1.804   6.700  14.044  0.3304  0.2765  0.6698
19095TIP3    H278777   1.745   6.840  14.051  0.0225  0.2643 -1.2755
19096TIP3   OH278778   4.658   3.044   0.791 -0.3008  0.3412  0.3338
19096TIP3    H178779   4.687   3.043   0.882  1.6538 -1.2059 -0.2665
19096TIP3    H278780   4.581   3.101   0.791 -1.1072 -0.6491  3.1596
19097TIP3   OH278781   2.643   2.406  15.521  0.2523  0.3360  0.2671
19097TIP3    H178782   2.693   2.418  15.602  1.1208  1.6996 -0.4280
19097TIP3    H278783   2.620   2.495  15.495 -1.0835 -0.1802 -0.3436
19098TIP3   OH278784   3.915   4.024  16.661  0.7850 -0.2952  0.2000
19098TIP3    H178785   3.944   3.935  16.677  1.1314 -0.3217 -0.5743
19098TIP3    H278786   3.873   4.021  16.575  0.2507  0.1589  0.4380
19099TIP3   OH278787   5.487   0.457  16.418 -0.8179 -0.5294  0.2781
19099TIP3    H178788   5.507   0.392  16.350 -1.2364  0.2840 -0.6208
19099TIP3    H278789   5.392   0.465  16.417 -0.7353  0.4483  0.0670
19100TIP3   OH278790   6.114   0.519   2.421 -0.3863  0.5255  0.1207
19100TIP3    H178791   6.076   0.572   2.491  2.8229  0.3527  2.1048
19100TIP3    H278792   6.208   0.521   2.438  0.1907 -2.1544 -2.3814
19101TIP3   OH278793   6.192   3.207  15.941 -0.3698  0.4643 -0.4290
19101TIP3    H178794   6.209   3.188  16.033 -0.4466  2.5540  0.0227
19101TIP3    H278795   6.115   3.264  15.942 -1.6547 -1.1726 -1.9283
19102TIP3   OH278796   3.667   3.865  11.658  0.0035 -0.3280 -0.0724
19102TIP3    H178797   3.615   3.805  11.604  1.3260  0.1810 -1.9488
19102TIP3    H278798   3.631   3.952  11.639 -0.7246 -0.3060  1.2891
19103TIP3   OH278799   2.339   1.805  14.066  0.3074  0.4014 -0.2437
19103TIP3    H178800   2.317   1.723  14.109  1.5061  0.1309 -0.1209
19103TIP3    H278801   2.279   1.810  13.992  0.4606 -0.7707 -0.4587
19104TIP3   OH278802   1.930   5.080  13.446 -0.1204 -0.0800  0.0217
19104TIP3    H178803   1.941   5.170  13.475 -0.2953 -0.2741  0.7042
19104TIP3    H278804   1.934   5.028  13.526 -1.3598 -0.5576 -0.2132
19105TIP3   OH278805   3.587   0.284   0.742  0.1796  0.3493 -0.8281
19105TIP3    H178806   3.504   0.312   0.702  0.4509  1.2709 -0.7562
19105TIP3    H278807   3.618   0.214   0.685 -1.0917 -0.6147 -0.3605
19106TIP3   OH278808   1.237   3.568   2.000 -0.6283  0.3154  0.7053
19106TIP3    H178809   1.271   3.486   2.038  0.0437  0.4722  0.4607
19106TIP3    H278810   1.293   3.583   1.924 -1.3254  0.5386  0.2405
19107TIP3   OH278811   1.462   1.719   0.208  0.2691 -0.0565 -0.3938
19107TIP3    H178812   1.508   1.719   0.124  3.1535  0.9060  1.1298
19107TIP3    H278813   1.391   1.782   0.197  0.1444 -0.5057 -2.3437
19108TIP3   OH278814   0.209   2.981  14.051  0.1186  0.2324 -0.4564
19108TIP3    H178815   0.152   3.007  14.123  2.2249 -0.1408  1.3747
19108TIP3    H278816   0.157   2.916  14.003 -1.8897  1.6031 -0.1890
19109TIP3   OH278817   2.425   2.054   1.358 -0.3853  0.1853  0.5402
19109TIP3    H178818   2.399   2.118   1.292 -1.8516  0.7413  1.6410
19109TIP3    H278819   2.344   2.028   1.401  0.5055 -0.4169  1.9122
19110TIP3   OH278820   1.904   4.673  14.267 -0.4053 -0.2663 -0.1249
19110TIP3    H178821   1.888   4.738  14.335  3.3118 -0.8221  1.3705
19110TIP3    H278822   1.933   4.723  14.191 -1.5155  0.0900 -0.3333
19111TIP3   OH278823   0.906   6.309  15.320  0.1849 -0.2814 -0.5492
19111TIP3    H178824   0.986   6.330  15.367  1.5606  0.0918 -2.9785
19111TIP3    H278825   0.914   6.216  15.300  1.0593  0.2076 -2.6379
19112TIP3   OH278826   4.952   1.252  14.415 -0.3402 -0.2036 -0.0784
19112TIP3    H178827   4.969   1.161  14.391  0.1879 -0.4677  1.2513
19112TIP3    H278828   5.030   1.299  14.386  0.0991 -0.4452  0.7049
19113TIP3   OH278829   2.139   1.741   3.635  0.2205  0.2395 -0.2163
19113TIP3    H178830   2.216   1.773   3.682 -0.5413 -1.1254  2.0440
19113TIP3    H278831   2.071   1.805   3.652  0.0068 -0.1412  0.3874
19114TIP3   OH278832   1.683   0.022  13.201 -0.5246  0.0410 -0.7798
19114TIP3    H178833   1.616   0.090  13.206  0.2270  0.7086  0.6224
19114TIP3    H278834   1.704   0.003  13.293  0.7414 -0.6024 -1.1919
19115TIP3   OH278835   5.907   4.387  11.822 -0.2645 -0.0425  0.3085
19115TIP3    H178836   5.822   4.347  11.839  0.3570 -1.5063  0.0283
19115TIP3    H278837   5.940   4.410  11.909 -0.9663  0.5959  0.4157
19116TIP3   OH278838   6.389   0.678  15.749 -0.1676 -0.0108 -0.2255
19116TIP3    H178839   6.461   0.646  15.695 -1.1244 -2.2544 -0.1947
19116TIP3    H278840   6.423   0.677  15.838  0.3776  0.7336 -0.4224
19117TIP3   OH278841   1.104   4.027   1.422  0.0643 -0.5916 -0.2578
19117TIP3    H178842   1.171   3.973   1.379  1.7843  0.9490  0.4432
19117TIP3    H278843   1.024   3.974   1.416  1.6069 -3.0829  0.0866
19118TIP3   OH278844   2.348   3.449  12.480 -0.0106 -0.2247  0.0193
19118TIP3    H178845   2.315   3.365  12.449 -1.3559  0.4113 -0.3247
19118TIP3    H278846   2.401   3.427  12.557  0.7936 -1.5081 -0.8875
19119TIP3   OH278847   0.994   1.824   3.549  0.1904 -0.5099 -0.8772
19119TIP3    H178848   1.044   1.754   3.508  2.8578  0.1952  0.9771
19119TIP3    H278849   1.016   1.817   3.642  0.6227  2.7873 -0.6642
19120TIP3   OH278850   2.071   1.106   4.523  0.1072 -0.0719 -0.1758
19120TIP3    H178851   2.011   1.102   4.448  0.4803 -0.7491 -0.4361
19120TIP3    H278852   2.015   1.133   4.596  0.1269  2.6952 -1.1076
19121TIP3   OH278853   1.208   1.440  16.587  0.3386  0.6923 -0.0114
19121TIP3    H178854   1.208   1.519  16.640  1.5079  1.3040 -0.8763
19121TIP3    H278855   1.236   1.470  16.500 -1.7399 -0.2362 -1.0382
19122TIP3   OH278856   2.095   5.191  15.976  0.3139  0.0412 -0.3018
19122TIP3    H178857   2.029   5.250  15.939  0.6674  1.1856  0.8813
19122TIP3    H278858   2.164   5.249  16.009  0.4085 -0.9951  1.3780
19123TIP3   OH278859   0.561   1.403   3.266  0.1150 -0.3244 -0.3468
19123TIP3    H178860   0.499   1.471   3.240  0.1452 -0.3230 -0.4170
19123TIP3    H278861   0.531   1.373   3.352  0.2133 -0.0846 -0.2270
19124TIP3   OH278862   1.134   3.040   1.583 -0.0022 -0.4077  0.0782
19124TIP3    H178863   1.225   3.042   1.611  1.1392 -0.6020 -3.4216
19124TIP3    H278864   1.100   3.127   1.603  0.5807 -0.6746  2.3860
19125TIP3   OH278865   4.160   5.735   2.962 -0.4016 -0.1682 -0.5950
19125TIP3    H178866   4.092   5.803   2.959  1.6981  2.0795  0.5494
19125TIP3    H278867   4.203   5.742   2.877 -2.6465 -2.7874 -2.0100
19126TIP3   OH278868   3.809   2.318  12.793  0.1073 -0.8154  0.6065
19126TIP3    H178869   3.857   2.256  12.847  1.0639  0.6308  1.4407
19126TIP3    H278870   3.869   2.342  12.723 -1.2873 -3.0439 -1.4443
19127TIP3   OH278871   0.321   3.037  13.280 -0.7033 -0.6878 -0.0967
19127TIP3    H178872   0.376   3.078  13.213 -0.0789 -0.9498  0.2427
19127TIP3    H278873   0.376   3.036  13.358 -1.6882  0.2603  0.6163
19128TIP3   OH278874   4.604   0.601  12.262 -0.5478  0.1027 -0.3392
19128TIP3    H178875   4.592   0.636  12.174  0.5624  0.5379 -0.3226
19128TIP3    H278876   4.641   0.514  12.249  0.5756  0.5656 -0.2861
19129TIP3   OH278877   3.998   1.508   6.513 -0.5026  0.5733  0.2762
19129TIP3    H178878   4.055   1.524   6.438 -1.3065 -0.9650 -0.6981
19129TIP3    H278879   3.917   1.555   6.493 -0.8964 -0.2394 -0.0605
19130TIP3   OH278880   5.391   1.275  16.341 -0.1675  0.9280 -0.0826
19130TIP3    H178881   5.415   1.202  16.284 -0.3241  1.1351 -0.4213
19130TIP3    H278882   5.296   1.265  16.353 -0.6794  2.5651 -2.3059
19131TIP3   OH278883   4.296   6.532  16.400  0.5050 -0.0059 -0.2046
19131TIP3    H178884   4.375   6.482  16.420  0.7473  1.0474  1.6051
19131TIP3    H278885   4.283   6.521  16.306  1.1241 -2.6388 -0.0332
19132TIP3   OH278886   5.207   6.348   2.319 -0.1654 -0.2414 -0.1693
19132TIP3    H178887   5.194   6.424   2.263 -2.7177 -0.0505  0.6106
19132TIP3    H278888   5.301   6.344   2.333  0.2355  1.3567 -2.1507
19133TIP3   OH278889   3.391   0.394  13.840 -0.3120 -0.4294  0.8700
19133TIP3    H178890   3.456   0.324  13.835  1.2543  0.8809  2.1491
19133TIP3    H278891   3.416   0.444  13.918 -1.2558  1.6690 -0.1426
19134TIP3   OH278892   0.722   3.737  11.892  0.5906  0.7447  0.1390
19134TIP3    H178893   0.806   3.748  11.935  1.3859  0.8713 -1.4071
19134TIP3    H278894   0.665   3.700  11.959  2.4617 -1.4055  0.5918
19135TIP3   OH278895   0.309   4.089   0.021 -0.3254  0.5200 -0.1091
19135TIP3    H178896   0.257   4.011   0.006 -0.3497  0.6598 -0.7881
19135TIP3    H278897   0.294   4.112   0.112  0.4549 -0.8249  0.3710
19136TIP3   OH278898   3.323   0.736   2.277  0.0231 -0.0677  0.0842
19136TIP3    H178899   3.416   0.714   2.277 -0.0197 -0.2666 -0.6403
19136TIP3    H278900   3.281   0.662   2.321  0.2109  0.0395  0.4448
19137TIP3   OH278901   2.908   4.442  11.152 -0.6379  0.1400  0.2424
19137TIP3    H178902   2.874   4.482  11.232 -1.0069  0.0649  0.1205
19137TIP3    H278903   2.840   4.457  11.086  0.1481  1.2195 -0.3576
19138TIP3   OH278904   6.108   0.278  13.755 -0.2418  0.1502 -0.6232
19138TIP3    H178905   6.090   0.205  13.813 -1.0884  1.3293  0.6219
19138TIP3    H278906   6.195   0.308  13.779 -0.2223  0.0543 -0.5771
19139TIP3   OH278907   2.925   2.375   2.593 -0.5481  0.7616  0.2300
19139TIP3    H178908   3.013   2.392   2.558 -0.6366  0.1607 -0.2805
19139TIP3    H278909   2.935   2.296   2.645 -0.8500  0.5092 -0.0900
19140TIP3   OH278910   5.638   2.484  11.986 -0.8108  0.1914  0.3415
19140TIP3    H178911   5.691   2.446  12.056  0.6769  1.6053  0.0203
19140TIP3    H278912   5.647   2.579  11.999 -1.8046  0.4512 -0.8204
19141TIP3   OH278913   4.371   1.715   3.461  0.1573 -0.0622  0.6447
19141TIP3    H178914   4.334   1.627   3.467  0.0323 -0.0585 -0.0427
19141TIP3    H278915   4.297   1.771   3.440  0.6880 -0.2020 -1.7809
19142TIP3   OH278916   1.198   2.248   5.450 -0.6407  0.1014  0.0074
19142TIP3    H178917   1.186   2.154   5.464 -0.9737 -0.1063 -1.5483
19142TIP3    H278918   1.251   2.277   5.524 -0.5566 -1.3043  0.5119
19143TIP3   OH278919   1.038   1.527  12.038  0.0471  0.5590 -0.5625
19143TIP3    H178920   1.104   1.537  11.970  0.4433  2.0596  0.0014
19143TIP3    H278921   0.961   1.491  11.993  0.4890  1.0002 -1.6787
19144TIP3   OH278922   6.773   2.862   2.658  0.3336 -0.6018 -0.6657
19144TIP3    H178923   6.731   2.913   2.589 -0.5299 -0.8854 -0.3460
19144TIP3    H278924   6.866   2.886   2.651  0.1934 -0.3106 -1.6474
19145TIP3   OH278925   1.428   4.985   2.892  0.2191 -0.5668 -0.1960
19145TIP3    H178926   1.461   4.902   2.859  0.6060 -0.3138 -0.4575
19145TIP3    H278927   1.343   4.996   2.847  0.0611 -0.9250  0.0139
19146TIP3   OH278928   5.411   5.609   2.981  0.3595 -0.1962 -0.0696
19146TIP3    H178929   5.336   5.561   3.017  0.6684  0.5492  1.5728
19146TIP3    H278930   5.391   5.701   2.998  1.5169  0.0224  0.1227
19147TIP3   OH278931   1.092   2.160  10.844  0.2979  0.1901  0.1729
19147TIP3    H178932   1.013   2.133  10.798 -1.4300 -3.0061  4.6455
19147TIP3    H278933   1.068   2.239  10.892  0.2443  0.0686  0.3489
19148TIP3   OH278934   1.464   5.423  11.472  0.0064  0.1189 -0.5043
19148TIP3    H178935   1.510   5.428  11.556  2.1887 -0.4113 -1.6349
19148TIP3    H278936   1.377   5.457  11.491 -0.2495 -1.9462  2.4864
19149TIP3   OH278937   5.504   3.322   1.772 -0.4060  0.3293  0.0113
19149TIP3    H178938   5.527   3.404   1.816 -1.2789  0.3416  0.4523
19149TIP3    H278939   5.544   3.330   1.685  0.9873  0.4784  0.6427
19150TIP3   OH278940   2.897   3.341   1.919 -0.0428 -0.4321  0.2012
19150TIP3    H178941   2.976   3.311   1.873 -1.8261 -2.9437 -1.3448
19150TIP3    H278942   2.915   3.323   2.011  1.0638 -1.3039 -0.1681
19151TIP3   OH278943   5.872   0.127  15.249 -0.4666 -0.6927  0.0652
19151TIP3    H178944   5.918   0.060  15.299  0.1472 -0.5569 -0.3137
19151TIP3    H278945   5.858   0.088  15.163 -0.3420 -0.4371 -0.0755
19152TIP3   OH278946   4.352   2.845  11.309 -0.4054  0.4582 -0.4536
19152TIP3    H178947   4.346   2.939  11.326 -0.2591  0.4192 -0.1723
19152TIP3    H278948   4.281   2.826  11.248  0.2909  0.9661 -1.4429
19153TIP3   OH278949   2.182   3.225  11.945 -0.0300 -0.0933  0.2111
19153TIP3    H178950   2.156   3.243  11.855 -1.7717 -1.7027  0.3485
19153TIP3    H278951   2.127   3.282  11.998  1.3311  1.2044  0.2618
19154TIP3   OH278952   2.510   0.249   6.034  0.3360  0.2955  0.2437
19154TIP3    H178953   2.526   0.162   5.996  1.1721 -0.0094  1.2628
19154TIP3    H278954   2.419   0.246   6.063  0.0138  0.1614 -0.7497
19155TIP3   OH278955   0.613   1.533   0.970  0.1806  0.3219  0.0456
19155TIP3    H178956   0.644   1.610   1.019  0.2100 -0.8105  1.8734
19155TIP3    H278957   0.687   1.473   0.971 -0.3587 -0.3427 -0.0105
19156TIP3   OH278958   2.417   1.518   0.454  0.4516 -0.3978  0.5517
19156TIP3    H178959   2.350   1.578   0.486  1.0007  1.9620 -2.4672
19156TIP3    H278960   2.370   1.458   0.395  0.6649  0.0549 -0.0851
19157TIP3   OH278961   3.969   2.302   6.501  0.2101  0.2804 -0.2985
19157TIP3    H178962   4.056   2.298   6.541  0.2819 -1.0548 -0.5428
19157TIP3    H278963   3.977   2.250   6.421 -0.8680 -0.0730 -0.1922
19158TIP3   OH278964   2.321   1.419   0.191 -0.2176  0.1669  0.4604
19158TIP3    H178965   2.289   1.491   0.137  1.0818 -1.2416 -2.2834
19158TIP3    H278966   2.400   1.389   0.146  0.2741 -1.8062  2.5605
19159TIP3   OH278967   5.125   6.373  12.190  0.2001  0.2176  0.0491
19159TIP3    H178968   5.160   6.450  12.235 -0.8560  1.4602 -1.2430
19159TIP3    H278969   5.190   6.354  12.123  0.1810  0.3160  0.0021
19160TIP3   OH278970   0.338   4.347  16.612 -0.5965 -0.2147  0.4050
19160TIP3    H178971   0.257   4.374  16.569  0.1373  0.2246 -0.7105
19160TIP3    H278972   0.389   4.427  16.621  0.0532 -0.6188  0.3820
19161TIP3   OH278973   2.604   6.607   3.324  0.4052 -0.1166  0.1099
19161TIP3    H178974   2.648   6.644   3.246 -0.3407 -1.4632 -0.9745
19161TIP3    H278975   2.552   6.680   3.358 -0.3589  0.1110 -1.4796
19162TIP3   OH278976   0.764   0.523  15.300  0.4045  0.2583 -0.4687
19162TIP3    H178977   0.798   0.474  15.225  1.2881 -1.1078  0.7986
19162TIP3    H278978   0.841   0.552  15.348 -0.1327 -1.4987  1.5573
19163TIP3   OH278979   0.634   1.669  11.330 -0.1138 -0.3967 -0.1149
19163TIP3    H178980   0.696   1.715  11.273  1.4712 -0.7292  1.2904
19163TIP3    H278981   0.586   1.739  11.374  0.0819 -0.1247 -0.3247
19164TIP3   OH278982   5.580   3.044   6.047 -0.2904  0.2532 -0.2061
19164TIP3    H178983   5.506   3.042   6.108  1.3125 -1.1308  1.7189
19164TIP3    H278984   5.645   3.100   6.089  0.9935 -1.0573 -0.4161
19165TIP3   OH278985   0.865   4.623   0.838  0.6530 -0.1211  0.4458
19165TIP3    H178986   0.774   4.595   0.826  0.9251  0.1628 -2.5890
19165TIP3    H278987   0.905   4.551   0.887 -0.6427 -1.3290 -0.2143
19166TIP3   OH278988   0.089   2.748   2.253  0.1563  0.0374 -0.2519
19166TIP3    H178989   0.135   2.753   2.170  0.5200  0.6738 -0.0182
19166TIP3    H278990  -0.002   2.768   2.231 -0.0522 -1.3982 -0.7393
19167TIP3   OH278991   1.552   0.988  14.857 -0.3512  0.2821  0.4215
19167TIP3    H178992   1.594   1.026  14.779 -1.6814  0.6533 -0.1242
19167TIP3    H278993   1.573   1.049  14.928  1.3372 -0.3485  0.4829
19168TIP3   OH278994   3.971   3.308   5.867 -0.0342 -0.6747 -0.3795
19168TIP3    H178995   3.968   3.330   5.774 -0.4384  0.3776 -0.1279
19168TIP3    H278996   3.965   3.213   5.869  3.4608 -1.0221 -1.5932
19169TIP3   OH278997   5.984   4.676  12.972 -0.2424 -0.6007  0.2612
19169TIP3    H178998   5.937   4.675  13.055 -2.1129 -1.0936 -0.7667
19169TIP3    H278999   6.066   4.630  12.990 -0.7007 -0.8470  1.7802
19170TIP3   OH279000   2.033   4.281  16.215 -0.3157  0.0468 -0.9719
19170TIP3    H179001   1.951   4.320  16.243  0.2140  1.3228 -1.1722
19170TIP3    H279002   2.100   4.346  16.237  0.7073 -1.1639 -0.3728
19171TIP3   OH279003   4.137   3.782   3.810 -0.1879 -0.3259 -0.3340
19171TIP3    H179004   4.099   3.717   3.870  2.0944 -1.5325 -0.1498
19171TIP3    H279005   4.074   3.787   3.738 -0.7641 -2.1951  0.0028
19172TIP3   OH279006   6.609   5.669  13.170  0.3566 -0.0309 -0.2060
19172TIP3    H179007   6.651   5.643  13.252  0.6227  1.3199  0.0962
19172TIP3    H279008   6.590   5.762  13.181 -0.1811  0.0151 -1.4344
19173TIP3   OH279009   1.746   5.736   1.082  0.5874 -0.7283  0.3172
19173TIP3    H179010   1.708   5.811   1.036  1.6389  0.8110  1.8871
19173TIP3    H279011   1.676   5.671   1.083 -0.8460  0.7694  0.1608
19174TIP3   OH279012   2.509   1.732   1.395  0.2360 -0.1603  0.1026
19174TIP3    H179013   2.572   1.780   1.449  0.7685  0.8030 -1.3525
19174TIP3    H279014   2.454   1.799   1.355 -1.9597 -1.0068  1.6102
19175TIP3   OH279015   4.185   0.619   2.205 -0.1569 -0.2247 -0.2654
19175TIP3    H179016   4.251   0.587   2.267  1.7362  0.2839 -1.9598
19175TIP3    H279017   4.153   0.700   2.244  0.5756 -0.2263  0.3582
19176TIP3   OH279018   4.537   4.859   1.948 -0.5978 -0.1845 -0.2016
19176TIP3    H179019   4.520   4.816   1.864  0.7227 -0.4320 -0.3523
19176TIP3    H279020   4.633   4.861   1.955 -0.6968 -0.2480  1.3422
19177TIP3   OH279021   2.760   1.603  12.948  0.0276  0.5303  0.0487
19177TIP3    H179022   2.719   1.523  12.981  1.8073  0.4890  2.2109
19177TIP3    H279023   2.803   1.576  12.867 -2.5112  0.1490 -1.2190
19178TIP3   OH279024   5.431   0.060  16.929 -0.4268 -0.2451  0.1068
19178TIP3    H179025   5.515   0.075  16.973 -0.6170 -0.8885  0.7067
19178TIP3    H279026   5.387   0.144  16.931 -0.0992 -0.0795  0.4467
19179TIP3   OH279027   1.771   2.453  17.062  0.0610  0.2609 -0.0690
19179TIP3    H179028   1.705   2.431  16.996 -1.4299  0.0776  1.4360
19179TIP3    H279029   1.789   2.370  17.107  0.6099  0.4958  0.1496
19180TIP3   OH279030   4.925   2.583  14.716 -0.4407 -0.0643  0.3412
19180TIP3    H179031   4.918   2.659  14.774 -0.7807 -0.6664  1.0974
19180TIP3    H279032   4.946   2.510  14.775 -0.1315 -0.5570 -0.3773
19181TIP3   OH279033   6.384   5.636  13.359 -0.1361 -0.1796  0.5718
19181TIP3    H179034   6.473   5.601  13.367  0.3255  0.9768  0.7217
19181TIP3    H279035   6.368   5.679  13.443 -0.5228  0.3218  0.2444
19182TIP3   OH279036   0.149   1.163  14.703  0.0248  0.0846  0.1399
19182TIP3    H179037   0.069   1.196  14.745  0.8223 -0.5744  2.2290
19182TIP3    H279038   0.147   1.200  14.615 -3.2634 -1.0027 -0.3028
19183TIP3   OH279039   5.341   2.009   0.607 -0.6946 -0.0037 -0.4440
19183TIP3    H179040   5.326   1.994   0.514 -1.2040 -2.6968  0.0481
19183TIP3    H279041   5.415   1.953   0.630 -0.4531  0.7639  0.7465
19184TIP3   OH279042   4.399   2.827   2.693 -0.3748  0.1829 -0.2795
19184TIP3    H179043   4.373   2.748   2.644  0.6163  0.4330 -1.2320
19184TIP3    H279044   4.404   2.896   2.626 -0.5094  0.8835  0.4285
19185TIP3   OH279045   3.198   0.939  16.468  0.2249 -0.8241  0.2498
19185TIP3    H179046   3.257   1.014  16.459  2.0458 -2.3439 -0.8568
19185TIP3    H279047   3.124   0.960  16.411  0.1822  0.6109  0.8031
19186TIP3   OH279048   0.531   0.533  11.455 -0.6527 -0.5260 -0.6339
19186TIP3    H179049   0.594   0.573  11.395 -1.9765  0.5374 -1.3411
19186TIP3    H279050   0.549   0.574  11.539 -0.8463  0.2941 -0.9862
19187TIP3   OH279051   2.833   5.232   3.660  0.3105 -0.2283  0.8101
19187TIP3    H179052   2.816   5.192   3.575 -3.1626  1.4874  0.5926
19187TIP3    H279053   2.915   5.279   3.650 -1.3905  2.1930 -2.4585
19188TIP3   OH279054   5.946   3.522  15.881 -0.4318  0.0090 -0.1637
19188TIP3    H179055   5.921   3.443  15.929  1.4667 -0.2287  0.4617
19188TIP3    H279056   5.986   3.490  15.800 -0.4226  0.3597 -0.3028
19189TIP3   OH279057   5.659   5.346   1.422 -0.6686  0.1718  0.5419
19189TIP3    H179058   5.611   5.336   1.339 -3.4687 -1.7923  2.3005
19189TIP3    H279059   5.593   5.330   1.489  1.8640  0.4073  3.1617
19190TIP3   OH279060   6.662   3.811  12.687 -0.0862 -0.5547 -0.7808
19190TIP3    H179061   6.720   3.737  12.667  0.0821 -0.5614 -0.2809
19190TIP3    H279062   6.588   3.800  12.628  0.9007  0.0193 -2.1512
19191TIP3   OH279063   5.055   3.273   4.449 -0.0836 -0.4005  0.1614
19191TIP3    H179064   5.076   3.293   4.540 -1.7490 -1.6488  0.8397
19191TIP3    H279065   4.964   3.242   4.451  0.3049 -1.7755 -1.7341
19192TIP3   OH279066   5.032   5.821  13.905  0.3337 -0.2954  0.5953
19192TIP3    H179067   5.070   5.883  13.967  1.2793  0.7179 -0.9533
19192TIP3    H279068   4.996   5.751  13.960  1.4050  0.4211  2.2571
19193TIP3   OH279069   0.283   0.057   3.719 -0.2347 -0.1771 -0.5687
19193TIP3    H179070   0.250   0.107   3.794  0.5111 -1.8743  0.9242
19193TIP3    H279071   0.375   0.041   3.739 -0.6447 -2.8349 -0.6220
19194TIP3   OH279072   1.858   5.646   6.246 -0.1946 -0.4843  0.3140
19194TIP3    H179073   1.874   5.657   6.340 -0.0828 -0.5372  0.3019
19194TIP3    H279074   1.851   5.551   6.234  0.6440 -0.5293  0.1362
19195TIP3   OH279075   4.374   5.050   3.977  0.5138  0.0795  0.8955
19195TIP3    H179076   4.388   5.115   3.908  0.7775 -2.5216 -1.6345
19195TIP3    H279077   4.344   5.100   4.052  1.9263  3.2411 -0.5553
19196TIP3   OH279078   3.317   5.555  15.286  0.1205  0.3409 -0.4190
19196TIP3    H179079   3.292   5.617  15.218 -0.6551 -0.7427 -1.1283
19196TIP3    H279080   3.358   5.482  15.239  1.8332  0.6825  0.4764
19197TIP3   OH279081   1.268   3.273  12.855 -0.0690 -0.0385 -0.4265
19197TIP3    H179082   1.174   3.271  12.839 -0.2712  1.5106  0.4659
19197TIP3    H279083   1.283   3.206  12.921 -0.3824 -1.0382 -1.3602
19198TIP3   OH279084   6.687   0.897   3.378 -0.5868 -0.1154  0.6285
19198TIP3    H179085   6.675   0.992   3.383 -0.9015 -0.1142 -0.0610
19198TIP3    H279086   6.773   0.882   3.417 -1.6673  0.1695  3.1681
19199TIP3   OH279087   4.758   1.125   2.002 -1.2411 -0.0910  0.7502
19199TIP3    H179088   4.757   1.078   2.085 -0.6898  0.0972  0.8583
19199TIP3    H279089   4.733   1.214   2.024 -0.8606  0.0148  0.7424
19200TIP3   OH279090   4.886   2.223   4.041 -0.2403 -0.3255 -0.3049
19200TIP3    H179091   4.896   2.290   3.973 -0.4898  0.4564  0.4185
19200TIP3    H279092   4.871   2.142   3.993 -2.1253  0.5046 -1.1656
19201TIP3   OH279093   6.746   4.136  15.453  0.3041  0.0065 -0.6022
19201TIP3    H179094   6.729   4.213  15.399 -0.5871  0.7876  0.7595
19201TIP3    H279095   6.663   4.090  15.457 -0.3198  1.2496  2.0665
19202TIP3   OH279096   2.672   5.262   4.875 -0.1502  0.0640  0.2936
19202TIP3    H179097   2.764   5.265   4.901  0.6131 -2.8220 -1.9065
19202TIP3    H279098   2.637   5.186   4.922 -0.6804 -0.5726 -1.1283
19203TIP3   OH279099   3.225   6.385  14.304  0.8394  0.3180 -0.3217
19203TIP3    H179100   3.152   6.354  14.358 -0.6139  1.0724 -1.7958
19203TIP3    H279101   3.204   6.355  14.215  0.9617  2.8127 -1.2355
19204TIP3   OH279102   1.988   2.939   3.725  0.0906 -0.3125  0.9156
19204TIP3    H179103   1.909   2.958   3.674  3.6007  1.9443 -4.1360
19204TIP3    H279104   1.989   3.006   3.793 -2.0156  0.0450  0.6399
19205TIP3   OH279105   4.351   1.172  13.145 -0.3331  0.6264  0.0135
19205TIP3    H179106   4.369   1.265  13.159  0.9464  0.5059 -0.7574
19205TIP3    H279107   4.332   1.165  13.051 -0.6019  0.1294  0.1030
19206TIP3   OH279108   3.053   2.705   0.506 -0.2613 -0.0482  0.0625
19206TIP3    H179109   3.046   2.785   0.558 -0.4485 -0.5991  0.8930
19206TIP3    H279110   3.005   2.725   0.425 -0.3515  0.6549  0.2826
19207TIP3   OH279111   4.320   3.441  11.182  0.0844  0.4087 -0.4276
19207TIP3    H179112   4.353   3.406  11.265 -0.2908  2.9014  0.8068
19207TIP3    H279113   4.379   3.404  11.116  1.2982 -0.4336  1.0947
19208TIP3   OH279114   5.355   2.284  16.767  0.0827 -0.5327 -0.1421
19208TIP3    H179115   5.314   2.198  16.761  0.2522 -0.5956 -0.3944
19208TIP3    H279116   5.413   2.289  16.691  0.0614 -0.1913 -0.1397
19209TIP3   OH279117   0.037   2.747  16.607  0.1231  1.2024 -0.0565
19209TIP3    H179118  -0.001   2.705  16.684 -1.3567  1.8829 -0.3982
19209TIP3    H279119   0.102   2.808  16.643 -0.3330  1.2834  0.6451
19210TIP3   OH279120   2.047   0.501   1.053  1.2685  0.1793 -0.3239
19210TIP3    H179121   2.038   0.423   1.107 -1.0462  0.1832 -0.6561
19210TIP3    H279122   2.101   0.474   0.979  0.7462 -1.0370 -0.2684
19211TIP3   OH279123   2.712   0.539  12.872 -0.0053 -0.0903 -0.1338
19211TIP3    H179124   2.638   0.489  12.906 -0.3397  0.5316  0.0598
19211TIP3    H279125   2.786   0.514  12.927  0.0011 -0.9668 -0.5431
19212TIP3   OH279126   1.528   6.148  12.079 -0.1107  0.4888  0.0397
19212TIP3    H179127   1.523   6.158  11.984  0.9769  1.4062  0.0655
19212TIP3    H279128   1.518   6.237  12.112  2.2625  0.5505  0.6487
19213TIP3   OH279129   0.250   2.777   0.502 -0.1792  0.2094 -0.4553
19213TIP3    H179130   0.326   2.828   0.472  1.2633 -0.3950  2.0542
19213TIP3    H279131   0.285   2.689   0.517 -1.2999  0.0078  1.0733
19214TIP3   OH279132   5.961   4.585  13.480 -0.7283  0.1877  0.1489
19214TIP3    H179133   6.034   4.647  13.488  0.4713 -1.0859 -0.6183
19214TIP3    H279134   5.888   4.637  13.447  0.1527  1.2540 -0.1459
19215TIP3   OH279135   3.236   6.409   4.728  0.2170  0.3164  0.3291
19215TIP3    H179136   3.277   6.418   4.642  0.4787 -0.5041  0.3677
19215TIP3    H279137   3.173   6.338   4.717  1.3130 -0.8170  1.1994
19216TIP3   OH279138   5.762   4.193  16.482  0.0206  0.3314  0.3673
19216TIP3    H179139   5.714   4.267  16.446 -0.0221 -0.4034 -1.0891
19216TIP3    H279140   5.706   4.160  16.553  0.2040  1.8914  1.2567
19217TIP3   OH279141   3.960   4.614  13.165 -0.2748 -0.6728  0.4453
19217TIP3    H179142   3.883   4.649  13.121 -0.5795 -2.5194 -0.5468
19217TIP3    H279143   4.028   4.613  13.097  0.0660 -0.9173  0.7844
19218TIP3   OH279144   2.620   4.544   2.356 -0.4651  0.2330  0.7512
19218TIP3    H179145   2.575   4.629   2.354  0.7222  0.8653  0.8438
19218TIP3    H279146   2.552   4.482   2.382 -0.9944  1.3717  2.1267
19219TIP3   OH279147   1.359   3.223  13.369 -0.4913  0.6052 -0.1015
19219TIP3    H179148   1.292   3.255  13.308 -1.8852 -1.5654  0.2489
19219TIP3    H279149   1.379   3.135  13.339  0.9643  0.5951  0.8529
19220TIP3   OH279150   1.505   4.745   4.133  0.2308  0.1216 -0.1243
19220TIP3    H179151   1.552   4.662   4.136  0.0929 -0.0156 -1.4867
19220TIP3    H279152   1.551   4.801   4.196  1.0863 -0.5923 -0.1089
19221TIP3   OH279153   5.056   1.275   0.728 -0.2614 -0.2130 -0.1003
19221TIP3    H179154   5.070   1.341   0.796 -0.7941 -1.1972  0.9663
19221TIP3    H279155   4.972   1.299   0.689 -1.0113 -0.9130  1.0526
19222TIP3   OH279156   1.159   6.737  15.166  0.6032  0.3439 -0.2638
19222TIP3    H179157   1.248   6.769  15.182  1.7559 -2.5038 -0.5258
19222TIP3    H279158   1.150   6.663  15.227 -1.1128 -0.1858 -1.1379
19223TIP3   OH279159   1.631   5.927   4.507 -0.1303 -0.1283  0.3381
19223TIP3    H179160   1.724   5.916   4.486 -0.1940 -1.0927  0.5413
19223TIP3    H279161   1.629   6.004   4.564  0.4168  0.5288 -0.5191
19224TIP3   OH279162   3.267   4.821   2.021  0.3240  0.5008 -0.7026
19224TIP3    H179163   3.285   4.727   2.029  0.5811  0.5034 -1.2250
19224TIP3    H279164   3.347   4.863   2.053 -0.5539  0.5763  1.4843
19225TIP3   OH279165   5.797   1.668   1.473  0.0588 -0.2829 -0.3274
19225TIP3    H179166   5.834   1.624   1.550 -0.8018 -1.0025 -0.3176
19225TIP3    H279167   5.775   1.756   1.504 -1.4643 -0.9651  0.6085
19226TIP3   OH279168   0.822   2.846   5.594 -0.5339 -0.0990 -0.5144
19226TIP3    H179169   0.757   2.891   5.649  0.7762  1.0066  0.1677
19226TIP3    H279170   0.776   2.769   5.561 -1.3332 -0.8912  2.2785
19227TIP3   OH279171   1.948   1.570  14.664  0.5446 -0.0335  0.6355
19227TIP3    H179172   2.015   1.513  14.702  1.7379  0.7126 -0.3429
19227TIP3    H279173   1.966   1.656  14.700 -0.6830 -0.0642  1.3646
19228TIP3   OH279174   1.317   3.496   5.761  0.3552  0.1156  0.9113
19228TIP3    H179175   1.331   3.568   5.700 -2.8848 -0.6817 -0.9040
19228TIP3    H279176   1.359   3.421   5.719 -0.4234 -0.0669  0.4434
19229TIP3   OH279177   6.311   4.493  16.417  0.3108 -0.0296  0.2046
19229TIP3    H179178   6.357   4.575  16.438  0.4308  0.1546 -0.7776
19229TIP3    H279179   6.220   4.511  16.440  0.6966 -0.3966  2.1529
19230TIP3   OH279180   6.570   3.647   4.857  0.4692  0.0027  0.0241
19230TIP3    H179181   6.610   3.654   4.771  2.4326  1.5615  1.0411
19230TIP3    H279182   6.482   3.614   4.840  0.8964  0.1323 -2.5506
19231TIP3   OH279183   5.760   3.520  16.212 -0.5208 -0.0485 -0.4551
19231TIP3    H179184   5.821   3.524  16.286 -1.1290 -0.9977  0.0931
19231TIP3    H279185   5.756   3.611  16.180 -0.0329  0.3129  0.4901
19232TIP3   OH279186   1.045   0.302  17.057  0.2624 -0.3169 -0.1605
19232TIP3    H179187   0.962   0.350  17.057  0.8796  0.7689 -0.0861
19232TIP3    H279188   1.110   0.368  17.033  1.1427 -1.0918  0.0893
19233TIP3   OH279189   4.683   0.110   4.887 -0.5171 -0.0820 -0.1398
19233TIP3    H179190   4.675   0.178   4.819 -1.8946 -0.7566 -0.6854
19233TIP3    H279191   4.719   0.156   4.962 -0.8193  1.1276 -0.7112
19234TIP3   OH279192   2.438   1.307  12.724 -0.0191 -0.5112  0.0242
19234TIP3    H179193   2.368   1.242  12.721 -2.0512  1.6525 -1.4858
19234TIP3    H279194   2.471   1.313  12.634  0.8456 -0.1744  0.3525
19235TIP3   OH279195   4.701   5.199   1.950  0.4102 -0.6307 -0.3768
19235TIP3    H179196   4.635   5.264   1.928  0.9440  0.0220 -0.0855
19235TIP3    H279197   4.653   5.128   1.993  0.3422  1.4223  3.1564
19236TIP3   OH279198   3.249   6.515  15.669 -0.4898  0.2466 -0.0113
19236TIP3    H179199   3.267   6.609  15.667 -0.8306  0.3040 -0.5266
19236TIP3    H279200   3.332   6.475  15.696  0.1009  0.5857 -1.2743
19237TIP3   OH279201   3.045   6.663  11.280  0.9179  0.1437 -0.0225
19237TIP3    H179202   2.997   6.605  11.338  3.6627 -0.8730  1.3152
19237TIP3    H279203   3.055   6.614  11.199 -1.5704  0.9591 -0.8585
19238TIP3   OH279204   4.887   3.596   0.283  0.1946  0.1433  0.1244
19238TIP3    H179205   4.808   3.548   0.306  0.3856 -0.1850  0.0931
19238TIP3    H279206   4.936   3.602   0.365  0.8641 -1.0068 -0.1769
19239TIP3   OH279207   2.673   4.300   4.217  0.3174 -0.6891  0.7702
19239TIP3    H179208   2.610   4.323   4.286  0.5584 -0.4474  0.9086
19239TIP3    H279209   2.752   4.273   4.264  1.1099  1.2113  0.5882
19240TIP3   OH279210   5.413   2.176   2.727 -0.2638 -0.5707  0.4541
19240TIP3    H179211   5.450   2.176   2.638 -1.0246 -0.1073  0.1310
19240TIP3    H279212   5.484   2.209   2.782 -0.0334 -0.1298 -0.0998
19241TIP3   OH279213   6.092   3.324   0.999 -0.2631  0.4604 -0.1879
19241TIP3    H179214   6.016   3.372   0.964 -0.4384  0.0444 -0.3885
19241TIP3    H279215   6.130   3.382   1.064 -2.2277 -0.3258  1.7164
19242TIP3   OH279216   0.945   5.271   2.089 -0.1204  0.1805  0.3504
19242TIP3    H179217   0.863   5.239   2.050 -0.4949 -0.0272  1.3090
19242TIP3    H279218   0.999   5.193   2.097  0.7256  0.5280 -1.5844
19243TIP3   OH279219   4.566   4.532  11.806 -0.4972 -1.0183  0.0602
19243TIP3    H179220   4.654   4.497  11.794  0.2914  0.7587  0.5382
19243TIP3    H279221   4.571   4.583  11.887 -1.8847 -0.6758 -0.0573
19244TIP3   OH279222   3.637   2.068   5.337 -0.4575  0.6518  0.1741
19244TIP3    H179223   3.640   2.067   5.432  1.8319  1.6142  0.1379
19244TIP3    H279224   3.558   2.117   5.316 -1.8360 -0.9236  1.5612
19245TIP3   OH279225   5.027   2.498  14.355 -0.5291  0.5395 -0.4618
19245TIP3    H179226   5.076   2.482  14.435 -2.4036  0.0700  0.6214
19245TIP3    H279227   5.081   2.459  14.285  0.1052 -0.9253  0.8186
19246TIP3   OH279228   3.369   1.167  12.145  0.0572 -0.2979 -0.5393
19246TIP3    H179229   3.286   1.152  12.190 -0.1299  1.7750 -0.1388
19246TIP3    H279230   3.429   1.195  12.214  1.6375 -3.5096 -0.5064
19247TIP3   OH279231   6.385   2.286   3.981  0.4254 -0.2596 -0.3601
19247TIP3    H179232   6.351   2.301   4.068  1.3506  0.8826 -0.1870
19247TIP3    H279233   6.376   2.191   3.968  2.2895 -0.7841  1.8340
19248TIP3   OH279234   4.189   5.930   3.344  0.4525  0.2859 -0.0518
19248TIP3    H179235   4.171   6.014   3.301  1.5783  0.8060  0.4760
19248TIP3    H279236   4.130   5.868   3.300  0.7993  1.0186 -1.6089
19249TIP3   OH279237   3.021   2.424   3.794 -0.1187  0.1077  0.0725
19249TIP3    H179238   3.111   2.452   3.813  0.0345  0.4247 -1.0946
19249TIP3    H279239   3.022   2.329   3.804  0.2495  0.1529  0.4599
19250TIP3   OH279240   3.443   1.023  16.617  0.0828 -0.0009  0.1613
19250TIP3    H179241   3.421   1.094  16.677 -0.7892 -0.1383  0.0131
19250TIP3    H279242   3.522   0.985  16.653 -0.3772 -0.0215  1.1726
19251TIP3   OH279243   6.646   1.487  14.001  0.5024 -0.0203 -0.1176
19251TIP3    H179244   6.702   1.410  14.004 -1.4240 -1.4824 -0.2610
19251TIP3    H279245   6.706   1.561  14.007  2.3131 -1.5346  1.3581
19252TIP3   OH279246   6.532   0.613  15.521  0.2500  0.0160 -0.5207
19252TIP3    H179247   6.477   0.599  15.445 -0.6721  3.2339 -0.4952
19252TIP3    H279248   6.584   0.690  15.500  0.6155  0.4299  1.7630
19253TIP3   OH279249   1.070   6.720  14.831 -0.1089 -0.3554 -0.5140
19253TIP3    H179250   0.992   6.718  14.774 -2.0500  1.3001  1.9937
19253TIP3    H279251   1.051   6.656  14.900  0.5521  0.4083  0.3833
19254TIP3   OH279252   3.289   0.372  12.509  0.1869 -0.3359  0.0047
19254TIP3    H179253   3.346   0.296  12.496  0.4918  0.0937 -1.2474
19254TIP3    H279254   3.348   0.447  12.501 -0.6162  0.1262 -1.7060
19255TIP3   OH279255   4.905   0.278  13.212 -0.3302 -0.3087  0.1482
19255TIP3    H179256   4.949   0.279  13.297  0.0666 -1.5473 -0.0337
19255TIP3    H279257   4.849   0.356  13.213 -1.6080 -1.2097  2.2429
19256TIP3   OH279258   1.345   4.090  15.358 -0.1255  0.1843  0.0307
19256TIP3    H179259   1.263   4.137  15.374 -0.7907 -0.0659 -2.4071
19256TIP3    H279260   1.347   4.078  15.263  1.4213 -2.2189  0.3459
19257TIP3   OH279261   4.887   3.365   2.979 -0.3062  0.0704  0.7225
19257TIP3    H179262   4.852   3.297   3.036 -1.1749 -0.1238 -0.0434
19257TIP3    H279263   4.857   3.342   2.891 -1.0893  1.7508  0.5203
19258TIP3   OH279264   4.188   6.612  13.821 -0.6318 -0.3365 -0.2664
19258TIP3    H179265   4.128   6.625  13.895 -0.1313 -0.5844  0.1833
19258TIP3    H279266   4.252   6.548  13.852  0.7951  1.0820 -0.1989
19259TIP3   OH279267   0.650   2.547   2.067 -0.2208  0.7154  0.0828
19259TIP3    H179268   0.630   2.511   1.980 -0.2332 -2.0379  1.1933
19259TIP3    H279269   0.739   2.580   2.059  0.0367 -0.1667 -0.7728
19260TIP3   OH279270   2.710   6.188  16.529  0.0953  0.1061 -0.9597
19260TIP3    H179271   2.690   6.174  16.622 -0.8354 -0.2631 -1.2043
19260TIP3    H279272   2.775   6.258  16.529  1.1967 -0.9011  0.0381
19261TIP3   OH279273   3.878   0.823  14.809 -0.1291 -0.0574 -0.1621
19261TIP3    H179274   3.882   0.917  14.822  0.6955  0.3009 -2.8113
19261TIP3    H279275   3.950   0.803  14.749 -1.1128 -2.1866 -0.6909
19262TIP3   OH279276   0.468   2.624   6.245  0.0532  0.6569 -0.0446
19262TIP3    H179277   0.536   2.611   6.311 -0.3011 -0.7128  0.0829
19262TIP3    H279278   0.386   2.621   6.295 -0.2632 -1.3169 -0.6410
19263TIP3   OH279279   0.972   4.576  12.464 -0.0364  0.2607 -0.0909
19263TIP3    H179280   0.931   4.594  12.380 -2.0025  0.7889  0.9588
19263TIP3    H279281   0.992   4.663  12.500  2.3704  0.0235 -0.7239
19264TIP3   OH279282   3.937   3.857  15.104  0.1627 -0.2873  0.6988
19264TIP3    H179283   3.993   3.784  15.132 -0.6059 -1.3538 -0.5299
19264TIP3    H279284   3.993   3.934  15.115  1.6712 -1.2609  0.1477
19265TIP3   OH279285   6.105   5.416  15.211 -0.2428 -0.2746 -0.3479
19265TIP3    H179286   6.180   5.358  15.200 -0.2953 -0.0366 -2.0641
19265TIP3    H279287   6.144   5.501  15.234 -0.1497 -0.8703  1.7704
19266TIP3   OH279288   0.689   2.899   4.805 -0.1109 -0.0674  0.0264
19266TIP3    H179289   0.753   2.828   4.803 -0.6037 -0.5806  1.3399
19266TIP3    H279290   0.721   2.959   4.873  0.1684  0.8446 -0.8930
19267TIP3   OH279291   3.902   3.892   4.858  0.1869 -0.0492 -0.1639
19267TIP3    H179292   3.903   3.969   4.915  1.6253  1.1214 -1.7488
19267TIP3    H279293   3.927   3.925   4.772  0.7511 -2.2936 -0.8864
19268TIP3   OH279294   5.863   5.880   1.483  0.6638 -0.3752  0.2004
19268TIP3    H179295   5.875   5.792   1.449 -0.8106 -0.3112 -0.5387
19268TIP3    H279296   5.930   5.890   1.551  0.8211 -2.0585  0.2965
19269TIP3   OH279297   2.639   3.590  13.447  0.5683 -0.2039 -0.3365
19269TIP3    H179298   2.700   3.557  13.381 -1.7108 -2.6525 -1.2946
19269TIP3    H279299   2.630   3.518  13.510 -0.0366  0.7551  0.6939
19270TIP3   OH279300   6.788   3.593   0.345  0.2286 -0.9080  0.1581
19270TIP3    H179301   6.737   3.592   0.426 -0.0410 -0.3760 -0.0071
19270TIP3    H279302   6.783   3.683   0.314  1.2598 -0.8444  0.1366
19271TIP3   OH279303   4.937   5.300   1.145  0.6723  0.2158 -0.3304
19271TIP3    H179304   4.943   5.275   1.052 -1.1588 -3.2546  0.4034
19271TIP3    H279305   4.886   5.382   1.144 -0.7953 -0.6797 -2.2906
19272TIP3   OH279306   4.817   6.115  13.908  0.0269  0.3405  0.0011
19272TIP3    H179307   4.778   6.043  13.959  1.4444  0.8794  1.8882
19272TIP3    H279308   4.910   6.093  13.902  0.0199  0.6881 -1.7203
19273TIP3   OH279309   2.751   1.918   2.501 -0.3050 -0.2827 -0.5133
19273TIP3    H179310   2.780   1.827   2.507  0.0780 -0.1762 -0.7503
19273TIP3    H279311   2.831   1.969   2.505 -0.4269 -0.0061 -1.6646
19274TIP3   OH279312   5.691   2.759  12.661 -0.1153  0.1484 -0.0583
19274TIP3    H179313   5.629   2.820  12.620 -0.6952 -0.9128 -0.7979
19274TIP3    H279314   5.647   2.731  12.741 -0.5941 -0.5550 -0.5508
19275TIP3   OH279315   4.994   2.545   4.003 -0.4088  0.4454  0.3277
19275TIP3    H179316   4.967   2.535   4.095  0.5165 -1.1398  0.4408
19275TIP3    H279317   4.924   2.503   3.953  0.8000 -1.8340  0.5112
19276TIP3   OH279318   0.670   3.977   0.182  0.3507 -0.1514  0.3672
19276TIP3    H179319   0.617   4.056   0.172  2.2781  1.1159 -0.2552
19276TIP3    H279320   0.607   3.907   0.196 -1.4386  1.3970  0.2585
19277TIP3   OH279321   6.739   1.015  16.995 -0.6702 -0.0754  0.2115
19277TIP3    H179322   6.805   0.956  17.033 -0.7657  0.8436  1.8831
19277TIP3    H279323   6.750   1.096  17.045 -1.5749  0.8084 -1.0258
19278TIP3   OH279324   6.634   0.322   2.464  0.2795  0.7699  0.0336
19278TIP3    H179325   6.648   0.336   2.371  2.0926 -1.3849 -0.0484
19278TIP3    H279326   6.706   0.368   2.507  1.1593 -0.7216  0.1963
19279TIP3   OH279327   2.603   6.616   3.907 -0.2535 -0.3284 -0.0529
19279TIP3    H179328   2.576   6.681   3.971 -0.8000  1.6012 -2.1846
19279TIP3    H279329   2.691   6.644   3.880 -1.2475  0.7040 -2.3863
19280TIP3   OH279330   6.280   1.004  12.331  0.5470 -0.1995  0.7092
19280TIP3    H179331   6.341   0.931  12.327  0.4170 -0.2572 -0.3728
19280TIP3    H279332   6.206   0.977  12.278  1.3079  1.4473 -1.2773
19281TIP3   OH279333   3.728   4.319   4.402 -0.8413  0.7460 -0.7719
19281TIP3    H179334   3.670   4.313   4.478 -1.1884 -1.3680 -1.1902
19281TIP3    H279335   3.675   4.288   4.328  0.0947  0.9621 -1.5441
19282TIP3   OH279336   2.640   1.371   3.225  0.2536  0.7274 -0.1930
19282TIP3    H179337   2.667   1.345   3.137  1.4674 -0.1792  0.4323
19282TIP3    H279338   2.697   1.321   3.283  0.0725  1.9957  1.0994
19283TIP3   OH279339   0.979   1.954   6.202 -0.3887 -0.7827  0.2903
19283TIP3    H179340   0.889   1.986   6.210 -0.1546  0.0285 -0.3059
19283TIP3    H279341   1.013   1.958   6.292 -0.7625 -0.5558  0.4253
19284TIP3   OH279342   6.067   1.183   5.985 -0.2447 -0.2400  0.6086
19284TIP3    H179343   6.142   1.242   5.992  0.5738 -1.3309  1.0657
19284TIP3    H279344   5.999   1.225   6.037 -0.6177  1.7739 -1.4139
19285TIP3   OH279345   0.249   3.990  10.640  0.1992 -1.0768 -0.1957
19285TIP3    H179346   0.305   3.944  10.577  2.3023 -0.1108  0.8780
19285TIP3    H279347   0.298   3.984  10.722  0.4439  2.8485  0.0104
19286TIP3   OH279348   5.155   2.789  14.288  0.1632 -0.5924 -0.3984
19286TIP3    H179349   5.207   2.731  14.343  0.8051 -2.2904 -2.7434
19286TIP3    H279350   5.218   2.827  14.227 -0.7095  0.4427 -0.6734
19287TIP3   OH279351   0.533   6.649   0.326  0.5516  0.0763 -0.5379
19287TIP3    H179352   0.452   6.696   0.307 -1.5974 -2.7143  1.3290
19287TIP3    H279353   0.568   6.693   0.404 -0.1639  0.1409 -0.2429
19288TIP3   OH279354   4.231   2.430  13.500  0.1432 -0.6407  0.5460
19288TIP3    H179355   4.261   2.375  13.428  0.7965 -0.1301  0.4227
19288TIP3    H279356   4.270   2.390  13.578  0.4365 -0.4872  0.4813
19289TIP3   OH279357   2.302   4.149  16.584 -0.1840 -0.0845  0.4037
19289TIP3    H179358   2.299   4.190  16.670 -1.2381  2.4244 -0.7854
19289TIP3    H279359   2.360   4.206  16.532  0.1884 -1.3892 -0.6469
19290TIP3   OH279360   5.875   0.756   2.978  0.1970 -0.7539  0.6227
19290TIP3    H179361   5.962   0.717   2.963 -1.1514 -2.5603 -3.1603
19290TIP3    H279362   5.819   0.681   2.998 -1.3699 -0.2260 -1.5675
19291TIP3   OH279363   1.443   0.501  16.630 -0.3994 -0.1578  0.4463
19291TIP3    H179364   1.348   0.511  16.640 -0.4205 -0.8869  1.0826
19291TIP3    H279365   1.480   0.556  16.699 -0.3550  0.3248  0.0378
19292TIP3   OH279366   1.089   2.385  14.828 -0.1129 -0.0303 -0.1945
19292TIP3    H179367   1.151   2.332  14.876 -0.1683  1.0843  1.1256
19292TIP3    H279368   1.036   2.428  14.895 -1.2592  0.2705 -1.2655
19293TIP3   OH279369   3.580   6.616  17.264  0.3378 -0.4417 -0.3508
19293TIP3    H179370   3.539   6.556  17.202  0.4560 -0.5055 -0.3672
19293TIP3    H279371   3.609   6.561  17.337  2.8026 -0.7962 -1.5561
19294TIP3   OH279372   4.064   4.418   3.803  0.0143 -0.2195  0.0089
19294TIP3    H179373   4.134   4.437   3.865 -1.1294  0.9176  0.9973
19294TIP3    H279374   3.984   4.421   3.856 -0.8232 -1.0842 -1.1709
19295TIP3   OH279375   3.763   5.283   5.936  0.3190 -0.2485 -0.1359
19295TIP3    H179376   3.698   5.221   5.902 -1.1767  0.6882  0.9509
19295TIP3    H279377   3.840   5.229   5.954  0.0708 -1.2757 -2.0373
19296TIP3   OH279378   5.471   5.649   6.158 -0.9776  0.0899  0.5428
19296TIP3    H179379   5.535   5.672   6.090 -2.5477 -0.8452 -1.2976
19296TIP3    H279380   5.525   5.626   6.234  0.9645 -1.8096 -1.3144
19297TIP3   OH279381   1.551   6.768   4.702  0.4221  0.4543 -0.6824
19297TIP3    H179382   1.636   6.810   4.688  1.0009  0.3627  2.3723
19297TIP3    H279383   1.570   6.674   4.697  0.0284  0.4437 -2.4131
19298TIP3   OH279384   6.280   3.367  16.808  0.1349  0.7888  0.2021
19298TIP3    H179385   6.311   3.300  16.748  1.3898  1.9305 -0.4590
19298TIP3    H279386   6.282   3.326  16.894 -2.2901 -1.0858 -0.5741
19299TIP3   OH279387   2.466   6.380  14.548 -0.1008 -0.3261 -0.2994
19299TIP3    H179388   2.557   6.363  14.573 -0.6122 -1.5671  0.7177
19299TIP3    H279389   2.441   6.456  14.600  0.0965 -0.4778  0.0153
19300TIP3   OH279390   4.466   3.315   4.410  0.2405 -0.0983  0.3358
19300TIP3    H179391   4.549   3.357   4.387  0.1206 -0.6694 -1.2240
19300TIP3    H279392   4.475   3.225   4.379  0.0224 -0.9148  2.5365
19301TIP3   OH279393   4.461   5.281   6.153  0.2352  0.0733 -0.4525
19301TIP3    H179394   4.494   5.197   6.121  0.4951  0.5342 -1.3993
19301TIP3    H279395   4.367   5.280   6.133  0.2855  0.1127 -0.6855
19302TIP3   OH279396   4.280   1.777   2.609  0.1794  0.2536  0.2162
19302TIP3    H179397   4.276   1.697   2.557  2.1435 -0.2302  0.7700
19302TIP3    H279398   4.374   1.796   2.618 -0.2155  1.9506  1.1051
19303TIP3   OH279399   2.024   0.268  12.215  0.4738  0.0911  0.3877
19303TIP3    H179400   2.056   0.246  12.302 -0.0284 -0.2600  0.4844
19303TIP3    H279401   2.038   0.189  12.163  0.6903  0.2697  0.1677
19304TIP3   OH279402   1.555   0.550   1.036  0.5862  0.0420 -0.8129
19304TIP3    H179403   1.503   0.501   0.972 -1.0804  0.0194  0.5236
19304TIP3    H279404   1.519   0.639   1.033  0.1711 -0.0739  0.4196
19305TIP3   OH279405   0.645   3.491   0.610 -0.1285  0.0031  0.3057
19305TIP3    H179406   0.573   3.431   0.629 -0.8688  0.5910 -0.5996
19305TIP3    H279407   0.603   3.575   0.592  0.8091  0.4646  0.1998
19306TIP3   OH279408   2.240   6.052  10.801  0.0921 -0.1477 -0.1353
19306TIP3    H179409   2.212   6.012  10.718 -3.2197 -0.0831  0.8541
19306TIP3    H279410   2.204   5.994  10.868  2.0742  0.2333  1.2683
19307TIP3   OH279411   4.681   0.084  14.299 -0.4732 -0.0507 -0.7176
19307TIP3    H179412   4.630   0.131  14.232 -0.2636  0.5454 -0.4594
19307TIP3    H279413   4.731   0.019  14.249 -0.9297 -0.1473 -1.0538
19308TIP3   OH279414   3.870   0.964  10.933  0.0249  0.1981 -0.0800
19308TIP3    H179415   3.948   1.018  10.939 -0.0318  0.7842 -3.6225
19308TIP3    H279416   3.902   0.875  10.922  0.2005  0.3590 -0.8844
19309TIP3   OH279417   6.751   5.247   1.948  0.1918  0.3799 -0.1562
19309TIP3    H179418   6.807   5.175   1.920 -0.9126 -0.7316  0.4319
19309TIP3    H279419   6.675   5.205   1.987 -0.9601  1.8529 -0.7244
19310TIP3   OH279420   5.167   5.693   3.358 -0.2013  0.3078  0.5323
19310TIP3    H179421   5.110   5.703   3.282  0.4697  0.2374  0.0249
19310TIP3    H279422   5.178   5.599   3.368  1.3637  0.3744 -0.5071
19311TIP3   OH279423   2.238   4.244   2.972 -0.0278 -0.4335 -0.2670
19311TIP3    H179424   2.209   4.202   3.053 -0.0675 -0.6361 -0.3851
19311TIP3    H279425   2.315   4.294   2.997 -0.3900 -0.0085  0.0198
19312TIP3   OH279426   6.060   6.714  11.590  0.0358  0.2803  0.0402
19312TIP3    H179427   5.998   6.670  11.648 -1.4452  2.0158 -0.1926
19312TIP3    H279428   6.012   6.728  11.509  1.2471  0.2518 -0.7048
19313TIP3   OH279429   5.286   5.750  14.386  0.2270  0.5508 -0.1059
19313TIP3    H179430   5.352   5.690  14.418 -0.1977 -0.5185 -1.1701
19313TIP3    H279431   5.333   5.832  14.371  0.9954  0.2328  0.5409
19314TIP3   OH279432   1.724   6.603  15.531  0.7366  0.1715 -0.8240
19314TIP3    H179433   1.795   6.611  15.467 -0.6894  1.9739 -2.2192
19314TIP3    H279434   1.753   6.656  15.605  0.8695  0.8897 -1.3829
19315TIP3   OH279435   5.855   4.059  11.451  0.1208 -0.6024 -0.4992
19315TIP3    H179436   5.912   3.999  11.500 -1.1016 -2.0856 -0.8598
19315TIP3    H279437   5.909   4.087  11.377  0.7905 -1.0626 -0.1963
19316TIP3   OH279438   0.364   5.700  11.790  0.3681  0.2481  0.0109
19316TIP3    H179439   0.337   5.778  11.742  0.9254  0.6281  0.3115
19316TIP3    H279440   0.456   5.688  11.766  0.1299 -0.6348 -0.4667
19317TIP3   OH279441   0.504   6.177  15.162  0.1195 -0.5609 -0.4483
19317TIP3    H179442   0.551   6.109  15.114 -1.0981 -0.1598 -2.2573
19317TIP3    H279443   0.456   6.225  15.095 -1.0350  0.4965  1.0980
19318TIP3   OH279444   0.899   1.650  12.248  0.9392  0.4222 -0.9039
19318TIP3    H179445   0.929   1.585  12.184 -0.3794 -0.1214 -0.9818
19318TIP3    H279446   0.835   1.703  12.200 -1.6179 -1.2862  0.5027
19319TIP3   OH279447   6.789   3.036   4.021 -0.0613 -0.1114 -0.0327
19319TIP3    H179448   6.770   3.123   3.986  0.3448 -0.2689 -0.6409
19319TIP3    H279449   6.704   2.992   4.022 -0.6079  0.9333  2.0757
19320TIP3   OH279450   5.921   6.455   0.619 -0.4869 -0.4219  0.2982
19320TIP3    H179451   5.970   6.408   0.687  1.6763  1.0959 -0.1724
19320TIP3    H279452   5.859   6.390   0.586  1.2981 -2.4739  0.8198
19321TIP3   OH279453   1.295   1.781   3.584 -0.2903 -0.3606 -0.2715
19321TIP3    H179454   1.227   1.726   3.624 -0.0191 -0.4191  0.1064
19321TIP3    H279455   1.276   1.869   3.616  0.2168 -0.4854  0.3658
19322TIP3   OH279456   5.935   4.925   5.222  0.2462 -0.3082  0.0093
19322TIP3    H179457   5.984   4.935   5.304 -0.5886  0.0813  0.4573
19322TIP3    H279458   5.868   4.993   5.225  0.2399 -0.2658 -1.0223
19323TIP3   OH279459   6.550   5.881   0.763 -0.0569 -0.0156  0.1566
19323TIP3    H179460   6.520   5.862   0.674 -1.2407 -1.1804  0.7910
19323TIP3    H279461   6.500   5.958   0.789 -1.6853 -1.2589  0.7821
19324TIP3   OH279462   3.388   1.571   0.754  0.4292  0.2093  0.4374
19324TIP3    H179463   3.438   1.491   0.765 -0.3071 -0.4342 -0.7302
19324TIP3    H279464   3.437   1.622   0.689 -0.5400 -0.5437 -0.9156
19325TIP3   OH279465   2.811   1.780   3.001 -0.3098  0.5627 -0.4497
19325TIP3    H179466   2.825   1.753   2.910  1.2798  0.3359 -0.1410
19325TIP3    H279467   2.725   1.744   3.023 -1.3120  1.7568 -2.2868
19326TIP3   OH279468   6.155   2.115   0.864  0.5106 -0.0539 -0.3257
19326TIP3    H179469   6.081   2.058   0.885 -0.0373  0.0470 -1.9133
19326TIP3    H279470   6.203   2.068   0.796  1.2141  0.4445 -0.1828
19327TIP3   OH279471   0.727   2.201  12.632  0.0943  0.2992  0.1037
19327TIP3    H179472   0.685   2.151  12.562 -0.4549  0.2802  0.4453
19327TIP3    H279473   0.675   2.281  12.639  1.5182  1.3569 -1.0777
19328TIP3   OH279474   3.026   6.751   5.800 -0.3871  0.0812  0.0985
19328TIP3    H179475   3.048   6.684   5.864  1.2753 -0.3069 -0.8376
19328TIP3    H279476   3.086   6.823   5.819 -0.7030  0.4401 -0.2461
19329TIP3   OH279477   5.164   6.127  11.993 -0.1787  0.0222  0.0692
19329TIP3    H179478   5.088   6.152  12.044  0.5469  1.9284  0.2626
19329TIP3    H279479   5.219   6.078  12.054 -0.8432 -0.6234  0.1616
19330TIP3   OH279480   4.750   5.485   1.167  0.2827  0.6094  0.3731
19330TIP3    H179481   4.711   5.435   1.239 -0.3855 -0.8697 -1.0150
19330TIP3    H279482   4.716   5.574   1.178 -0.3491  0.2385  1.4715
19331TIP3   OH279483   4.722   5.615   5.355 -0.0380  0.2441 -0.5357
19331TIP3    H179484   4.771   5.641   5.277 -1.2596  0.5534 -1.2243
19331TIP3    H279485   4.719   5.694   5.409  0.6360  0.0875 -0.2673
19332TIP3   OH279486   5.863   4.282  14.679 -0.8318  0.2354  0.6553
19332TIP3    H179487   5.919   4.216  14.638 -0.7171 -0.4843  1.9161
19332TIP3    H279488   5.774   4.258  14.653 -0.7732 -0.2975  0.9445
19333TIP3   OH279489   2.881   6.794   2.887 -0.2242  0.1363  0.6429
19333TIP3    H179490   2.799   6.784   2.935 -1.4511  0.5359 -1.3300
19333TIP3    H279491   2.867   6.746   2.805  1.5778  0.0597  0.3525
19334TIP3   OH279492   3.261   5.677   4.563  0.8809  0.1720  0.0397
19334TIP3    H179493   3.352   5.661   4.588  1.5937  2.1736 -1.1239
19334TIP3    H279494   3.245   5.768   4.587 -0.8788 -0.1857  0.3371
19335TIP3   OH279495   0.698   3.642  11.623  0.2823 -0.3078 -0.5438
19335TIP3    H179496   0.788   3.618  11.646 -0.1011 -1.8517 -0.6223
19335TIP3    H279497   0.665   3.686  11.701  1.0349  0.0876 -0.4388
19336TIP3   OH279498   6.234   5.654   2.599 -0.0053 -0.2239 -0.1488
19336TIP3    H179499   6.250   5.570   2.556 -0.7458  0.0547 -0.9970
19336TIP3    H279500   6.140   5.669   2.586 -0.2612 -0.1574  1.6278
19337TIP3   OH279501   3.618   5.818   3.265 -0.1320 -0.0286 -0.3551
19337TIP3    H179502   3.632   5.787   3.354 -1.1005 -1.0559 -0.5542
19337TIP3    H279503   3.529   5.790   3.243 -0.7939  2.2997 -0.7879
19338TIP3   OH279504   3.114   5.629  15.664 -1.0475  0.2588  0.0197
19338TIP3    H179505   3.029   5.586  15.653 -0.8139 -0.5050  1.1613
19338TIP3    H279506   3.095   5.707  15.716 -1.2929  0.9509 -1.0894
19339TIP3   OH279507   6.779   3.320   0.287  0.0850  0.4784  0.5924
19339TIP3    H179508   6.771   3.410   0.319  0.2306  0.7407 -0.1099
19339TIP3    H279509   6.689   3.291   0.274  0.0354  0.4898  0.9209
19340TIP3   OH279510   5.097   2.203  15.951 -0.3650 -0.1206 -0.8453
19340TIP3    H179511   5.190   2.206  15.975 -0.2140  1.5805 -1.5873
19340TIP3    H279512   5.055   2.267  16.008 -1.0337 -0.6161 -0.7678
19341TIP3   OH279513   3.197   0.236  14.895 -0.5158 -0.2846 -0.2532
19341TIP3    H179514   3.226   0.184  14.971 -0.6019 -0.4802 -0.3531
19341TIP3    H279515   3.198   0.326  14.926  1.8443 -0.1100 -0.7497
19342TIP3   OH279516   1.510   2.611  11.904  0.4562 -0.3313 -0.1079
19342TIP3    H179517   1.427   2.597  11.950  0.9593 -1.0391  0.5976
19342TIP3    H279518   1.490   2.592  11.812 -0.9566  2.6642 -0.4800
19343TIP3   OH279519   4.970   3.971   5.853  0.1561 -0.6365 -0.4703
19343TIP3    H179520   4.912   3.907   5.812  0.5138 -0.3308 -1.4655
19343TIP3    H279521   4.912   4.030   5.901 -0.1890 -1.5732  0.2706
19344TIP3   OH279522   4.963   3.311  12.977  0.0804  0.0767  0.1033
19344TIP3    H179523   5.024   3.309  12.904  0.3771  1.1258  0.3179
19344TIP3    H279524   4.891   3.366  12.947  0.2713  0.6305  0.6444
19345TIP3   OH279525   0.886   4.570   6.373  0.0289  0.5971  0.0739
19345TIP3    H179526   0.893   4.598   6.465 -0.9290 -0.8639  0.6145
19345TIP3    H279527   0.815   4.623   6.337 -0.0205  0.7231  0.3549
19346TIP3   OH279528   0.924   5.299  14.694 -0.6008 -0.2728  0.5281
19346TIP3    H179529   0.917   5.348  14.776 -0.5015 -0.6109  0.7405
19346TIP3    H279530   1.018   5.290  14.680 -0.5985  1.2262 -0.4890
19347TIP3   OH279531   6.204   0.572  13.621  0.3707  0.3506  0.0126
19347TIP3    H179532   6.222   0.592  13.713  0.1376  1.2349 -0.1258
19347TIP3    H279533   6.249   0.489  13.605  0.2386  0.0866  0.9762
19348TIP3   OH279534   6.176   4.764  17.178  0.4983 -0.1257 -0.0348
19348TIP3    H179535   6.259   4.723  17.153  1.3837  0.5610  1.6968
19348TIP3    H279536   6.164   4.834  17.115  0.9196 -0.6216 -0.6695
19349TIP3   OH279537   1.656   2.386   1.261  0.1334  0.9189 -0.0877
19349TIP3    H179538   1.631   2.307   1.309 -0.6508  1.8281  1.0293
19349TIP3    H279539   1.635   2.458   1.321 -0.0055  2.0280 -1.4433
19350TIP3   OH279540   4.093   4.098  14.897 -0.3829 -0.6986  0.2157
19350TIP3    H179541   4.070   4.191  14.893 -0.8212 -0.7301  1.8001
19350TIP3    H279542   4.151   4.090  14.973  1.5848 -1.3317 -1.2954
19351TIP3   OH279543   2.694   4.491  10.972 -0.5798  0.5099 -0.8794
19351TIP3    H179544   2.678   4.565  11.031 -0.0413 -0.2674  0.2676
19351TIP3    H279545   2.772   4.516  10.922  1.6041 -0.6108  1.8159
19352TIP3   OH279546   4.356   0.003  12.272  0.2184 -0.3057  0.5976
19352TIP3    H179547   4.442   0.001  12.231  0.9687  1.0663  2.0238
19352TIP3    H279548   4.374   0.019  12.365 -1.6634  2.3496  0.5559
19353TIP3   OH279549   0.547   2.069   6.002 -0.4473  0.3119  0.0600
19353TIP3    H179550   0.482   2.018   6.050 -0.4324 -2.0278 -2.3372
19353TIP3    H279551   0.496   2.117   5.936 -0.1491  1.4906  0.6573
19354TIP3   OH279552   2.874   1.406   6.077  0.3443 -0.1012 -0.1842
19354TIP3    H179553   2.793   1.456   6.090  1.4110  0.8774  3.3181
19354TIP3    H279554   2.868   1.333   6.138  0.7113 -1.9077 -2.2369
19355TIP3   OH279555   3.133   1.015  11.404  0.4463 -0.6486  0.3286
19355TIP3    H179556   3.089   0.934  11.377  0.1907 -0.1585 -0.7286
19355TIP3    H279557   3.077   1.085  11.370  0.5922 -0.0220  1.3538
19356TIP3   OH279558   2.271   3.404  13.303 -0.3407  0.2018 -0.2828
19356TIP3    H179559   2.280   3.369  13.391 -0.9777  1.1286  0.1511
19356TIP3    H279560   2.302   3.333  13.246 -0.3740 -0.5673  0.6511
19357TIP3   OH279561   4.730   4.528   2.547  0.2980  0.1938 -0.0651
19357TIP3    H179562   4.709   4.585   2.621 -1.8814  0.1534 -0.6039
19357TIP3    H279563   4.711   4.581   2.469  0.4273 -0.4921 -0.5750
19358TIP3   OH279564   4.822   4.929  16.129  0.0068 -0.2421 -0.3136
19358TIP3    H179565   4.757   4.860  16.140  0.3471 -0.2452  1.7680
19358TIP3    H279566   4.779   4.992  16.070 -3.0022  1.0859  3.0992
19359TIP3   OH279567   4.071   0.975   0.974 -0.5387  0.3584  0.2975
19359TIP3    H179568   4.129   0.991   1.049  0.0785  1.7054 -0.4447
19359TIP3    H279569   4.047   1.063   0.943 -0.3640 -0.1761 -1.4176
19360TIP3   OH279570   5.953   6.686   0.144  0.2460 -0.4469  0.3183
19360TIP3    H179571   5.875   6.659   0.096  1.2855 -0.4278 -1.4283
19360TIP3    H279572   5.942   6.781   0.155  0.3257 -0.3304 -0.5238
19361TIP3   OH279573   3.621   3.888  13.140 -0.1781 -0.0191  0.2188
19361TIP3    H179574   3.646   3.914  13.051 -0.1514  1.2921  0.5958
19361TIP3    H279575   3.526   3.897  13.141 -0.3548 -1.6726 -0.1744
19362TIP3   OH279576   3.317   6.390   1.769  0.0395  0.4078 -0.1166
19362TIP3    H179577   3.324   6.409   1.675 -0.4561  1.0335 -0.0320
19362TIP3    H279578   3.379   6.451   1.810 -0.5156  0.8572  0.0482
19363TIP3   OH279579   6.454   5.721   2.232  0.5060 -0.3814 -0.1280
19363TIP3    H179580   6.454   5.815   2.215  0.7034 -0.4185 -0.3330
19363TIP3    H279581   6.431   5.713   2.324  2.1598 -0.0661  0.3180
19364TIP3   OH279582   1.660   2.938  15.558  0.3476  0.6300 -0.4817
19364TIP3    H179583   1.619   2.880  15.623  0.8023 -2.0434 -2.5037
19364TIP3    H279584   1.588   2.992  15.527 -0.0872  1.2248  1.4832
19365TIP3   OH279585   0.708   2.283  11.114 -0.6601 -0.6860  0.1303
19365TIP3    H179586   0.713   2.367  11.160 -0.9310 -0.7006  0.1852
19365TIP3    H279587   0.763   2.224  11.165  0.8287 -0.1379 -0.7820
19366TIP3   OH279588   4.474   0.764  16.328 -0.2320  0.3671 -0.4086
19366TIP3    H179589   4.555   0.732  16.368 -0.4935  0.8393  0.5217
19366TIP3    H279590   4.490   0.857  16.314  0.0605  0.0982 -1.9391
19367TIP3   OH279591   0.054   1.695   4.949 -0.7417  0.7411 -0.0735
19367TIP3    H179592   0.077   1.782   4.917 -0.1486  0.4408 -0.4589
19367TIP3    H279593   0.138   1.654   4.969 -1.0838  0.8174  1.5887
19368TIP3   OH279594   2.945   0.815  15.702  0.3821  0.1958 -0.1842
19368TIP3    H179595   2.952   0.883  15.768  0.4686  2.1031 -2.1046
19368TIP3    H279596   2.852   0.810  15.681  0.4623  0.1996 -0.5440
19369TIP3   OH279597   1.628   1.003  16.910  0.1068 -0.0258  0.4729
19369TIP3    H179598   1.570   1.059  16.962 -1.0197  0.2989 -1.0848
19369TIP3    H279599   1.598   1.017  16.820 -0.0948 -3.0278  0.0511
19370TIP3   OH279600   1.855   6.264  11.548  0.5193  0.0466  0.0036
19370TIP3    H179601   1.759   6.267  11.546  0.5612  1.7161 -0.2285
19370TIP3    H279602   1.876   6.192  11.607 -0.8818 -1.6499 -1.4982
19371TIP3   OH279603   3.900   4.285   2.823  0.1034 -0.3540  0.2046
19371TIP3    H179604   3.937   4.226   2.757 -1.8093 -0.6521 -0.6703
19371TIP3    H279605   3.954   4.363   2.819  0.6002 -0.7493 -1.0489
19372TIP3   OH279606   5.819   6.150  16.460  0.0980 -0.2401 -0.4457
19372TIP3    H179607   5.809   6.224  16.520 -0.8110 -0.7385  0.0337
19372TIP3    H279608   5.913   6.131  16.461  0.0593 -0.4404  1.0829
19373TIP3   OH279609   3.035   5.898  12.990 -0.5896 -0.1969  0.1496
19373TIP3    H179610   2.961   5.838  12.989 -1.5471  0.9118  1.6606
19373TIP3    H279611   3.006   5.973  12.937 -1.1099  0.8504  1.8764
19374TIP3   OH279612   3.068   0.601  15.553 -0.0595 -0.2291  0.4431
19374TIP3    H179613   3.127   0.540  15.598 -2.2916 -2.2414  0.7343
19374TIP3    H279614   3.004   0.625  15.620 -0.4787  0.7562 -0.3032
19375TIP3   OH279615   3.783   4.215   1.573  0.4023 -0.2131 -0.1831
19375TIP3    H179616   3.779   4.274   1.498  1.3092 -0.2800 -0.2994
19375TIP3    H279617   3.875   4.218   1.600  0.5856 -1.9734 -0.5190
19376TIP3   OH279618   5.748   2.084   4.142 -0.0749  0.0337  0.1379
19376TIP3    H179619   5.728   2.040   4.059 -0.2301  2.0932 -0.9405
19376TIP3    H279620   5.830   2.131   4.126  1.1140 -1.3574  1.8694
19377TIP3   OH279621   1.607   4.553  10.727  0.8393 -0.3463  0.0263
19377TIP3    H179622   1.591   4.593  10.642  0.7518  1.8937  1.0721
19377TIP3    H279623   1.699   4.569  10.745  0.9961 -1.3098  0.1143
19378TIP3   OH279624   4.668   5.119  17.234 -0.4829 -0.5191 -0.3086
19378TIP3    H179625   4.684   5.213  17.227  0.0671 -0.7259 -2.0264
19378TIP3    H279626   4.754   5.080  17.250 -0.6031 -0.7904 -0.3116
19379TIP3   OH279627   0.513   5.781  11.513  0.0915 -0.3589 -0.3492
19379TIP3    H179628   0.440   5.755  11.457  0.7331 -1.5152 -0.6696
19379TIP3    H279629   0.486   5.864  11.552 -1.3884 -0.7822 -0.4629
19380TIP3   OH279630   1.844   0.647  16.573 -0.2094  0.0619  0.0302
19380TIP3    H179631   1.787   0.717  16.541 -0.3257 -0.3798 -0.7547
19380TIP3    H279632   1.925   0.691  16.599  0.5356  0.2534 -2.4985
19381TIP3   OH279633   6.565   6.070  15.690 -0.3826  0.5481  0.1755
19381TIP3    H179634   6.581   6.134  15.620  0.3031 -0.0873 -0.2591
19381TIP3    H279635   6.563   6.122  15.770  0.7294  1.0639 -0.1160
19382TIP3   OH279636   2.438   0.608   0.804 -0.7979 -0.1087 -0.1939
19382TIP3    H179637   2.528   0.593   0.832 -0.2461  0.7335 -1.5151
19382TIP3    H279638   2.414   0.692   0.844 -1.7705 -1.3619  1.9812
19383TIP3   OH279639   4.362   0.179   0.172  0.1068  0.3905 -0.1163
19383TIP3    H179640   4.312   0.101   0.146 -0.5382  0.0003  2.1603
19383TIP3    H279641   4.441   0.176   0.118 -0.0234 -1.7298 -0.2396
19384TIP3   OH279642   1.900   3.156  13.648 -0.2034 -0.4876 -0.4367
19384TIP3    H179643   1.815   3.120  13.675 -1.3839  3.1967  1.0859
19384TIP3    H279644   1.948   3.167  13.730  0.3914  0.6495 -0.9247
19385TIP3   OH279645   0.224   4.779  13.233  0.0183 -0.3041 -0.0439
19385TIP3    H179646   0.181   4.851  13.186 -0.7438  0.8833  2.3756
19385TIP3    H279647   0.288   4.745  13.171 -0.2926  1.8286 -1.6062
19386TIP3   OH279648   0.444   2.975  15.705 -0.2600  0.1374 -0.5966
19386TIP3    H179649   0.401   3.056  15.728  1.9854  1.3599 -0.5322
19386TIP3    H279650   0.473   2.938  15.788 -0.6535 -0.3810 -0.6842
19387TIP3   OH279651   2.618   2.333  17.125  0.2040 -0.6163 -0.1145
19387TIP3    H179652   2.704   2.310  17.160 -0.3577  0.0315  1.7536
19387TIP3    H279653   2.627   2.323  17.030  2.5256  0.0623  0.0067
19388TIP3   OH279654   0.190   6.325   0.601  0.3708  0.0807 -0.2978
19388TIP3    H179655   0.114   6.338   0.543 -0.3316  0.8820  0.7779
19388TIP3    H279656   0.260   6.295   0.542 -0.4133  0.5790 -1.5163
19389TIP3   OH279657   1.413   0.777   5.588  0.0258  0.4451  0.0361
19389TIP3    H179658   1.502   0.741   5.578  0.3125  0.9729  0.7021
19389TIP3    H279659   1.409   0.847   5.522  0.1144  0.4462  0.0315
19390TIP3   OH279660   0.830   4.910  13.889  0.3864  0.1291 -0.3825
19390TIP3    H179661   0.742   4.943  13.867  0.5293 -0.8283 -2.5447
19390TIP3    H279662   0.832   4.910  13.984 -1.7985  0.6279 -0.2979
19391TIP3   OH279663   4.887   1.036   3.225  0.0949 -0.7236 -0.2211
19391TIP3    H179664   4.931   1.002   3.302 -0.6243 -1.5004 -0.1488
19391TIP3    H279665   4.956   1.044   3.159  0.4517 -1.3837  0.0715
19392TIP3   OH279666   1.978   6.739   6.161 -0.0104 -0.4731 -0.1726
19392TIP3    H179667   1.913   6.704   6.222  0.1324  0.4972  0.5557
19392TIP3    H279668   1.929   6.800   6.106 -0.4153 -2.3343 -1.9360
19393TIP3   OH279669   4.905   2.349  12.023 -0.0251  0.6673  0.4612
19393TIP3    H179670   4.930   2.385  12.108  0.8078  0.5338  0.2738
19393TIP3    H279671   4.810   2.359  12.020 -0.0203  0.9847  1.2644
19394TIP3   OH279672   5.381   0.430   0.618  0.1276 -0.5084 -0.1533
19394TIP3    H179673   5.460   0.418   0.671  0.2100 -4.6092 -1.0599
19394TIP3    H279674   5.414   0.459   0.533  0.4542  0.4068  0.2836
19395TIP3   OH279675   1.155   3.089  17.150  0.7794 -0.2410  0.0978
19395TIP3    H179676   1.133   3.158  17.087  0.0435 -0.3069  0.2792
19395TIP3    H279677   1.161   3.010  17.096 -0.1427 -0.3497  0.1467
19396TIP3   OH279678   5.378   4.157   5.494 -0.5866  0.3440  0.7498
19396TIP3    H179679   5.367   4.229   5.432  0.5954  0.5520  0.7572
19396TIP3    H279680   5.301   4.162   5.550 -1.1005  0.8688  0.0066
19397TIP3   OH279681   4.884   3.702   5.332 -0.1107 -0.1987 -0.0355
19397TIP3    H179682   4.969   3.676   5.296  0.0772 -0.5252  0.6325
19397TIP3    H279683   4.821   3.668   5.269  0.1855 -1.3624  0.2730
19398TIP3   OH279684   1.245   1.817   1.320  0.7261  0.4007 -0.8147
19398TIP3    H179685   1.204   1.904   1.328  0.9656  0.3821  0.9153
19398TIP3    H279686   1.339   1.835   1.319  0.7962  0.1301  0.2325
19399TIP3   OH279687   4.140   3.531  16.483  0.0273  0.4345 -0.2509
19399TIP3    H179688   4.155   3.625  16.492  1.7770  0.0111  1.9543
19399TIP3    H279689   4.227   3.494  16.469 -0.3754 -1.0348  0.9505
19400TIP3   OH279690   2.311   1.804   6.853  0.6418  0.2503 -0.2116
19400TIP3    H179691   2.286   1.885   6.807  0.0647 -0.8910 -1.9605
19400TIP3    H279692   2.335   1.743   6.783 -0.1823 -1.5107  1.0106
19401TIP3   OH279693   0.085   4.180   1.952  0.5237  0.1261  0.5155
19401TIP3    H179694   0.026   4.124   2.003 -2.0939  3.3516  1.2120
19401TIP3    H279695   0.046   4.182   1.865  1.0952  0.2192  0.2577
19402TIP3   OH279696   6.783   0.879  11.523  0.9836 -0.1875 -0.1423
19402TIP3    H179697   6.851   0.835  11.471 -0.9847 -1.5948 -1.5739
19402TIP3    H279698   6.760   0.957  11.472 -0.6405 -1.3403 -1.2090
19403TIP3   OH279699   0.083   5.244  14.614  0.2295 -0.3169  0.3473
19403TIP3    H179700   0.004   5.288  14.584  0.7352 -0.2634 -0.9489
19403TIP3    H279701   0.102   5.282  14.700 -0.8232  0.0666  0.4125
19404TIP3   OH279702   5.705   0.554   1.409  0.0098 -0.4936 -0.1498
19404TIP3    H179703   5.693   0.459   1.414 -0.3884 -0.4359  0.0267
19404TIP3    H279704   5.793   0.566   1.373  0.9571 -0.9286  1.9527
19405TIP3   OH279705   1.419   1.058  10.642  0.4340 -0.0527  0.9295
19405TIP3    H179706   1.402   1.151  10.654  0.7831  0.0253  0.8243
19405TIP3    H279707   1.437   1.049  10.549  1.2945 -0.0795  1.0941
19406TIP3   OH279708   3.302   0.953  16.162  0.7649 -0.8844  0.4016
19406TIP3    H179709   3.319   0.874  16.212  0.4373 -1.3882 -0.2816
19406TIP3    H279710   3.300   1.023  16.228  3.7928 -1.0317  0.7443
19407TIP3   OH279711   3.239   0.005   5.259 -0.4057 -0.7194  0.1787
19407TIP3    H179712   3.281   0.001   5.173 -1.6066 -0.9471 -0.4063
19407TIP3    H279713   3.153   0.042   5.242 -0.7230 -0.9468  1.2615
19408TIP3   OH279714   2.633   4.005   3.031 -0.0725 -0.0614  0.2581
19408TIP3    H179715   2.545   4.027   3.063 -1.1720 -0.0368 -2.5508
19408TIP3    H279716   2.644   3.913   3.055 -1.6719 -0.6038 -0.9335
19409TIP3   OH279717   3.265   4.185  15.867  0.3078 -0.5511  0.3862
19409TIP3    H179718   3.316   4.118  15.822  1.7399  2.2868 -2.4403
19409TIP3    H279719   3.328   4.255  15.886 -1.7737  1.4689  0.1174
19410TIP3   OH279720   6.401   4.103  15.339  0.5873 -0.1779 -0.4988
19410TIP3    H179721   6.345   4.026  15.327  1.1542 -0.4740 -1.3039
19410TIP3    H279722   6.426   4.101  15.431  0.4848 -0.8851 -0.4828
19411TIP3   OH279723   1.513   0.478  12.253 -0.2160 -0.6001 -0.1442
19411TIP3    H179724   1.592   0.467  12.200  0.1979  2.5496 -0.2805
19411TIP3    H279725   1.518   0.409  12.319  1.4045 -1.9322 -1.6084
19412TIP3   OH279726   2.407   0.927   0.670 -0.4851  0.3824 -0.5007
19412TIP3    H179727   2.403   0.996   0.604  0.3617 -1.8458 -2.9555
19412TIP3    H279728   2.480   0.953   0.727 -0.9276  2.0885 -0.6870
19413TIP3   OH279729   0.677   6.086  16.763  0.3212 -0.0579  0.1489
19413TIP3    H179730   0.591   6.045  16.754 -0.7102  2.0494 -0.0242
19413TIP3    H279731   0.677   6.123  16.851  1.4175 -0.8355  0.4788
19414TIP3   OH279732   3.804   4.828  16.631 -0.1967  0.1038  0.4322
19414TIP3    H179733   3.773   4.751  16.678  0.3070  0.5383  1.4845
19414TIP3    H279734   3.899   4.826  16.643 -0.2183  1.1013  0.7754
19415TIP3   OH279735   0.715   4.542  13.054 -0.0074  0.0224 -0.0330
19415TIP3    H179736   0.639   4.497  13.017 -0.8708  1.4278 -0.0080
19415TIP3    H279737   0.787   4.482  13.040 -0.6721 -0.3233 -2.2510
19416TIP3   OH279738   4.690   0.274  10.609  0.3299  0.0840 -0.0275
19416TIP3    H179739   4.650   0.208  10.553 -1.3704  0.4509  0.7426
19416TIP3    H279740   4.684   0.355  10.560  1.4014 -0.0997 -0.4904
19417TIP3   OH279741   6.541   5.781  13.616  0.0900  0.0461 -0.6975
19417TIP3    H179742   6.559   5.695  13.655 -0.6262  0.0312 -0.3871
19417TIP3    H279743   6.446   5.784  13.610  0.0216  1.4324  0.7041
19418TIP3   OH279744   5.231   4.078  16.611 -0.1094 -0.2841 -0.4338
19418TIP3    H179745   5.276   4.160  16.588  0.8413 -0.2640  1.3661
19418TIP3    H279746   5.159   4.106  16.668 -0.6405 -0.5900 -0.9495
19419TIP3   OH279747   5.172   1.631  14.163 -0.4938 -0.1040  0.8732
19419TIP3    H179748   5.086   1.673  14.163 -1.2262 -1.4494 -1.7769
19419TIP3    H279749   5.153   1.538  14.178  0.4044 -0.5239 -0.4705
19420TIP3   OH279750   1.257   4.477   5.920  0.2480 -0.1645  0.0406
19420TIP3    H179751   1.317   4.460   5.992 -0.1550 -0.0942  0.3958
19420TIP3    H279752   1.224   4.391   5.895  0.2611 -0.1715  0.0467
19421TIP3   OH279753   6.251   4.844  10.333 -0.4065 -0.2129  0.4814
19421TIP3    H179754   6.191   4.775  10.360 -1.9359  0.9170  0.0902
19421TIP3    H279755   6.195   4.920  10.319  1.1138  0.8507 -0.0239
19422TIP3   OH279756   4.615   3.813  12.443  0.7628 -0.0133 -0.2547
19422TIP3    H179757   4.559   3.834  12.369  0.2739 -1.2562 -0.2471
19422TIP3    H279758   4.703   3.841  12.416  0.6242 -0.6392 -1.3856
19423TIP3   OH279759   4.997   5.982  17.149 -0.3012 -0.6205  0.2575
19423TIP3    H179760   4.963   5.979  17.238  0.7672 -1.5641  0.6417
19423TIP3    H279761   4.993   5.892  17.118  1.3754 -0.6641  0.1342
19424TIP3   OH279762   4.876   2.297  17.246  0.7107 -0.0033 -0.2583
19424TIP3    H179763   4.930   2.289  17.324  0.2374 -0.5532  0.0210
19424TIP3    H279764   4.874   2.209  17.209  0.2317  0.0686 -0.4105
19425TIP3   OH279765   1.304   1.091  11.880 -0.3498  0.6109 -0.2931
19425TIP3    H179766   1.238   1.067  11.946  0.3024 -1.2675 -0.2932
19425TIP3    H279767   1.335   1.177  11.907  0.2281 -0.3085  2.1401
19426TIP3   OH279768   3.016   3.946   3.716  0.3794 -0.0168  0.0774
19426TIP3    H179769   2.946   3.900   3.669  0.5550 -0.0116 -0.1901
19426TIP3    H279770   3.090   3.886   3.713  1.0260  0.8274 -1.4293
19427TIP3   OH279771   1.205   2.909  16.926  0.3558 -0.4164  0.0565
19427TIP3    H179772   1.276   2.933  16.867  1.5602 -0.8684  1.3093
19427TIP3    H279773   1.150   2.851  16.874  0.4831  0.5436 -1.1649
19428TIP3   OH279774   4.532   3.104   1.115 -0.0413  0.4916 -0.2165
19428TIP3    H179775   4.447   3.064   1.131 -0.2351  0.6624 -0.8055
19428TIP3    H279776   4.595   3.035   1.134 -0.3936 -0.2878 -1.8340
19429TIP3   OH279777   1.162   1.493  15.989 -0.0106 -0.4575 -0.0100
19429TIP3    H179778   1.245   1.540  15.983  0.1078 -0.7998 -1.0497
19429TIP3    H279779   1.187   1.401  15.992 -0.3345 -0.5383  0.2302
19430TIP3   OH279780   6.517   1.124   2.378  0.1934 -0.4307  0.1993
19430TIP3    H179781   6.573   1.166   2.444 -0.6942  1.5324 -0.2456
19430TIP3    H279782   6.545   1.162   2.295 -0.4494 -0.9082 -0.2403
19431TIP3   OH279783   2.407   2.742   5.845  0.2321 -0.8400  0.0935
19431TIP3    H179784   2.366   2.774   5.764 -0.8944 -0.9443  0.6156
19431TIP3    H279785   2.408   2.819   5.903  1.6491 -0.5877 -0.2440
19432TIP3   OH279786   4.232   2.347   1.373 -0.7839  0.0666 -0.4267
19432TIP3    H179787   4.285   2.290   1.317  0.0210  0.3492  0.0349
19432TIP3    H279788   4.144   2.311   1.367 -0.1118 -1.8264  0.6471
19433TIP3   OH279789   2.024   6.697  12.291 -0.1841  0.2387 -0.0187
19433TIP3    H179790   2.060   6.771  12.242  0.3016 -1.1590 -1.8238
19433TIP3    H279791   2.048   6.620  12.240 -1.8024 -1.0850  1.1412
19434TIP3   OH279792   0.561   5.480  14.598 -0.0708 -0.1090  0.1613
19434TIP3    H179793   0.517   5.418  14.657 -3.0696  0.8592 -0.9635
19434TIP3    H279794   0.585   5.554  14.655  1.2722 -1.1741  1.0185
19435TIP3   OH279795   6.496   5.167   3.650  0.3884  0.4983 -0.0027
19435TIP3    H179796   6.454   5.253   3.646 -0.2333  0.1846 -0.2868
19435TIP3    H279797   6.478   5.127   3.565 -1.1481 -0.7554  0.8845
19436TIP3   OH279798   3.796   2.629  16.095  0.2594  0.2222  0.0316
19436TIP3    H179799   3.742   2.698  16.133 -0.9000 -0.0049 -1.1672
19436TIP3    H279800   3.816   2.659  16.007  1.3296 -0.1238  0.1491
19437TIP3   OH279801   4.088   0.986  12.590  0.6227 -0.0534 -0.1110
19437TIP3    H179802   4.042   0.904  12.573 -1.1047  0.5451  1.4580
19437TIP3    H279803   4.161   0.987  12.528 -0.8990 -1.5247 -1.9749
19438TIP3   OH279804   5.386   0.969  13.290  0.8832 -0.3181  0.8963
19438TIP3    H179805   5.447   0.939  13.358  1.2302 -0.4732  0.5182
19438TIP3    H279806   5.300   0.954  13.328  1.0205 -2.8344  0.3067
19439TIP3   OH279807   3.442   5.564  13.609 -0.0973 -0.0371 -0.3972
19439TIP3    H179808   3.413   5.543  13.698  0.0726  0.4710 -0.2172
19439TIP3    H279809   3.509   5.632  13.621  0.4746 -0.5043 -0.8663
19440TIP3   OH279810   4.254   1.142  13.603 -0.2981  0.0169  0.3078
19440TIP3    H179811   4.187   1.185  13.656 -1.9949 -1.8613 -0.2623
19440TIP3    H279812   4.208   1.114  13.523  1.6036  0.4114 -0.9718
19441TIP3   OH279813   0.021   5.104  13.608 -0.4692  0.1519  0.1443
19441TIP3    H179814  -0.074   5.096  13.602 -0.3749  0.4596 -2.6201
19441TIP3    H279815   0.038   5.195  13.584  0.6018 -0.2161 -0.5067
19442TIP3   OH279816   2.403   4.799   1.324  0.1289  0.3526  0.4357
19442TIP3    H179817   2.369   4.715   1.356  1.3847 -0.5384 -0.5215
19442TIP3    H279818   2.336   4.863   1.349 -1.3216 -1.0796  0.3046
19443TIP3   OH279819   4.521   0.974  17.242 -0.2462 -0.6201 -0.3087
19443TIP3    H179820   4.617   0.969  17.235 -0.1835 -1.4520  1.1153
19443TIP3    H279821   4.503   1.068  17.239  0.6809 -0.4120  0.3220
19444TIP3   OH279822   0.949   1.659  15.546  0.3418  0.2407  0.2662
19444TIP3    H179823   0.858   1.657  15.516  0.5927 -1.7690 -0.4526
19444TIP3    H279824   0.943   1.658  15.641 -0.3973 -0.2203  0.2181
19445TIP3   OH279825   6.801   0.908  12.003 -0.3370 -0.4461 -0.3440
19445TIP3    H179826   6.724   0.904  12.060  0.0960  1.0309  0.3666
19445TIP3    H279827   6.852   0.831  12.027 -1.4977 -1.3552 -0.7080
19446TIP3   OH279828   2.751   0.622   3.437 -0.1033  0.4683  0.1854
19446TIP3    H179829   2.843   0.638   3.458 -0.2037  0.1445  0.8773
19446TIP3    H279830   2.715   0.708   3.419  0.7734  0.4377 -1.9204
19447TIP3   OH279831   2.667   0.575   2.269  0.4070 -0.3099  0.2458
19447TIP3    H179832   2.634   0.664   2.279 -1.4563 -0.9645  0.2446
19447TIP3    H279833   2.741   0.569   2.329 -0.0295  0.9571  0.9199
19448TIP3   OH279834   3.272   3.693   3.193 -0.7234 -0.6133 -0.3472
19448TIP3    H179835   3.320   3.618   3.157 -1.3826 -1.1605 -0.1160
19448TIP3    H279836   3.184   3.658   3.209 -0.7870 -0.0158  0.5919
19449TIP3   OH279837   0.531   4.863  11.477 -0.6402 -0.1565  0.6338
19449TIP3    H179838   0.566   4.851  11.388 -0.5120 -0.7712  0.7668
19449TIP3    H279839   0.572   4.794  11.528 -1.0996 -0.1088  1.0688
19450TIP3   OH279840   1.015   2.926  15.925  0.1388  0.0818 -0.0102
19450TIP3    H179841   1.040   2.853  15.982  0.1123 -0.9045 -1.2404
19450TIP3    H279842   0.923   2.911  15.906  0.2431  0.2065 -0.6099
19451TIP3   OH279843   2.458   0.114  14.496 -0.1947  0.0572  0.1390
19451TIP3    H179844   2.401   0.037  14.496  0.0902 -0.1515 -0.5109
19451TIP3    H279845   2.467   0.137  14.404  1.4196 -0.3879  0.1700
19452TIP3   OH279846   0.426   2.922   3.361  0.4053  0.0518  0.2062
19452TIP3    H179847   0.462   3.010   3.371 -0.0125  0.2327  0.1344
19452TIP3    H279848   0.331   2.935   3.358  0.1913 -0.6201  2.7140
19453TIP3   OH279849   0.402   5.228   2.765 -0.2332  0.3654  0.1030
19453TIP3    H179850   0.352   5.309   2.760  1.7430  1.5970  0.0926
19453TIP3    H279851   0.409   5.198   2.675  0.5359  1.1093 -0.0861
19454TIP3   OH279852   2.443   1.033  15.658 -0.3810 -0.4428  0.3903
19454TIP3    H179853   2.536   1.023  15.677 -0.4382 -1.9301 -0.0528
19454TIP3    H279854   2.441   1.086  15.578  0.1715 -2.3926 -0.9337
19455TIP3   OH279855   4.657   4.141  13.718 -0.2735 -0.2096  0.1793
19455TIP3    H179856   4.737   4.181  13.752 -0.1995  0.6174 -0.9279
19455TIP3    H279857   4.607   4.118  13.796  0.6706  0.0530  0.8689
19456TIP3   OH279858   5.754   1.702  15.482  0.2637 -0.1685  0.2857
19456TIP3    H179859   5.811   1.693  15.558  0.1688 -1.2134  0.2354
19456TIP3    H279860   5.814   1.713  15.408  0.3937 -0.7810  0.2971
19457TIP3   OH279861   2.329   4.530  11.685 -0.7783 -0.1687 -0.0185
19457TIP3    H179862   2.329   4.572  11.598 -2.0903 -0.3189 -0.1000
19457TIP3    H279863   2.374   4.593  11.741  0.1760 -0.1120 -0.8223
19458TIP3   OH279864   0.349   3.653   4.780  0.1798  0.8978 -0.4174
19458TIP3    H179865   0.289   3.723   4.753 -0.0806  0.1896 -1.7118
19458TIP3    H279866   0.308   3.616   4.858 -0.2650  1.4440 -0.3824
19459TIP3   OH279867   0.992   2.505   1.956 -0.3695 -0.0099 -0.2697
19459TIP3    H179868   0.940   2.572   2.001  0.1339  0.2221 -0.0324
19459TIP3    H279869   0.976   2.425   2.006  0.4233  0.3109  0.5088
19460TIP3   OH279870   5.299   6.724  11.977  0.2198  0.6273  0.3529
19460TIP3    H179871   5.376   6.668  11.975 -0.2696 -0.0945  1.3373
19460TIP3    H279872   5.271   6.724  12.068 -1.5668 -0.0038 -0.1594
19461TIP3   OH279873   3.803   2.055  11.420  0.1096  1.0465 -0.1623
19461TIP3    H179874   3.776   2.017  11.337 -0.0730  1.3051 -0.2188
19461TIP3    H279875   3.841   1.981  11.468 -2.6290  0.1918  0.7703
19462TIP3   OH279876   4.658   1.692   3.536 -0.1858  0.0220 -0.0291
19462TIP3    H179877   4.573   1.701   3.492 -0.2840 -0.4739  0.0490
19462TIP3    H279878   4.673   1.776   3.577  0.2238  0.7258 -1.5750
19463TIP3   OH279879   5.142   6.370  14.823 -0.4708 -0.5968  0.4451
19463TIP3    H179880   5.065   6.381  14.767 -0.7744 -1.2162  0.7388
19463TIP3    H279881   5.140   6.445  14.882  0.1259  0.3268 -0.6960
19464TIP3   OH279882   2.259   1.549  14.764  0.1412 -0.4661 -0.0974
19464TIP3    H179883   2.244   1.626  14.819  1.1857  0.2144 -0.7583
19464TIP3    H279884   2.240   1.475  14.822  0.9751  0.2501  1.1236
19465TIP3   OH279885   1.944   1.049  13.144  0.3828  0.0426 -0.0663
19465TIP3    H179886   2.018   1.109  13.150  0.1083  0.7904 -3.1223
19465TIP3    H279887   1.975   0.980  13.085 -1.3264  0.3517 -1.3501
19466TIP3   OH279888   1.679   6.458  15.855  0.1811 -0.1772  0.4263
19466TIP3    H179889   1.762   6.498  15.880  0.4107 -0.7635  0.6225
19466TIP3    H279890   1.704   6.370  15.825 -0.3167 -0.1935  0.0617
19467TIP3   OH279891   0.620   5.913  16.043  0.0477  0.5405 -0.1166
19467TIP3    H179892   0.710   5.905  16.074 -0.3125  1.2421  1.1563
19467TIP3    H279893   0.569   5.929  16.123 -1.1445  0.5681 -0.8793
19468TIP3   OH279894   5.644   2.992   2.352  0.0194  0.0894  0.2312
19468TIP3    H179895   5.710   3.034   2.408  0.3847 -0.7527  0.4442
19468TIP3    H279896   5.672   3.013   2.263  1.0317 -0.9063  0.2943
19469TIP3   OH279897   0.739   5.131   3.548  0.3283 -0.0267  0.3797
19469TIP3    H179898   0.685   5.209   3.561 -0.5955 -0.3927 -1.1162
19469TIP3    H279899   0.813   5.142   3.608  0.5457  2.3043 -0.2788
19470TIP3   OH279900   6.322   4.055   1.154  0.5031 -0.4210  0.9024
19470TIP3    H179901   6.412   4.044   1.124  0.0587 -1.5431 -0.0398
19470TIP3    H279902   6.304   3.978   1.208  0.4954  0.3984  2.1102
19471TIP3   OH279903   3.208   1.043  14.540 -0.2768 -0.1162 -0.8443
19471TIP3    H179904   3.164   1.106  14.597  1.0724  0.1962 -0.1284
19471TIP3    H279905   3.145   0.971  14.531 -1.4045  0.8509 -0.8160
19472TIP3   OH279906   6.527   5.016   4.415 -0.3042 -0.4674  0.3545
19472TIP3    H179907   6.581   4.944   4.448  1.7308  1.7610  2.1204
19472TIP3    H279908   6.463   5.033   4.484 -0.0634  0.1262  0.4378
19473TIP3   OH279909   5.127   0.404   2.110 -0.1643  0.2611  0.1351
19473TIP3    H179910   5.215   0.385   2.079  0.7168  3.1396  0.7359
19473TIP3    H279911   5.107   0.334   2.171  1.4434 -0.7834 -0.5166
19474TIP3   OH279912   0.307   1.014   1.956 -0.7573  0.4241 -0.2007
19474TIP3    H179913   0.223   0.992   1.996  0.2547 -1.6878  0.8409
19474TIP3    H279914   0.348   0.930   1.938  1.8244  1.4246  0.7631
19475TIP3   OH279915   5.879   4.414   2.420  1.1033 -0.2486  0.2918
19475TIP3    H179916   5.885   4.506   2.394 -0.5937  0.1330  1.1894
19475TIP3    H279917   5.833   4.415   2.504 -1.0249 -2.0928 -0.7950
19476TIP3   OH279918   2.973   3.088   1.337  0.1509  0.2677  0.0840
19476TIP3    H179919   2.895   3.130   1.373  0.2389  0.1657  0.3993
19476TIP3    H279920   2.940   3.021   1.277 -0.0225 -0.3652  0.8749
19477TIP3   OH279921   6.620   1.639  13.761 -0.5949 -0.5242 -0.4865
19477TIP3    H179922   6.589   1.602  13.844 -1.2298 -0.6662 -0.7814
19477TIP3    H279923   6.700   1.591  13.741 -0.4781 -0.5386  0.0103
19478TIP3   OH279924   1.079   6.672  15.443  0.2274  0.8080 -0.0061
19478TIP3    H179925   0.997   6.649  15.400  1.4024 -2.6359 -0.5030
19478TIP3    H279926   1.062   6.658  15.536  0.7089 -1.4609 -0.2457
19479TIP3   OH279927   1.721   1.423  15.972 -0.0984 -0.8141  0.2334
19479TIP3    H179928   1.688   1.351  15.918  0.7325 -1.5237  0.6648
19479TIP3    H279929   1.793   1.460  15.922 -2.9196  2.2362 -1.8032
19480TIP3   OH279930   3.183   3.974   5.776  0.4697  0.8344  0.7285
19480TIP3    H179931   3.135   3.898   5.744  3.4219 -1.1411  0.8507
19480TIP3    H279932   3.205   4.023   5.697  1.5372 -0.2781  0.3157
19481TIP3   OH279933   0.340   5.788  16.199  0.3761  0.3204 -0.1530
19481TIP3    H179934   0.323   5.816  16.109 -1.7788 -1.0175 -0.1907
19481TIP3    H279935   0.296   5.854  16.254 -0.1371 -0.0437 -0.1255
19482TIP3   OH279936   0.915   6.738   3.467  0.9442  0.1703  0.3366
19482TIP3    H179937   0.892   6.673   3.400  1.1515  0.1423  0.2893
19482TIP3    H279938   0.919   6.821   3.420 -0.0389  0.3334  0.5410
19483TIP3   OH279939   3.168   3.506   1.855  0.0412  0.2487  0.2752
19483TIP3    H179940   3.192   3.512   1.947 -1.4484 -1.5224  0.8196
19483TIP3    H279941   3.151   3.596   1.828  2.9160  1.0591  1.0336
19484TIP3   OH279942   6.308   5.243  15.755 -0.2816 -0.0761 -0.0568
19484TIP3    H179943   6.330   5.187  15.830  1.6668 -1.0135 -1.2771
19484TIP3    H279944   6.279   5.181  15.688 -0.2805  0.5956 -0.6730
19485TIP3   OH279945   1.507   3.537  16.049  0.1197  0.5029  0.2554
19485TIP3    H179946   1.511   3.464  15.987 -1.6636  2.2629 -2.0285
19485TIP3    H279947   1.414   3.552  16.063  0.4303  2.9292 -0.0386
19486TIP3   OH279948   3.494   1.924   0.643 -0.2394  0.1036  0.1776
19486TIP3    H179949   3.427   1.896   0.705  0.3976 -0.2831  0.6884
19486TIP3    H279950   3.445   1.951   0.565 -1.0333  0.5385  0.8257
19487TIP3   OH279951   3.167   4.890  13.289 -0.0501 -0.2092  0.4341
19487TIP3    H179952   3.147   4.823  13.355 -1.0301  0.3406  0.7011
19487TIP3    H279953   3.087   4.942  13.283 -0.4160 -1.0064 -2.1064
19488TIP3   OH279954   0.770   3.403  13.699 -0.2102  0.0088 -0.5585
19488TIP3    H179955   0.851   3.431  13.743 -0.6206  0.4957 -0.0952
19488TIP3    H279956   0.738   3.330  13.752 -1.8453  1.9704  1.2545
19489TIP3   OH279957   3.034   4.070   2.360 -0.1467 -0.4082  0.4407
19489TIP3    H179958   2.973   4.016   2.410 -0.5005  0.9733  1.5239
19489TIP3    H279959   2.979   4.135   2.316  0.6271  1.6101  2.3961
19490TIP3   OH279960   0.673   0.933   0.784 -0.2021  0.1091 -0.1653
19490TIP3    H179961   0.623   0.919   0.865  1.1843 -0.4689  0.6198
19490TIP3    H279962   0.663   0.851   0.736  0.3706 -0.1886  0.2138
19491TIP3   OH279963   6.373   1.995   5.106  0.4802  0.6772  0.1945
19491TIP3    H179964   6.454   1.952   5.134  0.5640  0.1883 -0.7822
19491TIP3    H279965   6.368   2.074   5.159  1.5805  0.6851  0.2953
19492TIP3   OH279966   1.105   5.658  15.838 -0.3168 -0.2432 -0.4017
19492TIP3    H179967   1.087   5.580  15.889  1.9599 -0.6150 -0.1576
19492TIP3    H279968   1.147   5.719  15.899  1.0567 -0.1287 -1.4346
19493TIP3   OH279969   4.674   4.500  13.647  0.6174 -0.0030  0.2683
19493TIP3    H179970   4.669   4.488  13.741 -1.6534 -1.5412 -0.0195
19493TIP3    H279971   4.630   4.584  13.631 -0.1397 -0.3600  0.4638
19494TIP3   OH279972   5.989   2.323   3.273  0.0314 -0.1854 -0.4203
19494TIP3    H179973   5.982   2.229   3.287  0.4838 -0.4227 -1.7468
19494TIP3    H279974   5.898   2.354   3.272 -0.0586 -0.2807  2.0522
19495TIP3   OH279975   4.009   0.518   5.428 -0.0987  0.0423 -0.1274
19495TIP3    H179976   4.098   0.523   5.394 -0.2358  0.4625 -0.4331
19495TIP3    H279977   4.012   0.566   5.511 -0.1619  0.5173 -0.3988
19496TIP3   OH279978   4.830   4.452   4.051  0.5534 -0.3659  0.2027
19496TIP3    H179979   4.850   4.502   3.972  0.3790  1.0929  1.0599
19496TIP3    H279980   4.916   4.428   4.086  0.6357 -0.7149 -0.2364
19497TIP3   OH279981   5.828   4.932   1.207 -0.7972  0.4233 -0.8810
19497TIP3    H179982   5.832   5.010   1.151  1.2874  0.0477 -1.3347
19497TIP3    H279983   5.918   4.923   1.240 -1.5189 -0.5833  0.8569
19498TIP3   OH279984   3.960   2.539  10.847  0.2206  0.2183  0.4118
19498TIP3    H179985   4.006   2.610  10.803  1.1168 -0.4884  0.2087
19498TIP3    H279986   3.888   2.583  10.893  2.2719  1.6301  2.4176
19499TIP3   OH279987   4.805   0.688   0.164  0.3074  0.0151 -0.0913
19499TIP3    H179988   4.767   0.691   0.252  0.3220  2.1882 -0.1497
19499TIP3    H279989   4.775   0.768   0.122  1.4861 -0.3154 -1.5855
19500TIP3   OH279990   2.748   3.241   4.961  0.2836 -0.2495 -0.1752
19500TIP3    H179991   2.735   3.336   4.958 -2.8061 -0.6446 -1.3700
19500TIP3    H279992   2.776   3.218   4.872  1.3258 -0.4422  0.1925
19501TIP3   OH279993   2.807   2.879  16.920 -0.0966 -0.2083 -0.2263
19501TIP3    H179994   2.845   2.792  16.904 -1.1210 -0.6337 -0.4225
19501TIP3    H279995   2.793   2.915  16.832 -0.8253 -0.3588 -0.1719
19502TIP3   OH279996   6.579   2.342  11.003  0.2005 -0.2608  0.4186
19502TIP3    H179997   6.502   2.334  11.060  0.7955 -1.2508  1.0859
19502TIP3    H279998   6.564   2.423  10.954  0.1236  1.1242  2.6609
19503TIP3   OH279999   1.074   3.207  14.651 -0.2132 -0.4938  0.0466
19503TIP3    H180000   0.979   3.218  14.652 -0.1554  0.0122  0.1144
19503TIP3    H280001   1.092   3.163  14.568 -0.3732  0.6389 -0.5902
19504TIP3   OH280002   0.833   0.970   6.307  0.9579 -0.4565  0.3747
19504TIP3    H180003   0.850   1.064   6.304  1.2973 -0.4964  1.0845
19504TIP3    H280004   0.919   0.930   6.321  0.6059 -0.7809  1.6772
19505TIP3   OH280005   4.225   6.041  14.590  0.3179 -0.6351 -0.4099
19505TIP3    H180006   4.158   5.974  14.581  0.8127 -0.9943 -1.5710
19505TIP3    H280007   4.210   6.101  14.516 -0.4762  0.8805  0.9340
19506TIP3   OH280008   1.000   0.205  10.525  0.3595  0.2051 -0.1861
19506TIP3    H180009   1.036   0.222  10.611  0.9603  0.2762 -0.4507
19506TIP3    H280010   1.070   0.229  10.464  0.1229 -0.3272 -0.6714
19507TIP3   OH280011   6.439   4.117  11.845  0.0500  0.2675  0.4347
19507TIP3    H180012   6.415   4.099  11.754 -0.2492  1.8215  0.1966
19507TIP3    H280013   6.467   4.208  11.845  2.6085 -0.4728  1.3901
19508TIP3   OH280014   4.307   1.035  14.913  0.0921 -0.2308 -0.2548
19508TIP3    H180015   4.381   1.060  14.968  0.3061 -2.1506  0.3498
19508TIP3    H280016   4.273   0.955  14.953 -0.9841 -0.5557 -1.7682
19509TIP3   OH280017   3.599   5.663  17.086 -0.0822  0.2519  0.3120
19509TIP3    H180018   3.647   5.618  17.016 -0.8364 -2.2894  1.3942
19509TIP3    H280019   3.535   5.717  17.040 -0.3119 -1.0985 -0.9769
19510TIP3   OH280020   4.758   2.370  14.336  0.0336 -0.1144  0.3993
19510TIP3    H180021   4.848   2.401  14.322  0.5931 -1.2819  1.2301
19510TIP3    H280022   4.745   2.376  14.430 -0.1492 -1.5388  0.4769
19511TIP3   OH280023   4.745   5.268  14.510 -0.1970  0.2764  0.0863
19511TIP3    H180024   4.798   5.341  14.542  0.1125 -0.1614  0.5780
19511TIP3    H280025   4.809   5.209  14.469 -0.5755  0.7778 -1.2519
19512TIP3   OH280026   6.037   0.038  11.126  0.1503 -0.4243  0.6207
19512TIP3    H180027   6.085  -0.029  11.077  0.2625 -0.2401  0.4763
19512TIP3    H280028   6.059   0.120  11.082 -0.4324 -0.3577  0.4470
19513TIP3   OH280029   4.472   3.029   2.516  0.3304 -0.1161 -0.4968
19513TIP3    H180030   4.418   3.004   2.441  0.7343 -1.1796 -0.4527
19513TIP3    H280031   4.559   2.995   2.494  0.6821  0.4693 -0.0028
19514TIP3   OH280032   2.340   5.963  12.576  0.1700  0.1118  0.1177
19514TIP3    H180033   2.368   5.894  12.516  0.8848  0.1322  0.4280
19514TIP3    H280034   2.421   6.007  12.602 -0.4974  2.9856 -2.3607
19515TIP3   OH280035   4.112   5.366   5.390  0.3179  0.7441 -0.0186
19515TIP3    H180036   4.158   5.358   5.307  1.5502  2.1904  0.4836
19515TIP3    H280037   4.108   5.277   5.425 -0.1248  0.1458 -1.5678
19516TIP3   OH280038   0.144   4.447   5.048  0.1805 -0.1562  0.3640
19516TIP3    H180039   0.139   4.455   4.953  0.1830  0.3458  0.4074
19516TIP3    H280040   0.054   4.461   5.078  0.4056  0.9408  0.5328
19517TIP3   OH280041   4.797   0.583  14.829  0.1030 -0.0208 -0.6801
19517TIP3    H180042   4.797   0.488  14.842  0.5922 -0.3206 -2.7538
19517TIP3    H280043   4.714   0.612  14.866  0.5408 -1.0728  1.1850
19518TIP3   OH280044   4.061   2.593   5.433  0.2122 -0.0453  0.4226
19518TIP3    H180045   4.081   2.642   5.514  0.6597  0.1096  0.2181
19518TIP3    H280046   4.117   2.633   5.367 -0.2385 -0.1011  0.0070
19519TIP3   OH280047   1.913   0.516  16.324 -0.2927  0.0910 -0.5896
19519TIP3    H180048   1.857   0.442  16.346 -1.9196  1.1646 -0.9948
19519TIP3    H280049   1.912   0.570  16.403  1.4805 -0.6581 -0.0362
19520TIP3   OH280050   2.357   0.717  12.801 -0.2068 -0.0124 -0.5820
19520TIP3    H180051   2.394   0.787  12.856  0.5949 -0.6185 -0.3327
19520TIP3    H280052   2.342   0.645  12.862  1.0169 -0.8132 -1.2035
19521TIP3   OH280053   6.579   2.071  17.227 -0.1007  0.3472  0.3398
19521TIP3    H180054   6.614   2.049  17.313 -0.9830  1.7945  1.1074
19521TIP3    H280055   6.656   2.082  17.172  0.5278  0.4431  1.2159
19522TIP3   OH280056   3.977   6.695   3.854  0.2748 -0.2749 -0.3749
19522TIP3    H180057   4.028   6.740   3.787  1.6043 -0.1317  0.7066
19522TIP3    H280058   3.890   6.734   3.848  0.3087 -0.4203 -2.1528
19523TIP3   OH280059   0.577   4.688   4.707  0.3628  0.0213  0.0929
19523TIP3    H180060   0.481   4.684   4.711  0.2145  2.0961 -0.8314
19523TIP3    H280061   0.606   4.615   4.761 -1.7190  0.9513  2.5527
19524TIP3   OH280062   3.629   3.368  16.959  0.0949  0.1643  0.5349
19524TIP3    H180063   3.672   3.449  16.931  1.3582 -0.1192  1.6214
19524TIP3    H280064   3.661   3.353  17.048 -0.5434 -1.2404  0.5433
19525TIP3   OH280065   3.508   6.126   3.652  0.4009 -0.0513 -0.3000
19525TIP3    H180066   3.426   6.097   3.612  0.0961  1.0743 -0.5309
19525TIP3    H280067   3.522   6.065   3.724 -0.0593 -0.9215 -0.9391
19526TIP3   OH280068   6.311   2.004   3.946 -0.6810 -0.0535  0.0805
19526TIP3    H180069   6.278   1.930   3.896 -1.6301  0.7712 -0.5195
19526TIP3    H280070   6.246   2.019   4.014 -0.8587  0.6971 -0.2518
19527TIP3   OH280071   4.064   1.085  15.774  0.3535 -0.1545 -0.0790
19527TIP3    H180072   4.004   1.103  15.701 -0.6620 -0.0806  0.7621
19527TIP3    H280073   4.096   0.996  15.757  1.9739  0.7325 -1.8824
19528TIP3   OH280074   3.039   3.478   2.380  0.1524 -0.3758 -0.1599
19528TIP3    H180075   3.059   3.437   2.464 -0.5285  0.7454  0.5718
19528TIP3    H280076   3.116   3.533   2.361 -0.6887  1.2004  0.9094
19529TIP3   OH280077   1.472   6.373  16.354  0.0274  0.1808  0.0046
19529TIP3    H180078   1.468   6.449  16.295  0.3526 -1.1029 -1.6946
19529TIP3    H280079   1.381   6.353  16.373 -0.0599  1.0511  0.5475
19530TIP3   OH280080   4.199   5.391  13.458 -0.1185  0.4944  0.7711
19530TIP3    H180081   4.269   5.388  13.393 -0.8650  0.8447 -0.0625
19530TIP3    H280082   4.215   5.471  13.508  0.4727  0.2099  1.0315
19531TIP3   OH280083   3.949   5.356   3.867 -0.2759  0.1473  0.0307
19531TIP3    H180084   3.923   5.447   3.850 -0.5149  0.1806  0.5475
19531TIP3    H280085   3.873   5.318   3.912  0.0494 -0.1400  0.3349
19532TIP3   OH280086   1.456   0.200   3.546 -0.1140 -0.2995 -0.3935
19532TIP3    H180087   1.381   0.155   3.507 -0.3596 -0.3027  0.0835
19532TIP3    H280088   1.422   0.238   3.627  0.2596  0.1676 -0.4533
19533TIP3   OH280089   6.480   1.938  10.549  0.0061  0.1784 -0.2040
19533TIP3    H180090   6.465   2.018  10.499  1.1175 -0.1866 -1.1659
19533TIP3    H280091   6.534   1.884  10.491  4.4975  1.2114  2.7428
19534TIP3   OH280092   6.680   2.722  11.614  0.1314  0.2299 -0.0880
19534TIP3    H180093   6.766   2.730  11.573  1.2415 -0.0784  2.1005
19534TIP3    H280094   6.692   2.760  11.701 -1.6471 -0.8678  0.6564
19535TIP3   OH280095   2.366   0.625  11.399 -0.7362  0.1977  0.3510
19535TIP3    H180096   2.289   0.570  11.413 -0.7009 -0.3772 -1.5200
19535TIP3    H280097   2.339   0.685  11.328  0.5348 -0.0277 -0.3329
19536TIP3   OH280098   1.002   6.261   0.593  0.5594  0.2856  0.7806
19536TIP3    H180099   1.051   6.182   0.570 -2.2057 -1.0221 -0.9074
19536TIP3    H280100   1.038   6.329   0.537  1.2404 -0.3627  0.4178
19537TIP3   OH280101   2.222   5.871  15.107 -0.1695  0.0128  0.4790
19537TIP3    H180102   2.304   5.827  15.128 -0.6893 -0.2632  2.0299
19537TIP3    H280103   2.240   5.920  15.027  1.2366 -0.7692  0.3072
19538TIP3   OH280104   0.976   2.870   4.203 -0.1602  0.6552 -0.4932
19538TIP3    H180105   1.045   2.803   4.203 -1.1790 -0.4208 -0.1489
19538TIP3    H280106   0.995   2.923   4.280 -0.4044 -0.3677  0.2837
19539TIP3   OH280107   5.403   0.657  10.940  0.3320 -0.4806  0.1340
19539TIP3    H180108   5.460   0.640  10.865 -0.0747 -1.9496  0.1386
19539TIP3    H280109   5.338   0.720  10.907  0.8745 -0.1893 -0.3820
19540TIP3   OH280110   4.720   0.323   5.101  0.5787 -0.5152  0.1127
19540TIP3    H180111   4.715   0.402   5.154 -1.9683 -1.2045  0.9599
19540TIP3    H280112   4.794   0.338   5.042  2.5151  0.9055  2.8105
19541TIP3   OH280113   2.931   4.784  11.603  0.1044  0.0399  0.1192
19541TIP3    H180114   2.986   4.802  11.679  2.4234  1.2650 -1.8026
19541TIP3    H280115   2.974   4.830  11.530 -2.1063 -1.0264 -1.9272
19542TIP3   OH280116   0.092   4.164   0.558 -0.0325  0.4538 -0.9276
19542TIP3    H180117   0.120   4.127   0.642 -0.7521 -1.4097 -1.4885
19542TIP3    H280118   0.000   4.188   0.573  0.1585  1.1383 -0.8537
19543TIP3   OH280119   3.525   2.451  15.524  0.1001  0.1293  0.2819
19543TIP3    H180120   3.460   2.396  15.480  1.7831 -0.4672 -1.5651
19543TIP3    H280121   3.515   2.537  15.483 -0.9756  0.6254  1.5483
19544TIP3   OH280122   3.635   0.339  13.254  0.2428 -0.8529  0.7039
19544TIP3    H180123   3.713   0.370  13.301  0.7271 -0.2478 -0.4808
19544TIP3    H280124   3.600   0.417  13.212  0.3769 -1.5584 -0.7391
19545TIP3   OH280125   1.193   0.319  14.376 -0.1942 -0.6798 -0.3747
19545TIP3    H180126   1.124   0.277  14.428  0.5260 -0.7316  0.5628
19545TIP3    H280127   1.256   0.350  14.441  0.1185  0.3474 -1.1598
19546TIP3   OH280128   0.117   4.369   1.549 -0.3028 -0.1648 -0.1812
19546TIP3    H180129   0.137   4.399   1.637 -0.7352 -3.2514  1.0344
19546TIP3    H280130   0.044   4.424   1.521  1.3400  2.3903  0.4455
19547TIP3   OH280131   2.749   0.826  17.223  0.4241  0.0108 -0.0769
19547TIP3    H180132   2.837   0.833  17.185  0.3733  0.6259 -0.0780
19547TIP3    H280133   2.760   0.765  17.296  0.7029 -0.4764 -0.5165
19548TIP3   OH280134   6.261   1.468  11.172  0.7328 -0.2603  0.2495
19548TIP3    H180135   6.170   1.459  11.201  0.6811  1.2809  0.6330
19548TIP3    H280136   6.290   1.379  11.155 -0.9041 -0.7581 -0.0114
19549TIP3   OH280137   0.972   6.585  16.443  0.2835  0.2355 -1.0522
19549TIP3    H180138   0.953   6.657  16.503 -3.2364 -1.2797 -0.1802
19549TIP3    H280139   0.973   6.507  16.498  2.4021 -0.5761 -2.2078
19550TIP3   OH280140   6.503   4.951  12.167 -0.3393  0.0733  0.1954
19550TIP3    H180141   6.441   5.019  12.193  0.3159  0.2176  1.4563
19550TIP3    H280142   6.571   4.997  12.118  0.2543  0.3995  1.2936
19551TIP3   OH280143   5.930   0.649  15.345  0.5096 -0.2621  0.5694
19551TIP3    H180144   5.996   0.621  15.409  0.0240 -2.8561 -0.0300
19551TIP3    H280145   5.962   0.616  15.261  0.3253  1.7346 -0.3026
19552TIP3   OH280146   2.819   6.375   1.621  0.5295 -0.5407 -0.1119
19552TIP3    H180147   2.892   6.408   1.673  0.2663 -1.9672  1.1991
19552TIP3    H280148   2.770   6.453   1.596  1.1802  0.2426  1.0105
19553TIP3   OH280149   0.267   5.598  14.642  0.6277  0.5546  0.1651
19553TIP3    H180150   0.350   5.551  14.636 -0.6165 -1.6614 -0.2059
19553TIP3    H280151   0.217   5.552  14.709 -0.7672  1.1094 -0.4465
19554TIP3   OH280152   4.616   5.620  10.852 -0.0360 -0.0712  0.2354
19554TIP3    H180153   4.583   5.703  10.888 -0.9432 -0.5606  0.5684
19554TIP3    H280154   4.537   5.570  10.832  0.4699  0.0537 -2.1492
19555TIP3   OH280155   2.683   3.623   1.807  0.1865 -0.5620 -0.2871
19555TIP3    H180156   2.743   3.563   1.851 -0.1784 -0.8787 -0.2232
19555TIP3    H280157   2.617   3.646   1.873  0.0559 -0.4627 -0.4488
19556TIP3   OH280158   6.562   5.369  15.981 -0.3775 -0.0358  0.4474
19556TIP3    H180159   6.619   5.369  15.904 -1.2800 -0.3383 -0.2319
19556TIP3    H280160   6.621   5.388  16.055  0.3273  1.2331 -0.4327
19557TIP3   OH280161   4.843   2.128   3.529  0.5336  0.2917  0.2228
19557TIP3    H180162   4.786   2.199   3.500 -0.3963 -1.3763 -2.2045
19557TIP3    H280163   4.921   2.173   3.563 -0.5933  2.4871 -0.0035
19558TIP3   OH280164   3.384   1.382  17.180 -0.2753 -0.0799  0.0113
19558TIP3    H180165   3.360   1.441  17.251 -2.2289 -0.7548 -0.0437
19558TIP3    H280166   3.327   1.305  17.193  0.6517 -0.9902 -1.2019
19559TIP3   OH280167   3.456   6.381  15.098  0.0784 -0.1268  0.8135
19559TIP3    H180168   3.434   6.348  15.185 -0.8249  1.7016  1.2999
19559TIP3    H280169   3.530   6.439  15.113  1.2728 -1.4196  0.0443
19560TIP3   OH280170   1.685   5.099   0.596  0.4966  0.0267  0.3355
19560TIP3    H180171   1.682   5.004   0.611  1.3344 -0.0574  0.0147
19560TIP3    H280172   1.677   5.137   0.684  1.3142 -0.3708  0.5911
19561TIP3   OH280173   5.286   1.885   3.475 -0.1240 -0.1524  0.5580
19561TIP3    H180174   5.308   1.969   3.433 -0.8619  0.5491  1.5384
19561TIP3    H280175   5.357   1.827   3.451  1.0637  1.1307  0.9173
19562TIP3   OH280176   1.246   1.001  16.785  0.4924 -0.0811  0.0299
19562TIP3    H180177   1.336   0.986  16.756  0.7777 -2.2313  1.9604
19562TIP3    H280178   1.254   1.057  16.862  0.1423 -0.0547  0.0480
19563TIP3   OH280179   5.569   4.880  15.317 -0.2196  0.3905 -0.4815
19563TIP3    H180180   5.630   4.916  15.252  0.2518 -1.0254 -0.8356
19563TIP3    H280181   5.618   4.880  15.399 -1.1085  3.0181  0.1091
19564TIP3   OH280182   2.645   4.288  15.207  0.5096 -0.2245  0.4610
19564TIP3    H180183   2.687   4.334  15.280  0.1506 -0.4861  0.8355
19564TIP3    H280184   2.608   4.209  15.247 -2.2688  1.0794  0.5501
19565TIP3   OH280185   2.623   4.613  14.350 -0.2250 -1.2031  0.0378
19565TIP3    H180186   2.588   4.566  14.274  0.3391  0.9428 -1.6286
19565TIP3    H280187   2.714   4.631  14.326 -0.2750  0.2245  0.8360
19566TIP3   OH280188   2.898   0.966   1.873 -0.4184 -0.0428 -0.0905
19566TIP3    H180189   2.926   0.907   1.803 -0.9813 -0.7405  0.2584
19566TIP3    H280190   2.808   0.939   1.892  0.0782 -0.5802  1.6089
19567TIP3   OH280191   2.673   6.390   3.145 -0.2097 -0.1417 -0.2662
19567TIP3    H180192   2.590   6.380   3.192 -0.2047 -0.4042 -0.3128
19567TIP3    H280193   2.735   6.418   3.213 -0.6115  1.3187 -0.4666
19568TIP3   OH280194   6.678   6.626  14.626  0.9636  0.6897 -0.0379
19568TIP3    H180195   6.638   6.540  14.638 -2.1633  2.2086  1.0194
19568TIP3    H280196   6.698   6.656  14.715  1.4376  1.3107 -0.3482
19569TIP3   OH280197   0.448   4.166  14.761  0.2814  0.3027  0.0829
19569TIP3    H180198   0.408   4.081  14.740  0.7375  0.3477 -0.9876
19569TIP3    H280199   0.397   4.198  14.835 -0.1242 -0.7477  0.2745
19570TIP3   OH280200   1.923   1.771   2.921 -0.0552 -0.2463  0.2328
19570TIP3    H180201   1.957   1.804   3.004  1.6854  0.3583 -0.6955
19570TIP3    H280202   1.961   1.829   2.855 -1.2812 -0.8244 -1.0120
19571TIP3   OH280203   5.882   1.246  11.115  0.3571  0.4702 -0.3197
19571TIP3    H180204   5.957   1.261  11.173  0.3487 -0.1915 -0.1337
19571TIP3    H280205   5.835   1.329  11.115  1.9409  1.4117 -1.6762
19572TIP3   OH280206   0.295   3.402  12.510 -0.3415  0.2814  0.4123
19572TIP3    H180207   0.263   3.313  12.525 -1.0832  0.6312  0.9588
19572TIP3    H280208   0.255   3.428  12.426 -1.7636  0.8304  1.2480
19573TIP3   OH280209   5.024   1.676   1.400 -0.3956  0.2434  0.8521
19573TIP3    H180210   5.094   1.613   1.384 -0.6774  0.0400  0.4023
19573TIP3    H280211   4.973   1.637   1.471 -0.2102  0.2673  1.0014
19574TIP3   OH280212   3.188   4.172  11.591  0.0917  0.2691  0.0414
19574TIP3    H180213   3.212   4.081  11.572  0.1844  0.2433  0.2837
19574TIP3    H280214   3.198   4.180  11.686 -1.2020  0.1536  0.1932
19575TIP3   OH280215   2.356   3.326  16.768  0.1136  0.7115 -1.1228
19575TIP3    H180216   2.282   3.269  16.747  0.3757  0.7319 -2.1101
19575TIP3    H280217   2.327   3.375  16.845  0.4748 -1.8511  0.6776
19576TIP3   OH280218   3.036   5.617  15.311 -0.2279 -0.0083  0.8460
19576TIP3    H180219   3.101   5.591  15.377  1.4812  2.4593  0.2131
19576TIP3    H280220   3.051   5.557  15.238  0.8765  0.0807  0.9904
19577TIP3   OH280221   5.156   6.465   6.266 -0.0959 -0.1446 -0.5462
19577TIP3    H180222   5.178   6.382   6.222 -0.8310 -0.2486 -0.7174
19577TIP3    H280223   5.073   6.491   6.227 -1.4799 -0.9600  1.7730
19578TIP3   OH280224   3.682   2.729  12.509  0.3146  0.6853  0.3279
19578TIP3    H180225   3.678   2.825  12.519  1.5976  0.6189  1.5869
19578TIP3    H280226   3.712   2.698  12.594  1.1914 -0.7541 -0.5003
19579TIP3   OH280227   3.361   2.142   5.409 -0.6445 -0.0124  0.0347
19579TIP3    H180228   3.298   2.101   5.468 -0.6954 -2.4078 -1.6208
19579TIP3    H280229   3.308   2.195   5.350 -1.1853 -2.1324 -1.4454
19580TIP3   OH280230   3.937   6.037   2.479 -0.3267 -0.3396  0.2024
19580TIP3    H180231   3.920   6.041   2.573 -0.1994 -0.1745  0.2184
19580TIP3    H280232   3.982   5.954   2.466 -0.1582 -0.2666  0.3173
19581TIP3   OH280233   6.073   6.123   1.787  0.3954 -0.8702 -0.3880
19581TIP3    H180234   6.142   6.167   1.737  0.0970  0.3608  0.2592
19581TIP3    H280235   6.120   6.068   1.850  0.8124  0.7815  0.7658
19582TIP3   OH280236   1.525   1.876  14.825 -0.4616 -0.0084 -0.1805
19582TIP3    H180237   1.498   1.808  14.887  0.1695 -0.8583 -0.8268
19582TIP3    H280238   1.585   1.831  14.765  0.7746  1.3669  0.0042
19583TIP3   OH280239   6.343   0.023  15.266 -0.3187  0.2643  0.1062
19583TIP3    H180240   6.280   0.094  15.283 -2.0002 -1.4395  1.2616
19583TIP3    H280241   6.334   0.005  15.173  0.0878  1.5235 -0.1894
19584TIP3   OH280242   2.514   2.311  11.931 -0.3505  0.5785  0.3850
19584TIP3    H180243   2.464   2.382  11.892 -0.4507  0.3160  0.0281
19584TIP3    H280244   2.599   2.350  11.953 -0.8567  1.1321  1.3853
19585TIP3   OH280245   2.349   5.374   4.947  0.6050 -0.3037 -0.3213
19585TIP3    H180246   2.290   5.353   5.019 -0.1142  2.3622 -0.0610
19585TIP3    H280247   2.433   5.336   4.973  0.3951  0.7147  2.0163
19586TIP3   OH280248   6.164   4.294  17.120  0.1277 -0.6268  0.7355
19586TIP3    H180249   6.157   4.373  17.066 -0.0405 -0.5530  0.8645
19586TIP3    H280250   6.074   4.267  17.135  0.2046 -1.2288  0.1316
19587TIP3   OH280251   2.186   6.678  12.524 -0.1707 -0.0299  0.4162
19587TIP3    H180252   2.098   6.709  12.504  0.4288  1.0878 -0.5659
19587TIP3    H280253   2.242   6.722  12.460  1.0329 -1.1660  0.6564
19588TIP3   OH280254   6.009   2.870  11.128  0.3724  0.0884  0.1968
19588TIP3    H180255   5.948   2.807  11.167  0.9552  0.1682  1.2629
19588TIP3    H280256   6.012   2.846  11.035  0.6133 -1.5016  0.5927
19589TIP3   OH280257   4.832   5.735  11.565 -0.0483 -0.1016  0.2454
19589TIP3    H180258   4.739   5.714  11.573 -0.2370  0.6270  0.0180
19589TIP3    H280259   4.877   5.651  11.575 -0.9104 -1.0304 -3.1099
19590TIP3   OH280260   4.963   5.577  12.073 -0.0659  0.4645  0.5368
19590TIP3    H180261   5.023   5.624  12.015 -1.0131  1.7144  0.5413
19590TIP3    H280262   4.992   5.600  12.161  0.9966 -0.9469  0.5644
19591TIP3   OH280263   4.643   0.468   0.305 -0.8243  0.2260  0.2547
19591TIP3    H180264   4.703   0.429   0.368 -2.0751  1.7735  2.4362
19591TIP3    H280265   4.673   0.435   0.220  0.4016 -2.4729  1.6986
19592TIP3   OH280266   5.296   1.152  14.910  0.2255 -0.2945  0.4921
19592TIP3    H180267   5.265   1.175  14.822 -0.7102  4.3578  1.9031
19592TIP3    H280268   5.391   1.153  14.903  0.1767  1.1718 -0.2653
19593TIP3   OH280269   1.414   2.052  12.869  0.0961  0.2644 -0.5819
19593TIP3    H180270   1.461   1.969  12.880 -0.2032 -0.0484 -1.6094
19593TIP3    H280271   1.350   2.052  12.941 -0.7893 -1.0354 -1.3315
19594TIP3   OH280272   3.204   0.390   4.204 -0.0190  0.5051  0.0774
19594TIP3    H180273   3.182   0.320   4.265  1.9087  0.1298  0.3961
19594TIP3    H280274   3.186   0.471   4.253 -0.4338  0.2166  0.4031
19595TIP3   OH280275   5.963   0.731   0.875 -0.3449 -0.6880  0.6740
19595TIP3    H180276   6.022   0.741   0.950  1.0551 -3.3523 -0.0187
19595TIP3    H280277   6.016   0.753   0.799 -1.3461  0.5548  0.3192
19596TIP3   OH280278   6.613   5.419   5.441  0.0612 -0.0638  0.7504
19596TIP3    H180279   6.662   5.446   5.364 -0.2741 -0.6036  0.3373
19596TIP3    H280280   6.664   5.450   5.516  0.8282 -0.2955  0.3195
19597TIP3   OH280281   5.196   0.086  15.902 -0.3001  0.8790 -0.0586
19597TIP3    H180282   5.212   0.179  15.919  0.2615  0.9619 -1.0170
19597TIP3    H280283   5.226   0.072  15.813  0.8260 -0.5043  0.5147
19598TIP3   OH280284   4.389   4.960   0.454 -0.0359 -0.0041  0.2062
19598TIP3    H180285   4.320   5.007   0.407 -1.0903 -0.1482  1.5724
19598TIP3    H280286   4.441   4.919   0.386 -2.7372 -1.9063 -0.7710
19599TIP3   OH280287   2.235   1.327   4.699 -0.6080  0.2108  0.5095
19599TIP3    H180288   2.277   1.313   4.783 -0.1499  0.1422  0.2715
19599TIP3    H280289   2.155   1.374   4.720 -1.2883 -1.1964  1.1391
19600TIP3   OH280290   4.889   6.322  13.735 -0.2937  0.3011  0.4211
19600TIP3    H180291   4.846   6.289  13.656  0.7824 -1.1892  0.4231
19600TIP3    H280292   4.864   6.260  13.803 -1.8744  2.0346  1.4613
19601TIP3   OH280293   4.616   5.445   0.734  0.1221 -0.7536 -0.1964
19601TIP3    H180294   4.529   5.409   0.713  0.4722 -0.6184 -1.9716
19601TIP3    H280295   4.676   5.374   0.713  0.5197 -0.5157  0.1342
19602TIP3   OH280296   3.991   2.963   0.886 -0.4816 -0.1005 -0.1306
19602TIP3    H180297   3.918   2.974   0.948 -2.1632 -1.9559 -1.7106
19602TIP3    H280298   3.993   3.046   0.838 -0.0021  0.8605  1.5057
19603TIP3   OH280299   4.859   0.243   4.514 -0.0539 -0.2893 -0.2301
19603TIP3    H180300   4.812   0.209   4.438 -0.4991 -0.1167 -0.0301
19603TIP3    H280301   4.930   0.180   4.528 -0.4296 -0.7364 -0.3215
19604TIP3   OH280302   3.660   6.510  16.297  0.2814  0.3726 -0.0787
19604TIP3    H180303   3.678   6.417  16.310 -1.0795  0.1935  0.6875
19604TIP3    H280304   3.727   6.555  16.348  0.3820 -0.2133  0.3095
19605TIP3   OH280305   1.992   5.357   4.383 -0.2933 -0.1328 -0.2570
19605TIP3    H180306   1.904   5.387   4.363 -0.0896  0.7707  0.2037
19605TIP3    H280307   2.028   5.330   4.298 -0.3694  1.2041 -0.7138
19606TIP3   OH280308   6.591   6.542   3.797 -0.1110 -0.0311 -0.3440
19606TIP3    H180309   6.582   6.608   3.865 -0.9316 -1.0167  0.5116
19606TIP3    H280310   6.684   6.519   3.797  0.0385  0.5856 -0.1416
19607TIP3   OH280311   5.747   6.209  11.644  0.3379  0.3458  0.0417
19607TIP3    H180312   5.833   6.171  11.662  0.1600  0.8250  2.0785
19607TIP3    H280313   5.765   6.284  11.588  1.2379  0.3729  0.3594
19608TIP3   OH280314   5.137   1.882   4.076  0.0369 -0.3508  0.0503
19608TIP3    H180315   5.199   1.816   4.107  0.9551  0.0335 -0.9356
19608TIP3    H280316   5.102   1.921   4.156  0.0677 -1.5001  0.6308
19609TIP3   OH280317   5.520   3.651  17.048  0.0088 -0.2654  0.0057
19609TIP3    H180318   5.587   3.694  17.100 -1.1305  1.0437  0.4402
19609TIP3    H280319   5.541   3.676  16.957  1.7483 -2.2064 -0.1518
19610TIP3   OH280320   5.532   0.635  11.650 -0.2309  0.4314 -0.5212
19610TIP3    H180321   5.518   0.685  11.730 -0.2128  1.2616 -1.0301
19610TIP3    H280322   5.627   0.633  11.639 -0.2773  1.5411 -1.2696
19611TIP3   OH280323   0.313   1.541  14.673 -0.2470  0.4115 -0.1042
19611TIP3    H180324   0.384   1.478  14.664 -1.8396 -1.6338  1.0517
19611TIP3    H280325   0.353   1.626  14.656  2.3495 -0.7394  0.0753
19612TIP3   OH280326   0.515   0.631  16.244  0.0906  0.5521  0.3789
19612TIP3    H180327   0.533   0.670  16.158 -0.3045  0.3822  0.2194
19612TIP3    H280328   0.588   0.570  16.257 -0.1782  0.1210 -0.1138
19613TIP3   OH280329   0.201   0.058  13.829  0.2490 -0.3747  0.4650
19613TIP3    H180330   0.204   0.133  13.889  0.3845 -0.2367  0.2831
19613TIP3    H280331   0.144   0.086  13.758 -0.5761 -0.8350  0.9302
19614TIP3   OH280332   4.733   2.761  11.216 -0.2281 -0.2218 -0.7964
19614TIP3    H180333   4.777   2.784  11.298 -0.1096 -1.1390 -0.5996
19614TIP3    H280334   4.698   2.844  11.184  1.7844  0.5776 -1.0477
19615TIP3   OH280335   5.568   4.041   1.860  0.5278  0.3866 -0.6429
19615TIP3    H180336   5.472   4.041   1.858  0.5251 -1.6948 -1.6441
19615TIP3    H280337   5.590   4.044   1.953 -0.5007  0.9271 -0.4131
19616TIP3   OH280338   0.137   0.165  11.164 -0.0979  0.5721  0.5021
19616TIP3    H180339   0.071   0.230  11.185 -1.7542 -0.9539  0.1144
19616TIP3    H280340   0.177   0.144  11.249  0.8024  2.4388  0.5568
19617TIP3   OH280341   1.238   0.610   5.687  0.5949  0.7902  0.3544
19617TIP3    H180342   1.304   0.663   5.644  1.2183 -0.0696  0.2314
19617TIP3    H280343   1.155   0.636   5.646  1.0746  0.6339 -0.7249
19618TIP3   OH280344   1.902   0.327   4.571  0.2342 -0.4099  0.0858
19618TIP3    H180345   1.920   0.418   4.593 -0.4564 -0.1492 -0.3896
19618TIP3    H280346   1.970   0.277   4.616  0.7925  0.3605  0.1120
19619TIP3   OH280347   0.037   3.832   0.760  0.1863 -0.4508 -0.1190
19619TIP3    H180348   0.091   3.776   0.816  0.9167  0.6952  0.3316
19619TIP3    H280349   0.071   3.920   0.775 -2.0707  0.3362  0.4588
19620TIP3   OH280350   3.153   6.229  15.638  0.5335  0.3637  0.0408
19620TIP3    H180351   3.148   6.325  15.641 -1.8455  0.2644 -0.0558
19620TIP3    H280352   3.154   6.209  15.544 -0.5804  0.2216  0.0602
19621TIP3   OH280353   6.287   1.696   4.290 -0.2470  0.1806 -0.6089
19621TIP3    H180354   6.223   1.768   4.294 -0.9822 -0.5293  0.7772
19621TIP3    H280355   6.290   1.672   4.197  0.1760  2.1369 -1.1272
19622TIP3   OH280356   5.013   3.163  10.956  0.1798 -0.1432 -0.4598
19622TIP3    H180357   4.997   3.207  10.873  1.4793  0.8715 -0.1920
19622TIP3    H280358   5.074   3.093  10.935 -3.1899 -3.0005 -1.1946
19623TIP3   OH280359   4.402   3.904  13.504 -0.3255  0.7394  0.3055
19623TIP3    H180360   4.439   3.962  13.438 -2.0231  0.2217 -1.1543
19623TIP3    H280361   4.464   3.832  13.512  0.7800  1.7269  0.6210
19624TIP3   OH280362   2.885   2.530   0.166 -0.2724  0.0199 -0.4660
19624TIP3    H180363   2.832   2.451   0.164 -1.1870  0.6101 -0.1529
19624TIP3    H280364   2.974   2.500   0.183 -0.3407 -1.0624 -1.9957
19625TIP3   OH280365   2.932   4.078  14.293 -0.1735  0.2531 -0.4682
19625TIP3    H180366   2.950   4.088  14.200 -1.1419 -0.5363 -0.7409
19625TIP3    H280367   2.847   4.121  14.306  0.2985  1.0185  0.1988
19626TIP3   OH280368   0.323   5.657   4.029 -0.2092 -0.8428  0.1459
19626TIP3    H180369   0.293   5.566   4.031  0.5214 -1.1141 -0.6636
19626TIP3    H280370   0.245   5.708   4.010 -0.5485 -1.3489  0.1916
19627TIP3   OH280371   4.929   4.407  11.337  0.8766  0.0505  0.1853
19627TIP3    H180372   4.925   4.335  11.400 -1.0386  0.3857  0.4980
19627TIP3    H280373   4.990   4.470  11.375 -1.7814  1.1737  2.7439
19628TIP3   OH280374   6.255   3.979  15.103  0.6711  0.7912  0.1779
19628TIP3    H180375   6.343   4.006  15.077  0.7156  0.7975  0.3313
19628TIP3    H280376   6.197   4.012  15.034  0.6213  1.9939  0.7835
19629TIP3   OH280377   2.937   4.906   5.423  0.5561  0.1684  0.7878
19629TIP3    H180378   2.929   5.001   5.417  1.6831  0.3132  1.2624
19629TIP3    H280379   3.015   4.893   5.478  0.3550 -1.0246  0.7977
19630TIP3   OH280380   0.489   2.229  15.510 -0.4891  0.7310  0.2409
19630TIP3    H180381   0.488   2.133  15.505  0.0719  0.5642  2.4263
19630TIP3    H280382   0.414   2.257  15.458 -0.0062 -0.8357 -1.3488
19631TIP3   OH280383   1.112   3.655  15.560  0.5486 -0.9223 -0.3754
19631TIP3    H180384   1.057   3.614  15.494 -0.9936  0.6816 -0.1309
19631TIP3    H280385   1.110   3.748  15.538  2.3772 -0.7161  0.2290
19632TIP3   OH280386   2.829   4.959   2.686 -0.2600  0.5316  0.4147
19632TIP3    H180387   2.820   4.981   2.779 -1.3227  1.5530  0.0801
19632TIP3    H280388   2.917   4.922   2.679  0.9110  2.9551  1.3716
19633TIP3   OH280389   6.332   2.893   1.879 -0.0057  0.3070 -0.1638
19633TIP3    H180390   6.267   2.880   1.810  0.2006  0.5268 -0.3948
19633TIP3    H280391   6.287   2.863   1.959 -0.5259  0.8228 -0.2610
19634TIP3   OH280392   5.300   2.378  15.535 -0.3999 -0.1392 -0.3114
19634TIP3    H180393   5.331   2.315  15.599 -3.2645 -1.7262 -0.3782
19634TIP3    H280394   5.224   2.335  15.495 -3.4557  4.0009  0.7793
19635TIP3   OH280395   3.048   4.466   0.518 -0.3414 -0.6027 -0.1373
19635TIP3    H180396   3.088   4.422   0.593 -0.1911  1.5740  1.0733
19635TIP3    H280397   3.094   4.429   0.442  1.6665 -0.5757  1.0366
19636TIP3   OH280398   1.822   1.140  11.976 -0.4882 -0.0104  0.4146
19636TIP3    H180399   1.834   1.051  11.943 -0.9181  0.5941 -1.4414
19636TIP3    H280400   1.909   1.180  11.970 -0.1092 -0.5753  2.0857
19637TIP3   OH280401   0.692   3.747   4.482  0.3314 -0.2709 -0.3482
19637TIP3    H180402   0.709   3.681   4.550  0.2178 -0.5744 -0.6160
19637TIP3    H280403   0.661   3.823   4.531  2.0399  0.1513  0.1275
19638TIP3   OH280404   1.042   4.176   2.945  0.5823  0.3498  0.0736
19638TIP3    H180405   0.972   4.217   2.996 -1.3848 -0.7504 -1.7016
19638TIP3    H280406   1.079   4.110   3.004  1.4689  2.2305  1.7075
19639TIP3   OH280407   0.588   0.547  11.927  0.2738  0.0668  0.6763
19639TIP3    H180408   0.628   0.482  11.984 -2.1123 -0.7861  1.4333
19639TIP3    H280409   0.584   0.627  11.979  4.1100  1.1606 -0.5885
19640TIP3   OH280410   6.155   1.932   6.207 -0.5306 -0.0131 -0.0140
19640TIP3    H180411   6.224   1.867   6.208  1.4195  1.9892  2.0358
19640TIP3    H280412   6.075   1.883   6.228  0.7286 -1.8470  0.5913
19641TIP3   OH280413   1.734   4.339   5.512 -0.4143  0.0468 -0.2963
19641TIP3    H180414   1.653   4.387   5.528  0.9127  2.2447  0.0368
19641TIP3    H280415   1.742   4.338   5.416 -0.0374  1.2087 -0.2806
19642TIP3   OH280416   2.983   0.149  15.553 -0.3227 -0.1207 -0.3381
19642TIP3    H180417   3.069   0.106  15.551 -0.5632 -0.6131 -0.1341
19642TIP3    H280418   3.003   0.240  15.577  0.3665  0.3594 -2.6008
19643TIP3   OH280419   6.086   1.442  15.959 -0.5836  0.0193 -0.4089
19643TIP3    H180420   6.149   1.457  16.030 -0.9584  0.4545 -0.1707
19643TIP3    H280421   6.007   1.489  15.986 -1.1885 -0.9652 -0.4621
19644TIP3   OH280422   3.676   5.473  12.014  0.8233 -0.4858 -0.2574
19644TIP3    H180423   3.772   5.473  12.019  0.9003  2.0719 -1.0852
19644TIP3    H280424   3.648   5.525  12.089  0.1437  0.1377 -0.9431
19645TIP3   OH280425   1.943   3.889   1.806 -0.1417 -0.1159  0.1668
19645TIP3    H180426   1.926   3.795   1.807  0.6601 -0.2695 -0.3327
19645TIP3    H280427   1.942   3.915   1.898 -0.4942 -0.5864  0.2969
19646TIP3   OH280428   2.032   1.688   4.115 -0.1160 -0.6879 -0.4212
19646TIP3    H180429   2.086   1.666   4.191 -1.8122  0.4574  1.1539
19646TIP3    H280430   2.063   1.628   4.046  0.7047 -2.5126  1.4691
19647TIP3   OH280431   0.519   5.127  16.355  0.8654  0.2716 -0.1859
19647TIP3    H180432   0.498   5.178  16.433  0.1989 -1.4601  0.8037
19647TIP3    H280433   0.488   5.180  16.282  0.9678  1.6531  0.7613
19648TIP3   OH280434   4.172   5.621   1.487 -0.2888 -0.0212  0.6101
19648TIP3    H180435   4.174   5.696   1.427  0.7597 -0.9627 -0.5711
19648TIP3    H280436   4.132   5.655   1.567  1.6388  2.2401  0.6667
19649TIP3   OH280437   2.503   2.022  14.032  0.0932  0.0646 -0.1370
19649TIP3    H180438   2.530   2.060  14.115 -1.1207 -0.8684  0.7051
19649TIP3    H280439   2.448   1.948  14.056 -0.8691  0.2098 -1.7805
19650TIP3   OH280440   0.477   3.659   3.322  0.1591 -0.3667 -0.2108
19650TIP3    H180441   0.445   3.723   3.258  0.5077 -0.8061 -0.8236
19650TIP3    H280442   0.404   3.649   3.384 -0.4176 -0.4071 -0.8920
19651TIP3   OH280443   6.785   4.935   5.029 -0.1497 -0.7473 -0.1265
19651TIP3    H180444   6.747   4.950   4.943  0.9462 -0.4906 -0.5738
19651TIP3    H280445   6.798   5.022   5.066 -0.7110 -0.8579  0.3495
19652TIP3   OH280446   0.689   0.039  16.295 -0.2392 -0.8716 -0.0054
19652TIP3    H180447   0.760  -0.015  16.260  0.8626  1.4029 -1.4220
19652TIP3    H280448   0.626   0.045  16.223  0.6417  1.3988 -0.6383
19653TIP3   OH280449   1.700   3.618   1.216 -0.3854 -0.3204 -0.4606
19653TIP3    H180450   1.783   3.585   1.183 -1.3397 -2.3195 -0.9131
19653TIP3    H280451   1.684   3.697   1.164 -0.1289 -1.4686 -2.3214
19654TIP3   OH280452   3.687   0.389   3.380  0.2019 -0.0880 -0.2071
19654TIP3    H180453   3.693   0.361   3.289  0.7787 -0.7534  0.0351
19654TIP3    H280454   3.663   0.482   3.375 -3.0560 -0.9027 -1.0170
19655TIP3   OH280455   5.284   6.522  10.511 -0.4165 -0.2011 -0.4446
19655TIP3    H180456   5.269   6.608  10.551 -1.5633 -1.4268  1.8160
19655TIP3    H280457   5.286   6.461  10.584  0.9316 -2.0681 -1.9795
19656TIP3   OH280458   2.780   6.498  11.750 -0.0286 -0.0397  0.3622
19656TIP3    H180459   2.728   6.432  11.704  0.6429 -0.5120  0.2723
19656TIP3    H280460   2.801   6.458  11.834 -0.0695  0.2729  0.5239
19657TIP3   OH280461   3.751   5.427  15.876  0.1012  0.1335 -0.1051
19657TIP3    H180462   3.752   5.396  15.785 -2.4020  2.6976 -1.0962
19657TIP3    H280463   3.745   5.348  15.928 -0.5385 -1.3006 -2.2704
19658TIP3   OH280464   1.021   5.711   1.290  0.4039  0.2289  0.1993
19658TIP3    H180465   1.073   5.666   1.357 -0.0233 -0.8521 -0.1815
19658TIP3    H280466   0.964   5.769   1.339  0.2726 -0.3698  0.7669
19659TIP3   OH280467   4.317   5.916  14.938 -0.5740 -0.5549  0.0050
19659TIP3    H180468   4.288   5.928  15.028  0.9364 -0.2574  0.4766
19659TIP3    H280469   4.331   5.821  14.930  2.6158 -0.2443  1.1915
19660TIP3   OH280470   3.013   6.230   1.037 -0.5026 -0.3169  0.0123
19660TIP3    H180471   3.103   6.258   1.021 -0.1644 -2.1358 -1.4975
19660TIP3    H280472   2.966   6.257   0.958 -0.8782 -1.0035  0.0005
19661TIP3   OH280473   0.627   1.781  13.319  0.1057 -0.1801 -0.3525
19661TIP3    H180474   0.661   1.746  13.237 -0.1986 -2.0122  0.2760
19661TIP3    H280475   0.676   1.734  13.387  0.0480  0.9984  0.5296
19662TIP3   OH280476   6.075   6.061  16.465 -0.3483 -0.0304  0.5422
19662TIP3    H180477   6.121   6.133  16.508 -0.6463  0.2884  0.3287
19662TIP3    H280478   6.132   6.036  16.392 -1.0224  1.1050 -0.4011
19663TIP3   OH280479   3.707   4.687  14.090  0.4353 -0.2376 -0.3922
19663TIP3    H180480   3.660   4.686  14.173 -1.6089 -2.1959 -1.5181
19663TIP3    H280481   3.683   4.771  14.050 -1.6441 -0.9460 -0.6688
19664TIP3   OH280482   3.238   6.497   2.909 -0.4704 -0.5387 -0.0485
19664TIP3    H180483   3.284   6.567   2.954  0.5814  1.7281 -4.3658
19664TIP3    H280484   3.305   6.432   2.890 -0.3585 -0.2737 -0.5825
19665TIP3   OH280485   1.793   3.696  14.650  0.2428  0.1444  0.2277
19665TIP3    H180486   1.705   3.733  14.639  0.2348  0.8084  2.2645
19665TIP3    H280487   1.832   3.749  14.718  1.9790 -0.6306 -0.1468
19666TIP3   OH280488   0.471   6.336   5.283  0.3383 -0.1848 -0.8320
19666TIP3    H180489   0.493   6.425   5.311 -0.1194 -0.1750 -0.4962
19666TIP3    H280490   0.404   6.307   5.345 -1.4023  0.1774 -2.5081
19667TIP3   OH280491   4.877   2.787  15.606 -0.2839 -0.1129  0.0518
19667TIP3    H180492   4.931   2.814  15.532 -0.6189 -1.4263 -0.6916
19667TIP3    H280493   4.925   2.714  15.646 -1.1783 -0.8949 -0.2551
19668TIP3   OH280494   1.472   1.208   2.224  0.0045  0.1124 -0.0250
19668TIP3    H180495   1.552   1.247   2.260 -0.3269  0.2499  0.5656
19668TIP3    H280496   1.494   1.189   2.133 -0.2970  3.0609 -0.7756
19669TIP3   OH280497   2.510   4.147   0.084  0.4457 -0.0720 -0.4341
19669TIP3    H180498   2.448   4.203   0.131 -1.2208 -1.7979 -0.4995
19669TIP3    H280499   2.505   4.062   0.130  2.7884 -0.2455 -0.4261
19670TIP3   OH280500   2.192   4.536  12.176 -0.4736  0.5228  0.6760
19670TIP3    H180501   2.235   4.600  12.119 -0.1158 -0.1433  0.1864
19670TIP3    H280502   2.102   4.533  12.143 -0.6193  1.1323  1.0146
19671TIP3   OH280503   2.717   6.071  14.582 -0.0044 -0.1950 -0.5400
19671TIP3    H180504   2.633   6.101  14.618 -0.7520 -2.3977 -0.3851
19671TIP3    H280505   2.712   6.092  14.489 -0.6462 -0.1598 -0.5009
19672TIP3   OH280506   5.667   2.477  11.435 -0.4748  0.2139  0.2526
19672TIP3    H180507   5.621   2.397  11.411 -1.3859  0.7572  0.1390
19672TIP3    H280508   5.759   2.451  11.442 -0.6922 -0.7310 -0.2619
19673TIP3   OH280509   0.135   1.595   3.342  0.8846 -0.5129 -0.0224
19673TIP3    H180510   0.042   1.620   3.335  1.4091  0.7953 -4.0886
19673TIP3    H280511   0.133   1.502   3.364 -1.3387  0.0245  2.3296
19674TIP3   OH280512   0.759   4.218   6.086 -0.1709  0.3528  0.1216
19674TIP3    H180513   0.749   4.148   6.151  1.3527 -0.2804 -0.2980
19674TIP3    H280514   0.670   4.251   6.073 -1.0363 -1.9226 -0.1280
19675TIP3   OH280515   5.955   0.382   5.527  0.1330 -0.4585  0.0356
19675TIP3    H180516   5.901   0.447   5.573  0.3451 -0.2517 -0.0068
19675TIP3    H280517   5.914   0.298   5.548  0.1695 -0.3551  0.5185
19676TIP3   OH280518   6.408   4.053  12.108 -0.6197  0.7077  0.2843
19676TIP3    H180519   6.485   4.101  12.140  1.3339 -2.8251  1.1432
19676TIP3    H280520   6.412   4.063  12.013  1.0153  0.4338  0.3092
19677TIP3   OH280521   3.798   2.950  13.292  0.5666  0.1643 -0.2241
19677TIP3    H180522   3.869   2.955  13.356  0.0763 -1.3255  0.4503
19677TIP3    H280523   3.800   3.035  13.248  2.4887  0.3044  0.0774
19678TIP3   OH280524   3.234   6.007  14.177  1.3310  0.1731  0.3422
19678TIP3    H180525   3.215   5.923  14.219  0.2071  1.0518  1.6384
19678TIP3    H280526   3.322   6.029  14.207  1.9296 -0.8693 -0.5855
19679TIP3   OH280527   1.184   1.942  15.006 -0.1588 -0.6641 -0.0707
19679TIP3    H180528   1.219   1.864  14.963  0.3531 -1.2766  1.4132
19679TIP3    H280529   1.089   1.934  14.998 -0.1404 -1.9292  0.8902
19680TIP3   OH280530   2.442   1.325  11.647 -0.8281  0.2724  0.0366
19680TIP3    H180531   2.361   1.308  11.696 -0.0614 -0.7611  0.9513
19680TIP3    H280532   2.462   1.242  11.605 -0.7856  0.8132 -1.0055
19681TIP3   OH280533   3.341   4.136   3.670  0.2514  0.0784  0.1067
19681TIP3    H180534   3.330   4.149   3.576 -0.3386 -1.2045 -0.0175
19681TIP3    H280535   3.357   4.042   3.679 -0.4199  0.0765  1.3486
19682TIP3   OH280536   4.731   1.626   2.242 -0.9538 -0.3739  0.2512
19682TIP3    H180537   4.646   1.660   2.214 -0.9910 -1.4827 -1.0080
19682TIP3    H280538   4.794   1.668   2.183 -0.8459 -1.2600 -0.2653
19683TIP3   OH280539   2.621   1.616   0.292 -0.2624 -0.0690 -0.1281
19683TIP3    H180540   2.678   1.636   0.367 -0.0972 -2.3409  0.3752
19683TIP3    H280541   2.539   1.587   0.331  0.1591 -2.2169 -0.7973
19684TIP3   OH280542   1.517   0.826   3.816  0.1844  0.1114  0.3771
19684TIP3    H180543   1.575   0.816   3.892 -0.6794  0.6999  1.1132
19684TIP3    H280544   1.572   0.800   3.742  0.7709 -1.3292  1.2855
19685TIP3   OH280545   2.948   3.010  15.623  0.6669  0.2187 -0.1033
19685TIP3    H180546   2.969   3.065  15.698  1.5164 -1.6813  1.0797
19685TIP3    H280547   2.937   2.922  15.659 -0.9011 -0.3796 -1.9180
19686TIP3   OH280548   3.147   0.959   3.677  0.2403 -0.1354 -0.0274
19686TIP3    H180549   3.077   0.974   3.740 -0.4252  0.9179 -0.9986
19686TIP3    H280550   3.208   1.032   3.692  1.0836 -0.9642  0.7148
19687TIP3   OH280551   3.745   6.147   6.049 -0.1802 -0.1654  0.0145
19687TIP3    H180552   3.812   6.151   5.980 -2.1563 -0.6271 -1.9808
19687TIP3    H280553   3.718   6.055   6.051 -0.7169  0.0059  0.8688
19688TIP3   OH280554   3.040   6.403  12.041 -0.2101  0.8197 -0.6236
19688TIP3    H180555   3.092   6.428  12.117  1.6110  0.8447 -1.8371
19688TIP3    H280556   3.105   6.389  11.972 -1.7726  0.0006 -1.9458
19689TIP3   OH280557   4.730   6.379   3.900 -0.2710 -0.7240 -0.2288
19689TIP3    H180558   4.734   6.307   3.964  1.2307  0.1390  0.7082
19689TIP3    H280559   4.647   6.422   3.918  0.4517 -0.0478  1.6915
19690TIP3   OH280560   0.964   1.041  13.097 -0.4809  0.3272 -0.3771
19690TIP3    H180561   0.877   1.005  13.083  0.2864 -1.0804 -1.6296
19690TIP3    H280562   1.020   0.965  13.113  0.3175  1.2974  1.5677
19691TIP3   OH280563   5.971   0.880   3.674 -0.1627 -0.0985  0.6000
19691TIP3    H180564   5.969   0.883   3.770  0.4709 -0.1608  0.6237
19691TIP3    H280565   5.918   0.803   3.651 -2.7757  1.6100  0.7425
19692TIP3   OH280566   1.251   5.167   3.944  0.3797  0.1320 -0.4409
19692TIP3    H180567   1.223   5.092   3.892  0.2376 -0.1724  0.0684
19692TIP3    H280568   1.330   5.199   3.899 -0.6454  0.8639 -1.7417
19693TIP3   OH280569   2.047   2.210   3.699 -0.8255  0.1497 -0.4713
19693TIP3    H180570   2.134   2.223   3.737 -1.6320  1.9400  0.8545
19693TIP3    H280571   2.023   2.121   3.724 -0.1622  0.3258  0.8396
19694TIP3   OH280572   6.110   4.597  11.448  0.1530  0.1621  0.0038
19694TIP3    H180573   6.027   4.593  11.401 -0.1419  0.7408  0.4672
19694TIP3    H280574   6.165   4.531  11.406 -0.4681 -0.0686 -0.4467
19695TIP3   OH280575   3.794   0.313  16.770 -0.3720 -0.3343 -0.1236
19695TIP3    H180576   3.872   0.303  16.716  0.5021  1.4899  0.7111
19695TIP3    H280577   3.819   0.276  16.855 -0.2139  0.6848  0.2905
19696TIP3   OH280578   2.774   2.991   0.802  0.0277 -0.2039  0.5218
19696TIP3    H180579   2.808   3.073   0.839  0.4461  0.3095 -0.9381
19696TIP3    H280580   2.683   3.011   0.779  0.3922  0.1354 -0.6507
19697TIP3   OH280581   2.812   4.370  15.438  0.2296 -0.1169  0.2121
19697TIP3    H180582   2.806   4.400  15.528  0.8241  1.1064 -0.1397
19697TIP3    H280583   2.893   4.318  15.435 -1.0314 -2.1913  0.9270
19698TIP3   OH280584   6.773   0.144   4.498  0.2693  0.2749  0.1803
19698TIP3    H180585   6.734   0.102   4.575 -2.0904  0.7487 -0.7132
19698TIP3    H280586   6.720   0.115   4.424  2.1068  0.3415 -1.2128
19699TIP3   OH280587   1.163   5.129  12.579 -0.0949  0.1315 -0.2920
19699TIP3    H180588   1.145   5.168  12.493  0.4252  1.4118  0.1738
19699TIP3    H280589   1.244   5.172  12.608 -1.4706  1.3697  1.8210
19700TIP3   OH280590   3.010   0.596  17.110  0.2757 -0.1942  0.0093
19700TIP3    H180591   2.953   0.527  17.146 -0.0291  0.3052  0.4868
19700TIP3    H280592   3.079   0.548  17.065  0.8503 -0.8347  1.5374
19701TIP3   OH280593   5.438   5.686  14.047  0.2831 -0.0560 -0.4521
19701TIP3    H180594   5.494   5.737  13.990 -1.3761 -0.4962 -2.5606
19701TIP3    H280595   5.456   5.595  14.023  0.6406 -0.3264  0.7884
19702TIP3   OH280596   0.938   4.071   0.373 -0.1682  0.9828  0.1261
19702TIP3    H180597   0.916   4.160   0.346  0.4933  0.5353 -1.9892
19702TIP3    H280598   0.897   4.015   0.307  1.9896 -0.1350 -0.3191
19703TIP3   OH280599   6.791   0.200   5.277 -0.3538 -0.2174  0.2349
19703TIP3    H180600   6.821   0.229   5.363 -0.1591  1.0436 -0.2566
19703TIP3    H280601   6.706   0.160   5.294  1.0199 -2.7572  1.4628
19704TIP3   OH280602   1.013   1.527  16.853 -0.3909  0.2874 -0.1879
19704TIP3    H180603   1.075   1.483  16.910 -1.4318  3.2112  3.3757
19704TIP3    H280604   0.928   1.490  16.876 -0.7395  0.9688 -0.3403
19705TIP3   OH280605   6.082   0.096   6.389  0.4731  0.6918  0.5155
19705TIP3    H180606   6.066   0.014   6.436  1.3361 -0.0308 -0.4389
19705TIP3    H280607   6.135   0.148   6.450 -1.2786  1.1455  1.7050
19706TIP3   OH280608   2.425   3.725   5.258  0.7042  0.3855 -0.4091
19706TIP3    H180609   2.395   3.765   5.177 -1.8342  0.5303  0.5671
19706TIP3    H280610   2.458   3.639   5.232 -1.4323 -0.1549 -1.4024
19707TIP3   OH280611   3.998   4.020   5.721  0.1175  0.2923 -0.4374
19707TIP3    H180612   4.030   4.086   5.783 -1.8553  1.0449 -0.2084
19707TIP3    H280613   3.906   4.040   5.709 -1.3306 -4.1827  1.8973
19708TIP3   OH280614   5.479   6.020   0.756 -0.2778 -0.2648  0.6467
19708TIP3    H180615   5.454   6.087   0.693 -0.4780 -0.2126  0.7794
19708TIP3    H280616   5.448   6.054   0.840  0.4718 -0.0709  0.8542
19709TIP3   OH280617   4.935   3.499   0.547 -0.1013  0.2121  0.0610
19709TIP3    H180618   4.970   3.410   0.546  0.4824  0.4454 -1.0801
19709TIP3    H280619   4.959   3.533   0.633  1.0279 -0.2085 -0.0753
19710TIP3   OH280620   0.781   1.805  14.805  0.1973 -0.4436 -0.0938
19710TIP3    H180621   0.827   1.864  14.865 -1.1573  0.8983 -0.3565
19710TIP3    H280622   0.829   1.722  14.813  1.2092  0.2460  1.4009
19711TIP3   OH280623   3.310   6.690  15.238 -0.3183  0.3635  0.1179
19711TIP3    H180624   3.377   6.666  15.302 -1.2962 -0.8718  0.7069
19711TIP3    H280625   3.340   6.652  15.156  0.5592  1.2986 -0.0017
19712TIP3   OH280626   3.343   2.238  11.782  0.1616 -0.0809 -0.4368
19712TIP3    H180627   3.322   2.268  11.693  0.0959 -0.3130 -0.4985
19712TIP3    H280628   3.265   2.192  11.811 -0.4139  1.3340  0.3308
19713TIP3   OH280629   5.601   1.803  12.951 -0.0729 -0.0102  0.4928
19713TIP3    H180630   5.648   1.867  12.898 -0.1757  0.0321  0.4522
19713TIP3    H280631   5.601   1.723  12.899 -1.1584  0.3456 -0.0647
19714TIP3   OH280632   2.642   0.786  15.340 -0.1333 -0.1298  0.0863
19714TIP3    H180633   2.645   0.867  15.290  0.4877 -0.2123 -0.0179
19714TIP3    H280634   2.622   0.718  15.275 -0.3080 -0.1101  0.1169
19715TIP3   OH280635   2.417   4.354  14.248 -0.4443  0.3738  0.0159
19715TIP3    H180636   2.327   4.376  14.224  0.1648  0.9855 -1.8189
19715TIP3    H280637   2.460   4.338  14.164  0.7044 -1.6990  0.9677
19716TIP3   OH280638   5.649   1.072  16.002  0.7256 -0.3566  0.8543
19716TIP3    H180639   5.623   1.164  16.004  0.0839 -0.5320  0.5541
19716TIP3    H280640   5.635   1.045  15.911  1.3196 -0.6349  0.8438
19717TIP3   OH280641   3.354   4.234   1.741 -0.0443  0.6513  0.1426
19717TIP3    H180642   3.265   4.250   1.771  0.8270  1.9613  2.0743
19717TIP3    H280643   3.378   4.312   1.692  0.1178  0.3696 -0.2342
19718TIP3   OH280644   1.664   0.482  12.518 -0.3617 -0.4731 -0.3786
19718TIP3    H180645   1.707   0.487  12.433  0.5632 -1.4837  0.0116
19718TIP3    H280646   1.734   0.501  12.581 -0.9606 -0.0799  0.1710
19719TIP3   OH280647   4.826   4.217  15.654 -0.1209 -0.2837  0.2413
19719TIP3    H180648   4.869   4.134  15.676  0.2400 -0.7172 -1.9998
19719TIP3    H280649   4.734   4.192  15.639  0.1697 -0.4388 -1.3190
19720TIP3   OH280650   0.056   4.956   0.518  0.1101  0.2231 -0.3512
19720TIP3    H180651   0.120   4.888   0.500 -0.5428 -0.5473  0.2330
19720TIP3    H280652  -0.025   4.925   0.478 -0.3883  0.2785  0.6012
19721TIP3   OH280653   5.934   2.931  13.883  0.1231  0.0834  0.1879
19721TIP3    H180654   5.922   2.865  13.951 -0.9806 -0.4217 -0.4890
19721TIP3    H280655   6.022   2.914  13.848  0.4963  0.0326  1.1307
19722TIP3   OH280656   2.336   0.739  13.660  0.2061 -0.3348  0.2820
19722TIP3    H180657   2.432   0.745  13.657  0.0884  1.2261 -0.5686
19722TIP3    H280658   2.307   0.829  13.675 -1.1901 -0.5502 -1.0215
19723TIP3   OH280659   0.218   1.160  12.907  0.6308  0.4897 -0.3625
19723TIP3    H180660   0.282   1.229  12.928  0.3661 -0.0838  2.5494
19723TIP3    H280661   0.184   1.132  12.992 -3.6563  0.8839 -1.8279
19724TIP3   OH280662   0.257   1.938   0.818 -0.3839  0.4418  0.2855
19724TIP3    H180663   0.297   1.918   0.734  0.2371  2.2065  0.1373
19724TIP3    H280664   0.197   2.010   0.800 -0.5351  0.5784  1.2826
19725TIP3   OH280665   4.016   4.880   6.072 -0.2962 -0.2587  0.0896
19725TIP3    H180666   4.097   4.902   6.026 -1.0348 -0.5762 -1.4079
19725TIP3    H280667   3.972   4.817   6.014 -1.4204 -0.4003  1.0760
19726TIP3   OH280668   6.370   0.598  12.996  0.2794 -0.5936  0.2622
19726TIP3    H180669   6.321   0.557  12.925  0.4335  0.0576 -0.2242
19726TIP3    H280670   6.310   0.662  13.033  0.9142  0.5251 -0.6283
19727TIP3   OH280671   0.192   5.323  14.360  0.3507  0.0708 -0.6064
19727TIP3    H180672   0.195   5.277  14.444  1.3094 -0.4414 -0.9101
19727TIP3    H280673   0.258   5.393  14.370  0.0647  0.3600 -0.7353
19728TIP3   OH280674   3.377   6.298   0.274  0.0762  0.8703 -0.0024
19728TIP3    H180675   3.362   6.232   0.342  0.7903  0.2825 -0.4107
19728TIP3    H280676   3.404   6.376   0.322  1.2858  0.2479  0.3413
19729TIP3   OH280677   2.438   5.610   0.664 -0.4557  0.9808  0.5258
19729TIP3    H180678   2.409   5.646   0.748 -3.1591  0.3929 -0.0882
19729TIP3    H280679   2.523   5.650   0.648 -0.8643  2.7288  2.5418
19730TIP3   OH280680   3.517   0.065   5.194  0.5185 -0.5858 -0.4126
19730TIP3    H180681   3.564   0.135   5.148 -0.2628 -0.6814 -1.3576
19730TIP3    H280682   3.502  -0.002   5.128 -3.1254  0.4796 -0.7988
19731TIP3   OH280683   3.954   1.112  16.867 -0.7588 -0.6085  0.0100
19731TIP3    H180684   3.983   1.181  16.927 -0.6761 -1.6084  1.1495
19731TIP3    H280685   4.029   1.095  16.810 -0.7583  0.1923 -0.2259
19732TIP3   OH280686   2.978   2.942  14.511  0.2721  0.0121  0.3732
19732TIP3    H180687   2.971   2.872  14.445 -0.6732  0.6230 -0.1882
19732TIP3    H280688   3.070   2.942  14.536  0.6167 -0.3107 -0.8658
19733TIP3   OH280689   2.545   0.367   3.866  0.0996  0.1023  0.0402
19733TIP3    H180690   2.549   0.438   3.803 -0.9254  0.1083 -0.0209
19733TIP3    H280691   2.636   0.356   3.896  0.5827  0.1047 -1.4109
19734TIP3   OH280692   3.931   3.516   3.590 -0.4184 -0.7368 -0.5613
19734TIP3    H180693   3.925   3.442   3.530 -0.8100 -1.1684  0.0060
19734TIP3    H280694   3.841   3.533   3.616 -0.4460  0.5999 -1.4862
19735TIP3   OH280695   5.289   0.220  16.178  0.4847  0.3637  0.2111
19735TIP3    H180696   5.375   0.261  16.187 -0.2373  1.5460  1.8717
19735TIP3    H280697   5.286   0.155  16.249 -0.3347  0.9522  0.7195
19736TIP3   OH280698   3.128   5.771  14.288 -0.5350 -0.1521  0.2614
19736TIP3    H180699   3.157   5.737  14.373 -2.7310  0.4537  1.3070
19736TIP3    H280700   3.066   5.705  14.256  0.5569 -0.5532 -1.0678
19737TIP3   OH280701   4.372   1.469  16.275 -0.0309 -0.2777 -0.3514
19737TIP3    H180702   4.413   1.471  16.189  1.6837 -0.3764  0.4564
19737TIP3    H280703   4.325   1.386  16.278 -0.8997  0.1574 -1.5439
19738TIP3   OH280704   5.986   4.879   2.040  0.5411  0.0308  0.2677
19738TIP3    H180705   6.065   4.910   1.995  0.7764  0.5565  1.0460
19738TIP3    H280706   5.999   4.904   2.131 -1.3792  1.8252  0.0598
19739TIP3   OH280707   6.150   0.949   2.542 -0.4793  0.4597  0.3575
19739TIP3    H180708   6.073   0.898   2.518  0.2859  0.2911 -1.8544
19739TIP3    H280709   6.218   0.922   2.479  0.4912  2.7896  0.3464
19740TIP3   OH280710   5.558   0.300  15.141 -0.0692 -0.2001 -0.9624
19740TIP3    H180711   5.626   0.316  15.075  0.9915 -1.6303 -0.2214
19740TIP3    H280712   5.551   0.205  15.146  0.7104 -0.1465  1.8354
19741TIP3   OH280713   3.112   0.891   2.763 -0.0563  0.2256  0.1361
19741TIP3    H180714   3.170   0.826   2.724 -1.0572 -0.8065  0.3401
19741TIP3    H280715   3.074   0.937   2.687  0.5337  0.4688 -0.0125
19742TIP3   OH280716   3.253   5.799   5.128 -0.1961 -0.1969  0.6116
19742TIP3    H180717   3.169   5.758   5.148  0.2104 -0.6907  1.3191
19742TIP3    H280718   3.290   5.821   5.213  1.1050 -1.4200  0.3724
19743TIP3   OH280719   1.786   2.055   1.531  0.4619  0.2474 -0.0604
19743TIP3    H180720   1.777   2.006   1.449 -0.1047 -1.0635  0.7647
19743TIP3    H280721   1.695   2.073   1.558  0.6412  0.5078  0.3811
19744TIP3   OH280722   6.639   2.188  12.944  0.4156  0.0705  0.6994
19744TIP3    H180723   6.721   2.227  12.977  0.4154  0.8071 -0.1450
19744TIP3    H280724   6.660   2.160  12.855 -0.8396  2.2741 -0.3402
19745TIP3   OH280725   4.846   3.423   6.279 -0.3713 -0.1311 -0.1515
19745TIP3    H180726   4.825   3.426   6.372  0.5074 -0.2165  0.0546
19745TIP3    H280727   4.853   3.515   6.253  0.9663 -0.1217  0.2353
19746TIP3   OH280728   0.466   2.550   2.907  0.8390 -0.4262 -0.1918
19746TIP3    H180729   0.522   2.627   2.918 -0.5700  0.6610 -0.5007
19746TIP3    H280730   0.377   2.584   2.911  0.1821 -2.0882 -0.0393
19747TIP3   OH280731   3.631   3.041  14.850 -0.1068  0.2103  0.3704
19747TIP3    H180732   3.574   3.116  14.864 -0.7212 -0.2118  0.1639
19747TIP3    H280733   3.589   2.992  14.779 -0.1392 -0.7443  1.0358
19748TIP3   OH280734   3.718   2.408   5.858  0.2261  0.1096 -0.0522
19748TIP3    H180735   3.691   2.367   5.776 -1.5030  0.0511  0.5228
19748TIP3    H280736   3.808   2.376   5.872  0.5804  0.2214 -1.9557
19749TIP3   OH280737   3.113   4.647   5.176 -0.1482  0.4702  0.0733
19749TIP3    H180738   3.043   4.648   5.242 -0.7179  1.5434 -0.5350
19749TIP3    H280739   3.186   4.691   5.219 -0.7329  1.7545 -0.2236
19750TIP3   OH280740   3.767   1.243  15.719  0.2586 -0.2091 -0.1013
19750TIP3    H180741   3.837   1.281  15.772  1.4716 -2.6742  0.1620
19750TIP3    H280742   3.814   1.194  15.650 -1.2413 -0.3054 -1.0765
19751TIP3   OH280743   6.151   6.268   5.404 -1.1165  0.0158  0.6330
19751TIP3    H180744   6.136   6.190   5.457  0.2156 -1.6190 -1.3095
19751TIP3    H280745   6.246   6.271   5.392 -1.2383  1.3877 -0.1174
19752TIP3   OH280746   4.575   0.813  15.147 -0.1549 -0.1751  0.5797
19752TIP3    H180747   4.643   0.747  15.160 -2.0776 -2.3659 -0.1258
19752TIP3    H280748   4.503   0.784  15.203 -1.3215  0.8572 -0.3684
19753TIP3   OH280749   0.355   4.509   5.804  0.4319  0.0048  0.0042
19753TIP3    H180750   0.343   4.461   5.722 -1.0430  2.4197 -1.2652
19753TIP3    H280751   0.450   4.514   5.815  0.6265 -1.1606 -1.0449
19754TIP3   OH280752   6.625   4.890  12.922  0.9123  0.5934 -0.0400
19754TIP3    H180753   6.684   4.962  12.944  0.4478  1.5122 -1.8024
19754TIP3    H280754   6.682   4.823  12.884  0.9618  1.0511 -0.7595
19755TIP3   OH280755   3.245   4.071   0.653 -0.2072 -0.7492 -0.4856
19755TIP3    H180756   3.244   4.156   0.609 -1.5424 -1.8674 -2.7173
19755TIP3    H280757   3.204   4.087   0.738 -0.4838  0.8194 -0.8934
19756TIP3   OH280758   3.606   3.590  12.122 -0.0690 -0.1724  0.0401
19756TIP3    H180759   3.641   3.605  12.034 -0.8077 -0.0239 -0.2308
19756TIP3    H280760   3.553   3.510  12.114 -1.6056  0.8301 -0.0848
19757TIP3   OH280761   3.172   1.390  16.471  0.4993 -0.0255 -0.5163
19757TIP3    H180762   3.196   1.300  16.452 -0.4534  0.0066 -1.9417
19757TIP3    H280763   3.116   1.384  16.549  1.5383 -0.5157  0.2044
19758TIP3   OH280764   5.160   1.219   0.261  0.0719 -0.5209 -0.6245
19758TIP3    H180765   5.173   1.252   0.350  0.4722  1.4800 -1.4088
19758TIP3    H280766   5.124   1.131   0.274  0.3536 -0.3603  1.5132
19759TIP3   OH280767   5.268   2.623   0.093  0.0547 -0.0746  0.0977
19759TIP3    H180768   5.199   2.681   0.126  3.1730  2.6009  2.1696
19759TIP3    H280769   5.258   2.543   0.145 -0.4741  0.9007  1.5434
19760TIP3   OH280770   1.277   5.584   2.716 -0.5235  0.4743 -0.1021
19760TIP3    H180771   1.337   5.511   2.699  0.9186  2.1217 -2.5390
19760TIP3    H280772   1.310   5.624   2.797 -1.0341 -1.2660  0.9742
19761TIP3   OH280773   2.483   5.423  12.155  0.2137 -0.0721  0.5210
19761TIP3    H180774   2.518   5.485  12.219  0.0149  0.7006 -0.1182
19761TIP3    H280775   2.539   5.346  12.165  1.9239  1.0292 -0.2500
19762TIP3   OH280776   6.457   2.637  12.697 -0.5641 -0.1713  0.2632
19762TIP3    H180777   6.459   2.563  12.758  0.5468 -1.2912 -1.0862
19762TIP3    H280778   6.491   2.711  12.748 -1.0253 -0.7441  1.4218
19763TIP3   OH280779   5.570   1.198  15.170  0.0554 -0.3536 -0.4964
19763TIP3    H180780   5.650   1.218  15.218 -1.1464 -0.8682  1.7499
19763TIP3    H280781   5.500   1.201  15.235 -1.5431 -1.6338 -2.0736
19764TIP3   OH280782   6.639   4.210   0.514 -0.0495 -0.3693  0.0270
19764TIP3    H180783   6.668   4.298   0.490  0.7948 -0.5004  0.5378
19764TIP3    H280784   6.544   4.217   0.521  0.0383  0.5659  0.3470
19765TIP3   OH280785   0.601   3.031  16.108  0.3530  0.1281 -0.3263
19765TIP3    H180786   0.517   2.992  16.132 -1.7533  2.9752 -2.6775
19765TIP3    H280787   0.600   3.117  16.149  2.3871  0.0004  0.0286
19766TIP3   OH280788   4.395   2.361   1.930 -0.2299 -0.6497  0.1197
19766TIP3    H180789   4.466   2.403   1.881 -1.5063  0.3671 -0.9188
19766TIP3    H280790   4.439   2.305   1.993  1.5123  0.7105  0.1629
19767TIP3   OH280791   4.493   1.203   1.811  0.0971  0.0496  0.2811
19767TIP3    H180792   4.557   1.161   1.868  0.6391  1.2133  0.5509
19767TIP3    H280793   4.423   1.138   1.801  0.4898 -0.5629  1.4110
19768TIP3   OH280794   4.623   3.158  11.249  0.3366  0.1296 -0.3246
19768TIP3    H180795   4.682   3.107  11.192  0.3240  0.9695 -1.0966
19768TIP3    H280796   4.662   3.245  11.253 -0.2747  0.3930  0.0382
19769TIP3   OH280797   1.881   3.678  12.110  0.5813 -0.5551 -0.8407
19769TIP3    H180798   1.857   3.727  12.031  2.6492 -1.7364 -2.2580
19769TIP3    H280799   1.837   3.593  12.100 -2.0708  0.5147  1.0644
19770TIP3   OH280800   3.067   0.424  16.217 -0.4076  0.8007  0.8816
19770TIP3    H180801   3.092   0.377  16.297  1.3126  1.2062  0.5874
19770TIP3    H280802   3.132   0.398  16.152 -1.5965  0.7442 -0.3035
19771TIP3   OH280803   5.663   3.596   6.487 -0.0708  0.5181  0.2922
19771TIP3    H180804   5.610   3.615   6.410 -0.9850 -1.5580  0.3611
19771TIP3    H280805   5.683   3.503   6.480  2.6534  1.0084  0.8697
19772TIP3   OH280806   2.136   5.427  10.783 -0.3252  0.1907  0.1565
19772TIP3    H180807   2.167   5.337  10.783 -0.4979  0.1287  0.9781
19772TIP3    H280808   2.052   5.423  10.736 -0.8666 -0.2623  1.1640
19773TIP3   OH280809   3.620   4.673   1.409 -0.4138  0.4438 -0.2260
19773TIP3    H180810   3.659   4.758   1.426 -2.1080  0.9267  1.4221
19773TIP3    H280811   3.663   4.614   1.471  0.0781  0.3039 -0.7045
19774TIP3   OH280812   5.693   1.851   4.743  0.6896  0.0912 -0.3216
19774TIP3    H180813   5.651   1.936   4.733 -1.5850 -0.8170  1.0887
19774TIP3    H280814   5.623   1.793   4.771  2.0259 -2.4368 -1.9939
19775TIP3   OH280815   4.480   3.718   0.862  0.3643  0.2749 -0.3437
19775TIP3    H180816   4.557   3.673   0.899 -1.4982 -1.6026  1.3640
19775TIP3    H280817   4.456   3.782   0.929 -0.0196  0.3025 -0.5104
19776TIP3   OH280818   2.098   0.273  11.085 -0.3646 -0.1419  0.0195
19776TIP3    H180819   2.108   0.354  11.136  0.9057 -0.4450  0.2721
19776TIP3    H280820   2.186   0.237  11.080 -0.9669 -1.6878  0.1866
19777TIP3   OH280821   1.353   1.142   0.627 -0.7230 -0.3796  0.4583
19777TIP3    H180822   1.382   1.126   0.716  0.3878 -0.5784  0.0629
19777TIP3    H280823   1.293   1.217   0.634 -0.9462 -0.6406  1.4121
19778TIP3   OH280824   1.192   4.321   0.410  0.2768  0.2382 -0.4642
19778TIP3    H180825   1.193   4.230   0.441  0.0578  0.2675 -0.3702
19778TIP3    H280826   1.279   4.334   0.372  0.6934  0.3119  0.4885
19779TIP3   OH280827   2.432   1.328  16.579  0.2987  0.2401 -0.3139
19779TIP3    H180828   2.340   1.308  16.563  0.1726  1.6007 -1.4307
19779TIP3    H280829   2.478   1.246  16.564 -0.5846 -0.1173 -1.1001
19780TIP3   OH280830   4.302   2.873   1.361  0.0314 -0.2306 -0.5357
19780TIP3    H180831   4.255   2.790   1.366  1.5093 -1.0948 -0.7915
19780TIP3    H280832   4.307   2.893   1.268 -2.1802  1.2519 -0.3828
19781TIP3   OH280833   4.804   5.711  16.329 -0.5538  0.7658 -0.0309
19781TIP3    H180834   4.860   5.714  16.252 -0.1945  2.4619  0.2572
19781TIP3    H280835   4.860   5.739  16.401 -0.5701 -1.9132  1.0853
19782TIP3   OH280836   3.272   3.273  13.569 -0.4932  0.3744 -0.0094
19782TIP3    H180837   3.311   3.288  13.655 -1.0019 -0.2257  0.3199
19782TIP3    H280838   3.180   3.255  13.586 -0.3614 -0.9060 -0.5810
19783TIP3   OH280839   0.519   4.716  15.184 -0.1997  0.9305 -0.3957
19783TIP3    H180840   0.570   4.752  15.256  0.4899 -0.4777 -0.1717
19783TIP3    H280841   0.557   4.755  15.106  1.3704 -0.2733 -0.2444
19784TIP3   OH280842   3.822   6.488  14.683 -0.3333  0.9866  0.1017
19784TIP3    H180843   3.892   6.445  14.633  0.1978  0.9790  0.8296
19784TIP3    H280844   3.790   6.557  14.625  2.1695  2.7855  0.7898
19785TIP3   OH280845   1.029   5.087  12.821 -0.1849  0.3727 -0.2922
19785TIP3    H180846   1.088   5.079  12.745  2.0015 -1.1389  1.4753
19785TIP3    H280847   1.035   5.001  12.864  0.2743  1.8713  2.7321
19786TIP3   OH280848   4.735   2.276  16.268 -0.3041 -0.4582 -0.4405
19786TIP3    H180849   4.785   2.349  16.231 -0.1278  0.1746  1.0316
19786TIP3    H280850   4.785   2.198  16.245  1.0920  0.1304  0.5780
19787TIP3   OH280851   1.166   3.095  14.900 -0.9212  0.2777  0.2102
19787TIP3    H180852   1.141   3.129  14.814  0.9502  0.6072 -0.2377
19787TIP3    H280853   1.243   3.041  14.882  0.2197  1.3396  1.8367
19788TIP3   OH280854   3.663   3.280   2.695 -0.0245  0.2431  0.2896
19788TIP3    H180855   3.664   3.336   2.772 -0.4619  0.0110  0.4646
19788TIP3    H280856   3.617   3.201   2.723  1.8539 -0.8361  0.4766
19789TIP3   OH280857   4.853   3.569   3.748  0.3516 -0.3638  0.1105
19789TIP3    H180858   4.867   3.568   3.843 -1.0331 -3.3790  0.3668
19789TIP3    H280859   4.771   3.617   3.736  1.8750  2.3542  0.1382
19790TIP3   OH280860   6.503   5.497   3.345 -0.2559  0.6352 -0.1149
19790TIP3    H180861   6.504   5.588   3.315 -0.8264  0.6339 -0.1414
19790TIP3    H280862   6.594   5.479   3.370 -0.2325  1.3735  0.3653
19791TIP3   OH280863   0.614   1.960   2.376  0.6621 -0.6742 -0.2631
19791TIP3    H180864   0.710   1.959   2.378  0.7749  3.0749 -1.0388
19791TIP3    H280865   0.593   1.974   2.284 -0.4633  3.0466  0.4835
19792TIP3   OH280866   6.377   6.179  17.022  0.3401  0.7758 -0.2422
19792TIP3    H180867   6.425   6.150  17.100 -1.7592  0.3972  0.9593
19792TIP3    H280868   6.425   6.256  16.991  2.3754 -0.2864  0.2233
19793TIP3   OH280869   1.875   6.174  12.250 -0.2678 -0.2635 -0.3539
19793TIP3    H180870   1.963   6.149  12.223  0.2610  0.9661  0.2017
19793TIP3    H280871   1.862   6.131  12.334  1.1846  2.3679  1.2960
19794TIP3   OH280872   1.264   3.895  11.390 -0.8143 -0.0707 -0.5192
19794TIP3    H180873   1.325   3.902  11.317  0.9806  0.8861  1.0364
19794TIP3    H280874   1.190   3.845  11.355  0.0326  0.3279 -2.9565
19795TIP3   OH280875   4.471   2.385   6.039  0.1675  0.3427  0.6942
19795TIP3    H180876   4.491   2.408   6.130 -1.1333 -0.7460  1.2675
19795TIP3    H280877   4.423   2.302   6.045  2.5027 -1.1967 -1.1574
19796TIP3   OH280878   5.217   4.236   0.822  0.2374  0.4717  0.0015
19796TIP3    H180879   5.160   4.217   0.897  0.1190 -3.3850 -0.9797
19796TIP3    H280880   5.305   4.237   0.858  0.2237 -1.8727  0.1461
19797TIP3   OH280881   1.168   5.855   5.746  0.0742 -0.1598 -0.0552
19797TIP3    H180882   1.227   5.789   5.710 -1.5974 -1.2809 -0.7988
19797TIP3    H280883   1.223   5.907   5.805  2.0748 -0.4164 -1.6353
19798TIP3   OH280884   6.170   5.530  11.507 -0.3278  1.0868  0.1980
19798TIP3    H180885   6.101   5.538  11.441 -0.6462 -1.3873  0.1530
19798TIP3    H280886   6.249   5.561  11.463 -0.7199  0.3991 -1.0435
19799TIP3   OH280887   6.023   4.978   5.449 -0.3846 -0.1331 -0.0715
19799TIP3    H180888   6.052   4.953   5.537  3.0490 -0.6680 -1.2664
19799TIP3    H280889   5.992   5.068   5.459  2.4059  0.7424  1.2675
19800TIP3   OH280890   3.527   5.244  12.420  0.0731 -0.1421 -0.0927
19800TIP3    H180891   3.507   5.305  12.349 -0.5618  0.0403  0.2354
19800TIP3    H280892   3.614   5.209  12.399  1.1803  2.1048  0.5730
19801TIP3   OH280893   6.266   0.671  14.582  0.2828 -0.0271  0.3056
19801TIP3    H180894   6.308   0.587  14.567  2.3631  0.8507  1.0562
19801TIP3    H280895   6.244   0.703  14.495 -1.8608 -1.9861  0.0809
19802TIP3   OH280896   6.267   6.533   1.679 -0.2075  0.4546  0.3137
19802TIP3    H180897   6.323   6.456   1.678 -1.1187 -0.2278  0.5691
19802TIP3    H280898   6.248   6.551   1.587  1.3662  1.3901  0.1663
19803TIP3   OH280899   2.063   6.081   6.182  0.5711 -0.3854  0.4876
19803TIP3    H180900   2.042   6.169   6.151  0.2613 -1.4266 -2.3589
19803TIP3    H280901   2.140   6.094   6.238  0.8110  1.6286 -0.2533
19804TIP3   OH280902   2.384   1.213  15.138 -0.0163 -0.4218  0.7492
19804TIP3    H180903   2.301   1.260  15.127  0.8821  1.0258  0.1913
19804TIP3    H280904   2.368   1.127  15.098 -0.6758  0.4843 -0.9410
19805TIP3   OH280905   2.683   1.514  15.409  0.3218 -1.0029  0.5516
19805TIP3    H180906   2.629   1.509  15.331 -0.5340 -0.0084  1.0645
19805TIP3    H280907   2.707   1.423  15.428  1.1242 -1.1900 -1.2461
19806TIP3   OH280908   2.258   6.774  15.261  0.4884 -0.6387  0.5466
19806TIP3    H180909   2.273   6.690  15.304 -0.8431 -1.6668 -0.9529
19806TIP3    H280910   2.163   6.789  15.269  0.4130 -0.2517 -0.9499
19807TIP3   OH280911   6.789   2.119   6.467 -0.7642  0.0317  0.4739
19807TIP3    H180912   6.826   2.171   6.396  0.1730 -3.1665 -1.4772
19807TIP3    H280913   6.731   2.180   6.513 -0.3364  2.5703 -2.1722
19808TIP3   OH280914   5.422   1.732  15.098  0.1495 -0.1836 -0.2168
19808TIP3    H180915   5.510   1.751  15.130  0.1231 -0.1082 -0.1889
19808TIP3    H280916   5.383   1.677  15.165  0.9215 -2.0062 -1.2274
19809TIP3   OH280917   6.236   2.058   2.991 -0.9396 -0.2690  0.7584
19809TIP3    H180918   6.181   1.987   3.024 -0.8527 -1.6077 -1.9199
19809TIP3    H280919   6.318   2.016   2.965 -1.4686  0.5107 -2.3467
19810TIP3   OH280920   4.159   3.450  10.514 -0.5314  1.0776  0.0427
19810TIP3    H180921   4.193   3.513  10.578  0.5581  0.1967  0.3543
19810TIP3    H280922   4.208   3.469  10.434  0.9610 -0.3993  0.5785
19811TIP3   OH280923   2.534   0.137   1.861  0.3952 -0.4630 -0.5544
19811TIP3    H180924   2.545   0.232   1.859  3.1393 -0.7896 -2.7645
19811TIP3    H280925   2.575   0.110   1.943 -1.6686  0.3495  0.7958
19812TIP3   OH280926   0.011   3.248   3.303  0.0314 -0.0708  0.4218
19812TIP3    H180927   0.008   3.159   3.268  1.3878 -0.1968  0.6037
19812TIP3    H280928   0.099   3.257   3.339 -0.2637  1.1739  0.8673
19813TIP3   OH280929   1.197   2.438  13.059 -0.3930  0.2834 -0.7460
19813TIP3    H180930   1.166   2.348  13.063 -0.3303  0.2240 -1.4795
19813TIP3    H280931   1.128   2.485  13.013  0.4575  0.1982 -2.1572
19814TIP3   OH280932   1.042   1.716   5.744 -0.6573 -0.0641  0.0289
19814TIP3    H180933   1.071   1.743   5.657 -0.3480 -0.9799 -0.1640
19814TIP3    H280934   0.949   1.695   5.733 -0.1310 -2.2283 -0.5957
19815TIP3   OH280935   6.518   0.555  15.187 -0.5889  0.1016  0.4638
19815TIP3    H180936   6.462   0.627  15.214  0.0026  0.5339  0.5622
19815TIP3    H280937   6.502   0.545  15.093  0.7224  1.6235  0.0578
19816TIP3   OH280938   0.426   3.352  17.259 -0.4628 -0.1615  0.0929
19816TIP3    H180939   0.479   3.311  17.327  0.5367 -1.7270 -1.5663
19816TIP3    H280940   0.401   3.436  17.295  0.4666 -0.7567  2.1908
19817TIP3   OH280941   1.604   3.872   4.888  0.0043  0.0334 -0.3792
19817TIP3    H180942   1.556   3.820   4.823  0.4856 -0.1226 -0.6119
19817TIP3    H280943   1.536   3.905   4.946 -0.4196  0.0517 -0.8741
19818TIP3   OH280944   5.457   5.725  13.537  0.3459  0.3598  0.6746
19818TIP3    H180945   5.495   5.805  13.574 -0.0841  0.8994 -0.0476
19818TIP3    H280946   5.387   5.755  13.480  0.2777 -0.5302  0.2781
19819TIP3   OH280947   5.637   4.464   3.127  0.1912 -0.1607  0.4095
19819TIP3    H180948   5.718   4.421   3.153  0.2612  0.1291  0.6733
19819TIP3    H280949   5.568   4.416   3.174  0.0538 -1.4574 -1.0894
19820TIP3   OH280950   3.009   5.863  15.863  0.1579 -0.4658 -0.4634
19820TIP3    H180951   3.000   5.946  15.815 -0.9810 -0.8275 -0.8895
19820TIP3    H280952   2.919   5.840  15.887  0.7239 -0.1549  2.0903
19821TIP3   OH280953   2.883   1.331   3.568 -0.0103 -0.2225  0.6330
19821TIP3    H180954   2.888   1.300   3.478  0.4678 -0.7393  0.8309
19821TIP3    H280955   2.793   1.359   3.580 -0.6351 -2.1870  0.6528
19822TIP3   OH280956   2.394   2.705  13.670 -0.3448 -0.0152  0.0555
19822TIP3    H180957   2.322   2.686  13.609 -0.2840 -0.9779  0.2642
19822TIP3    H280958   2.367   2.661  13.751  0.2793 -0.0175  0.2587
19823TIP3   OH280959   1.868   6.249   6.402 -0.3172 -0.2923 -0.0004
19823TIP3    H180960   1.893   6.209   6.485  0.0999 -0.4779 -0.2170
19823TIP3    H280961   1.882   6.181   6.337  0.8791  0.3712 -0.4390
19824TIP3   OH280962   3.288   4.020  13.774 -0.3327 -0.3976 -0.0596
19824TIP3    H180963   3.220   4.030  13.841  0.0044  0.9056  0.0986
19824TIP3    H280964   3.242   3.981  13.699 -0.9445 -0.8433  0.5316
19825TIP3   OH280965   4.826   4.329  15.381  0.1377  0.6910  0.1043
19825TIP3    H180966   4.768   4.397  15.348 -0.7854 -0.6232 -1.0254
19825TIP3    H280967   4.772   4.278  15.441  0.1790 -0.3545 -0.7191
19826TIP3   OH280968   2.795   1.106  13.776  0.5826 -0.7608  0.0151
19826TIP3    H180969   2.867   1.164  13.799 -0.5226  0.6235  0.0382
19826TIP3    H280970   2.751   1.150  13.703 -0.8115 -1.1090  0.6213
19827TIP3   OH280971   4.652   2.744   1.885 -0.0852 -0.1402 -0.1667
19827TIP3    H180972   4.576   2.700   1.847 -0.5751  0.7709 -0.2431
19827TIP3    H280973   4.688   2.680   1.947 -0.3226 -0.9544 -0.8617
19828TIP3   OH280974   4.848   2.211   5.440  0.3285 -0.1422 -0.3716
19828TIP3    H180975   4.822   2.199   5.531  1.9880  1.1936  0.2932
19828TIP3    H280976   4.885   2.126   5.415 -1.8027 -1.0906 -0.3938
19829TIP3   OH280977   2.089   5.973  12.663 -0.0034  0.3699 -0.4787
19829TIP3    H180978   2.114   6.044  12.721  0.6592  0.0302 -0.3522
19829TIP3    H280979   2.167   5.955  12.611 -0.3696  0.1790 -0.9734
19830TIP3   OH280980   2.958   0.560  14.540 -0.0776  0.5462  0.3839
19830TIP3    H180981   2.916   0.558  14.626 -1.0258  0.5164 -0.0786
19830TIP3    H280982   2.951   0.470  14.508 -1.1148  0.8967 -0.3891
19831TIP3   OH280983   6.634   6.530  16.505  0.0153  0.7491  0.5912
19831TIP3    H180984   6.639   6.539  16.410 -1.6830 -1.4871  0.2258
19831TIP3    H280985   6.700   6.464  16.526 -0.5539  0.2250  0.7633
19832TIP3   OH280986   5.127   4.698  12.026  0.2336 -0.0841 -0.2722
19832TIP3    H180987   5.202   4.668  12.078  1.4450  1.8330 -0.8750
19832TIP3    H280988   5.085   4.617  11.996  0.6524 -1.2151  2.0209
19833TIP3   OH280989   6.652   6.273  16.901 -0.1179 -0.5608  0.1982
19833TIP3    H180990   6.649   6.365  16.928 -0.8945 -0.8951  1.2703
19833TIP3    H280991   6.611   6.272  16.815 -0.3402  0.0552  0.2903
19834TIP3   OH280992   4.959   5.787  16.053 -0.3506 -0.4529 -0.4562
19834TIP3    H180993   4.985   5.697  16.072 -0.4585 -0.1971  0.9466
19834TIP3    H280994   4.996   5.839  16.124  0.1133  0.6946 -1.4992
19835TIP3   OH280995   0.737   4.010  11.928 -0.2184  0.1523  0.1777
19835TIP3    H180996   0.724   3.922  11.892 -3.1148  0.9028 -0.7010
19835TIP3    H280997   0.716   4.001  12.021 -0.7660 -0.0223  0.0357
19836TIP3   OH280998   5.813   6.189  14.237 -0.3173 -0.3064 -0.1592
19836TIP3    H180999   5.790   6.102  14.204  0.4355 -0.4062 -0.4330
19836TIP3    H281000   5.817   6.244  14.159 -1.8883  0.2418  0.1220
19837TIP3   OH281001   3.124   6.438   0.528  0.3560  0.1777  0.2464
19837TIP3    H181002   3.037   6.402   0.547 -0.1291  0.8050 -0.7481
19837TIP3    H281003   3.136   6.424   0.435  1.3391  0.0722  0.3906
19838TIP3   OH281004   6.814   0.474   3.628  0.1073  0.3864 -0.1810
19838TIP3    H181005   6.899   0.494   3.668 -0.2022  1.6426 -0.1182
19838TIP3    H281006   6.767   0.557   3.629 -1.4174 -0.4620  0.4502
19839TIP3   OH281007   3.164   4.454  11.474 -0.0006 -0.5065  0.1455
19839TIP3    H181008   3.170   4.502  11.392 -0.9461 -1.6380 -0.5986
19839TIP3    H281009   3.207   4.511  11.538  0.7655  0.3770 -1.1241
19840TIP3   OH281010   3.986   3.077   4.574  0.2556 -0.1885  0.8237
19840TIP3    H181011   4.028   3.024   4.641  2.6425 -0.9069 -1.1521
19840TIP3    H281012   4.047   3.149   4.559 -0.9383  0.7637  0.4417
19841TIP3   OH281013   1.343   3.594   3.104 -0.1284 -0.1028  0.0341
19841TIP3    H181014   1.304   3.513   3.135 -1.0714  0.7252  1.0450
19841TIP3    H281015   1.326   3.594   3.009  0.5541 -1.4347 -0.0947
19842TIP3   OH281016   0.937   4.253  11.847  0.0238  0.4987 -0.2831
19842TIP3    H181017   1.002   4.216  11.788  1.0187 -0.5967  1.4729
19842TIP3    H281018   0.987   4.307  11.908 -0.6817 -0.4505  1.1648
19843TIP3   OH281019   0.977   0.907   5.712  0.8426 -0.7897 -0.0128
19843TIP3    H181020   0.918   0.979   5.689  0.6027 -0.7725  0.6615
19843TIP3    H281021   1.059   0.927   5.666  1.2157  0.6100  1.2419
19844TIP3   OH281022   6.735   1.335   5.910 -0.6496 -0.3082  0.2383
19844TIP3    H181023   6.667   1.269   5.923 -0.5009 -0.7402 -1.1756
19844TIP3    H281024   6.798   1.294   5.851 -0.1108  0.7892  0.0415
19845TIP3   OH281025   5.874   5.952   0.426  0.6253 -0.4898 -0.3938
19845TIP3    H181026   5.907   5.946   0.515  0.4410 -1.1017 -0.3693
19845TIP3    H281027   5.912   5.877   0.381  0.8307 -0.1036 -0.8686
19846TIP3   OH281028   1.722   6.778   6.054 -0.1267 -0.1313  0.0745
19846TIP3    H181029   1.639   6.816   6.083 -1.8828 -2.2721 -1.9300
19846TIP3    H281030   1.734   6.701   6.108  0.6926  0.3128  0.5268
19847TIP3   OH281031   1.989   3.407  13.893 -0.7633 -0.2050 -0.1645
19847TIP3    H181032   2.080   3.425  13.870  0.2400 -2.1716  2.0506
19847TIP3    H281033   1.941   3.414  13.810  1.7319 -1.1767 -1.7467
19848TIP3   OH281034   3.367   6.474   4.479  0.3913 -0.5081  0.2579
19848TIP3    H181035   3.368   6.412   4.406 -1.3326 -0.7402  0.3989
19848TIP3    H281036   3.305   6.542   4.451 -0.5013 -0.7557  1.6122
19849TIP3   OH281037   2.038   3.592  15.743  0.2472 -0.0132  0.5512
19849TIP3    H181038   2.026   3.517  15.801  1.0431  0.1114  0.8809
19849TIP3    H281039   2.039   3.554  15.655 -1.0432 -0.1922  0.6041
19850TIP3   OH281040   4.336   2.017  14.831  0.0568  0.4644 -0.4879
19850TIP3    H181041   4.291   1.999  14.748 -1.4484  0.7868  0.2392
19850TIP3    H281042   4.302   2.102  14.859 -2.7290 -1.5107  2.5538
19851TIP3   OH281043   1.260   1.787   0.797 -0.1536  0.0149  0.0831
19851TIP3    H181044   1.166   1.773   0.783 -0.2044 -0.9237  1.2690
19851TIP3    H281045   1.298   1.700   0.787  0.6260  0.4402 -0.6498
19852TIP3   OH281046   6.092   1.378   0.531  0.1307 -0.9034 -0.0146
19852TIP3    H181047   6.092   1.283   0.538  0.4967 -0.8191  1.1531
19852TIP3    H281048   6.077   1.409   0.620 -1.7879  0.1176 -0.6657
19853TIP3   OH281049   4.510   4.431  10.326  0.1113  0.1101  0.5954
19853TIP3    H181050   4.591   4.402  10.287 -0.1319 -0.2236  0.3390
19853TIP3    H281051   4.516   4.405  10.418 -0.3398 -1.2416  0.2479
19854TIP3   OH281052   3.673   0.562   3.871 -0.7502 -0.2858 -0.6108
19854TIP3    H181053   3.582   0.555   3.843 -1.1021  0.2955  0.3816
19854TIP3    H281054   3.714   0.481   3.838 -1.3997 -0.1307 -1.8472
19855TIP3   OH281055   1.460   0.090  12.152  0.4389  0.2781 -0.9516
19855TIP3    H181056   1.395   0.019  12.152  0.4871  0.2338 -1.0245
19855TIP3    H281057   1.410   0.168  12.175 -0.2135  0.7605 -3.8066
19856TIP3   OH281058   5.726   0.806  15.416  0.0999 -0.3331 -0.1404
19856TIP3    H181059   5.810   0.767  15.391  1.6780  1.5494  2.0331
19856TIP3    H281060   5.691   0.841  15.334  2.6874  1.1632 -0.6643
19857TIP3   OH281061   0.912   1.885   2.798  0.6746  0.0588  0.2976
19857TIP3    H181062   0.890   1.953   2.862 -0.8295  0.3159 -0.4733
19857TIP3    H281063   0.994   1.848   2.830  0.7908  1.2991  1.4797
19858TIP3   OH281064   3.446   2.725  16.711 -0.4691 -0.1894  0.5242
19858TIP3    H181065   3.427   2.788  16.781  3.4090  1.7360  0.0018
19858TIP3    H281066   3.501   2.660  16.753 -1.7320 -1.4627  0.2380
19859TIP3   OH281067   2.940   3.735  11.817  0.0750  0.0654 -0.2986
19859TIP3    H181068   2.942   3.756  11.724 -0.0787 -1.2096 -0.5990
19859TIP3    H281069   2.987   3.806  11.859  1.4690 -0.1294 -1.5018
19860TIP3   OH281070   3.945   5.698   0.048 -0.3699 -0.9812  0.0396
19860TIP3    H181071   3.968   5.625  -0.010 -0.7270 -0.2286 -1.0764
19860TIP3    H281072   4.002   5.687   0.124  1.2718 -1.0839 -1.1614
19861TIP3   OH281073   6.147   3.063  14.365 -0.2612 -0.2515 -0.8056
19861TIP3    H181074   6.066   3.013  14.372  0.3835 -1.2288 -0.3141
19861TIP3    H281075   6.217   2.998  14.373  0.5942  0.8001  0.4804
19862TIP3   OH281076   1.389   0.878   3.347 -0.2364 -0.2216 -0.0842
19862TIP3    H181077   1.428   0.791   3.352  0.5134  0.0350 -1.4534
19862TIP3    H281078   1.318   0.876   3.412 -1.3440 -2.4120 -1.3208
19863TIP3   OH281079   0.183   0.558   1.713 -0.9168  0.1552 -0.3621
19863TIP3    H181080   0.117   0.504   1.669 -0.1894 -1.5453  0.6232
19863TIP3    H281081   0.258   0.501   1.726 -0.6292  0.9781  1.9294
19864TIP3   OH281082   5.062   4.195  12.679 -0.0126 -0.2382 -0.3070
19864TIP3    H181083   5.020   4.111  12.697  0.4721 -0.1028  1.4912
19864TIP3    H281084   5.094   4.187  12.589 -1.0418 -1.5166 -0.5734
19865TIP3   OH281085   0.033   3.514   4.906  0.6965  1.0557  0.3560
19865TIP3    H181086  -0.050   3.560   4.898  0.2491  0.3334  0.7620
19865TIP3    H281087   0.088   3.551   4.837 -0.5228  0.3441 -1.0264
19866TIP3   OH281088   0.758   3.413  15.314  0.1144 -0.3218 -0.4050
19866TIP3    H181089   0.780   3.368  15.232  0.9522 -1.1227  0.2499
19866TIP3    H281090   0.842   3.442  15.349 -0.1677 -0.5850  0.5121
19867TIP3   OH281091   2.837   2.070  11.834  0.0146  0.1224  0.3113
19867TIP3    H181092   2.755   2.070  11.883  0.1417 -0.7213  0.5354
19867TIP3    H281093   2.815   2.029  11.751 -0.0713  1.0333 -0.1156
19868TIP3   OH281094   3.677   6.287  15.344  0.2580  0.5168 -0.1628
19868TIP3    H181095   3.689   6.257  15.254  0.7802 -1.8700  0.6510
19868TIP3    H281096   3.762   6.322  15.370  0.5952 -0.3795 -0.0490
19869TIP3   OH281097   5.650   4.836   0.404 -0.2699 -0.0738 -0.1215
19869TIP3    H181098   5.577   4.774   0.408  0.7418 -1.4693 -1.9662
19869TIP3    H281099   5.663   4.852   0.311  1.5816  0.3553  0.1780
19870TIP3   OH281100   4.933   5.474   5.242  0.0946 -0.4026  0.6481
19870TIP3    H181101   4.968   5.498   5.157 -0.2671 -0.8627  0.3600
19870TIP3    H281102   4.967   5.385   5.257  0.0647 -0.3661  0.9276
19871TIP3   OH281103   4.184   2.342   2.946  0.4984 -0.3602 -0.3065
19871TIP3    H181104   4.146   2.351   2.858  0.8845 -0.0952 -0.4483
19871TIP3    H281105   4.227   2.426   2.962 -1.5431  0.4429  1.0957
19872TIP3   OH281106   0.007   4.623   6.105 -0.1252 -0.6371 -0.1402
19872TIP3    H181107   0.056   4.544   6.127 -0.9589 -0.8456  1.0090
19872TIP3    H281108  -0.049   4.639   6.181  0.2536  1.2339 -0.2233
19873TIP3   OH281109   3.809   6.314  10.913  0.3157 -0.3597  0.2768
19873TIP3    H181110   3.903   6.329  10.916  0.2617  0.2600 -0.6804
19873TIP3    H281111   3.776   6.383  10.855 -0.5839 -1.2281 -0.2543
19874TIP3   OH281112   3.803   4.856  12.163 -0.5003 -0.8025 -0.4425
19874TIP3    H181113   3.877   4.895  12.116 -1.4464  1.2079 -0.3101
19874TIP3    H281114   3.837   4.773  12.196  1.4828 -0.2414 -0.9952
19875TIP3   OH281115   2.255   6.095  15.785  0.3153 -0.1681 -0.5691
19875TIP3    H181116   2.285   6.139  15.706  1.0408 -1.1380 -0.8355
19875TIP3    H281117   2.162   6.078  15.769  0.3850 -0.0696 -1.0752
19876TIP3   OH281118   4.508   2.796  16.047  0.0140 -0.0665  0.0311
19876TIP3    H181119   4.554   2.823  15.968 -1.4447 -0.2008 -0.8752
19876TIP3    H281120   4.445   2.866  16.064  1.1444  0.5669  1.7891
19877TIP3   OH281121   2.328   6.630   0.148  0.0975 -0.2886  0.6467
19877TIP3    H181122   2.256   6.616   0.209 -1.3086  1.2854 -0.6379
19877TIP3    H281123   2.320   6.721   0.121 -0.1675 -1.3013 -2.9599
19878TIP3   OH281124   6.684   5.211   4.275 -0.2393 -0.2643 -0.4545
19878TIP3    H181125   6.623   5.151   4.319  0.9506 -0.6302  0.7208
19878TIP3    H281126   6.740   5.243   4.345  1.0512 -0.0863 -1.5564
19879TIP3   OH281127   6.471   3.652  16.109 -0.0294 -0.8238 -0.0952
19879TIP3    H181128   6.379   3.672  16.127  0.3536  0.4750  0.5225
19879TIP3    H281129   6.470   3.602  16.027 -1.2407 -0.2466 -0.4421
19880TIP3   OH281130   6.091   4.807  12.763  0.0774  0.0698 -0.0368
19880TIP3    H181131   6.157   4.739  12.752  0.1213  0.5914 -3.9179
19880TIP3    H281132   6.024   4.767  12.818  1.2179 -2.2999 -0.3019
19881TIP3   OH281133   1.911   3.204   3.278  0.0023 -0.5366  0.1118
19881TIP3    H181134   1.989   3.187   3.331  0.3467  0.1531 -0.1755
19881TIP3    H281135   1.938   3.182   3.188 -0.2990 -0.8139  0.0887
19882TIP3   OH281136   4.743   4.476   0.209  0.2588  0.1232 -0.2294
19882TIP3    H181137   4.781   4.396   0.246  2.7533  1.2924 -0.1956
19882TIP3    H281138   4.683   4.444   0.142  0.4303 -1.8186  0.5000
19883TIP3   OH281139   6.393   0.213   1.908 -0.1821 -0.1917 -0.2983
19883TIP3    H181140   6.366   0.211   2.000  0.2714 -1.9572 -0.1953
19883TIP3    H281141   6.311   0.221   1.859 -0.4412  0.5344  0.2375
19884TIP3   OH281142   1.529   0.066   4.321  0.1127 -0.5720  0.0407
19884TIP3    H181143   1.513   0.160   4.323  3.0046 -0.0601  1.4432
19884TIP3    H281144   1.507   0.036   4.409  2.0744 -0.6385  0.5461
19885TIP3   OH281145   4.018   0.291   1.952  0.0936 -0.1395  0.0253
19885TIP3    H181146   4.082   0.245   1.898  0.8453  0.8936  0.0335
19885TIP3    H281147   4.068   0.326   2.025 -0.4048  0.9974 -0.1698
19886TIP3   OH281148   2.041   2.730   4.507 -0.1427 -0.3789 -0.4288
19886TIP3    H181149   2.111   2.746   4.444 -0.6556 -0.3345 -0.9877
19886TIP3    H281150   2.042   2.635   4.520 -0.4751 -0.4646 -1.0143
19887TIP3   OH281151   6.753   3.279   2.893  0.6849 -0.2037  0.6822
19887TIP3    H181152   6.687   3.211   2.907  1.4842 -1.2082 -0.2364
19887TIP3    H281153   6.823   3.234   2.845  1.0140  1.3855 -0.3808
19888TIP3   OH281154   2.222   5.380  14.351  0.1058  0.4166 -0.0133
19888TIP3    H181155   2.205   5.415  14.263  0.6145  0.6173 -0.0296
19888TIP3    H281156   2.262   5.452  14.399 -0.1918  0.3129  0.3935
19889TIP3   OH281157   3.025   5.082   3.031 -0.2136  0.5882 -0.1870
19889TIP3    H181158   3.084   5.010   3.008  0.6082  1.3140 -0.3822
19889TIP3    H281159   2.941   5.040   3.048  0.5768 -0.5543  0.9387
19890TIP3   OH281160   1.018   0.652  14.817  0.1868 -0.5504  0.4062
19890TIP3    H181161   0.998   0.575  14.765  0.3356 -0.2294 -0.1335
19890TIP3    H281162   0.943   0.710  14.804 -0.0361 -0.6948  0.9998
19891TIP3   OH281163   6.062   5.993   3.104 -0.1887 -0.2795  0.2311
19891TIP3    H181164   6.033   5.950   3.023 -1.5789 -0.0704  0.6068
19891TIP3    H281165   6.140   6.042   3.078 -0.3390 -0.6129 -0.8866
19892TIP3   OH281166   0.707   2.539  13.655  0.0965  0.0547  0.0907
19892TIP3    H181167   0.620   2.551  13.616 -0.4838 -1.5258  0.8496
19892TIP3    H281168   0.729   2.448  13.637 -0.0936 -0.6806  3.1637
19893TIP3   OH281169   4.234   6.001   2.554  0.0203 -0.6187  0.1964
19893TIP3    H181170   4.232   5.949   2.473 -1.3482 -0.1804 -0.0512
19893TIP3    H281171   4.174   5.956   2.613 -0.5529  0.2345  0.2624
19894TIP3   OH281172   5.613   0.747   4.803 -0.1191 -0.1126 -0.6500
19894TIP3    H181173   5.668   0.731   4.727 -1.7006 -1.9064 -1.4572
19894TIP3    H281174   5.616   0.666   4.853 -2.1694 -0.3100 -0.8130
19895TIP3   OH281175   0.758   0.348  11.322 -0.5009 -0.3868 -0.1736
19895TIP3    H181176   0.774   0.441  11.307  1.4887 -0.3159  2.0078
19895TIP3    H281177   0.721   0.344  11.411 -2.3634 -1.5525 -0.9541
19896TIP3   OH281178   4.672   4.369  14.531 -0.2389  0.0253 -0.4198
19896TIP3    H181179   4.655   4.379  14.624 -2.3753 -0.2306 -0.7728
19896TIP3    H281180   4.634   4.446  14.490 -0.2534 -0.3761 -1.1832
19897TIP3   OH281181   5.211   3.999   3.946 -0.2387  0.1166  0.4012
19897TIP3    H181182   5.285   4.046   3.985 -0.6609  2.8037 -1.8385
19897TIP3    H281183   5.252   3.927   3.898  0.6358 -0.4072  1.8941
19898TIP3   OH281184   4.503   4.368  16.629 -0.2709  0.2277 -0.2262
19898TIP3    H181185   4.512   4.318  16.710 -0.8583  0.6219  0.0882
19898TIP3    H281186   4.587   4.414  16.619 -0.2321  0.2471  0.2059
19899TIP3   OH281187   2.004   5.392  11.995 -0.6800  0.9423 -0.1985
19899TIP3    H181188   2.043   5.399  11.907 -0.8989  1.1155 -0.2853
19899TIP3    H281189   2.060   5.330  12.041 -0.5715  0.8363 -0.4672
19900TIP3   OH281190   2.792   3.941   2.210  0.3679  0.3669  0.2854
19900TIP3    H181191   2.712   3.948   2.263  0.0669  0.0226 -0.1238
19900TIP3    H281192   2.843   3.872   2.252  0.6169  0.8382  0.7623
19901TIP3   OH281193   1.079   2.876   3.703 -0.0431  0.0231  0.6471
19901TIP3    H181194   0.995   2.831   3.712 -0.1839  0.3874  1.1736
19901TIP3    H281195   1.088   2.927   3.784  0.6029  0.1204  0.5162
19902TIP3   OH281196   2.684   3.029   3.072 -0.0135 -0.3770  0.4370
19902TIP3    H181197   2.729   3.024   2.988 -2.6741  1.1085 -1.1543
19902TIP3    H281198   2.754   3.043   3.136  2.2645 -3.7076 -1.2163
19903TIP3   OH281199   3.714   3.588  11.102  0.1452  0.1332 -0.5973
19903TIP3    H181200   3.698   3.678  11.075 -0.7398 -0.2674 -1.4627
19903TIP3    H281201   3.681   3.535  11.029  1.6841 -0.8559 -0.6027
19904TIP3   OH281202   2.353   0.130  15.903 -0.5166  0.0078  0.0479
19904TIP3    H181203   2.419   0.199  15.898 -2.0163  1.4040 -1.2394
19904TIP3    H281204   2.403   0.049  15.914  1.5481  0.7519 -3.2225
19905TIP3   OH281205   4.205   3.144  12.861  0.3188 -0.2869  0.2394
19905TIP3    H181206   4.282   3.146  12.805  1.4995  0.7626  1.8586
19905TIP3    H281207   4.219   3.069  12.919  0.7699  0.6979  1.4189
19906TIP3   OH281208   5.962   5.946   2.850  0.4436  0.0505 -0.0510
19906TIP3    H181209   5.972   5.907   2.763  0.3836 -0.6863  0.2780
19906TIP3    H281210   5.876   5.989   2.847  1.4811  2.1390 -1.1874
19907TIP3   OH281211   5.905   3.189  12.664  0.3196 -0.7427 -0.1169
19907TIP3    H181212   5.955   3.261  12.625  2.2456 -1.4874  0.9396
19907TIP3    H281213   5.878   3.221  12.749 -1.2734 -0.2418 -0.7931
19908TIP3   OH281214   3.028   2.303  11.965 -0.0656 -0.1058  0.0132
19908TIP3    H181215   3.002   2.256  12.045 -0.9511  1.5703  0.7399
19908TIP3    H281216   3.016   2.239  11.895  0.0684 -1.3945  1.1441
19909TIP3   OH281217   1.015   4.041   3.617  0.0310  0.3843 -0.4418
19909TIP3    H181218   1.060   4.077   3.694  1.1410 -0.7162 -0.5733
19909TIP3    H281219   1.080   3.987   3.574 -1.5230 -1.5212 -0.4471
19910TIP3   OH281220   2.239   1.748  15.173  0.4425 -0.2858 -0.3055
19910TIP3    H181221   2.204   1.818  15.228 -1.9110 -1.0376 -0.7707
19910TIP3    H281222   2.231   1.669  15.227  0.2335 -0.6624 -0.8817
19911TIP3   OH281223   1.812   4.620  15.896 -0.3340 -0.2199 -0.4474
19911TIP3    H181224   1.760   4.589  15.822 -1.2467  0.2409  0.0041
19911TIP3    H281225   1.870   4.687  15.858 -1.0456  0.2673 -0.6739
19912TIP3   OH281226   1.853   3.484  11.376 -0.3615  0.8775  0.2176
19912TIP3    H181227   1.843   3.515  11.466 -1.0078  1.2240  0.0289
19912TIP3    H281228   1.769   3.503  11.335 -0.0329  0.8083 -0.4850
19913TIP3   OH281229   5.843   5.880  16.341  0.1735 -0.0651 -0.1368
19913TIP3    H181230   5.802   5.961  16.372 -2.0211 -2.4256  3.5390
19913TIP3    H281231   5.918   5.867  16.399  0.0872 -1.0012 -0.2188
19914TIP3   OH281232   5.666   2.718   4.689 -0.1471 -0.4550 -0.4031
19914TIP3    H181233   5.614   2.771   4.628 -0.7940 -0.0821  0.4630
19914TIP3    H281234   5.743   2.693   4.638 -0.0133  0.9958 -0.9523
19915TIP3   OH281235   5.396   4.955  13.069 -0.1791  0.2330  0.5576
19915TIP3    H181236   5.437   4.879  13.109  0.6544  1.4042  1.9679
19915TIP3    H281237   5.418   5.028  13.126  0.6061  1.8865 -1.7604
19916TIP3   OH281238   4.146   6.519   0.221 -0.3497  0.4776  0.2319
19916TIP3    H181239   4.182   6.443   0.175 -0.1430  1.5613 -1.4048
19916TIP3    H281240   4.145   6.492   0.313 -0.4986 -1.6021 -0.3447
19917TIP3   OH281241   0.503   3.514   3.036 -0.5585 -0.1606  0.5108
19917TIP3    H181242   0.563   3.572   2.988  0.4446 -1.1775  0.5260
19917TIP3    H281243   0.558   3.474   3.104 -1.1424 -1.4707  0.2217
19918TIP3   OH281244   1.568   4.507  15.295 -0.0257  0.1851 -0.0540
19918TIP3    H181245   1.544   4.422  15.257  1.3836 -0.4969  0.5773
19918TIP3    H281246   1.609   4.555  15.223  2.3037 -0.9651  0.4951
19919TIP3   OH281247   5.781   1.829  10.832  0.3567 -0.1161  0.6302
19919TIP3    H181248   5.836   1.892  10.879  0.8614  0.0602 -0.1803
19919TIP3    H281249   5.836   1.751  10.823  0.2574 -0.1574  0.3611
19920TIP3   OH281250   6.184   4.419   3.041 -0.8305  0.3700  0.0254
19920TIP3    H181251   6.224   4.464   3.116 -0.1436  0.4264 -0.3757
19920TIP3    H281252   6.222   4.331   3.043 -0.6571  0.4373 -0.3861
19921TIP3   OH281253   0.770   6.013   0.287  0.0233 -0.1430 -0.3405
19921TIP3    H181254   0.821   5.933   0.279  0.3265 -0.0271  0.4063
19921TIP3    H281255   0.832   6.083   0.266  0.9629  0.2020  3.3967
19922TIP3   OH281256   6.458   0.518   4.129 -0.2103 -0.6394  0.4806
19922TIP3    H181257   6.549   0.523   4.100  0.0522 -1.8707  1.0916
19922TIP3    H281258   6.421   0.443   4.083 -1.0499  0.0847 -0.0723
19923TIP3   OH281259   2.117   3.023   4.658  0.5211  0.1768 -0.3294
19923TIP3    H181260   2.051   3.051   4.720  0.4162  0.1154 -0.4139
19923TIP3    H281261   2.087   3.055   4.573 -0.3018 -1.3518 -0.6444
19924TIP3   OH281262   3.066   2.059   2.048 -0.6037  0.3484 -0.2882
19924TIP3    H181263   3.067   2.122   1.976  1.0613  0.6228 -0.0573
19924TIP3    H281264   3.146   2.008   2.036 -0.5022  0.1384  1.1326
19925TIP3   OH281265   5.594   3.488  14.188 -0.5317 -0.2987  0.6549
19925TIP3    H181266   5.558   3.399  14.186 -0.8846 -0.1825  1.6820
19925TIP3    H281267   5.565   3.524  14.271  2.4229 -0.4100  1.8084
19926TIP3   OH281268   3.534   4.985   3.628 -0.4915 -0.2012  0.5114
19926TIP3    H181269   3.517   4.979   3.722  1.0751 -1.0116  0.7628
19926TIP3    H281270   3.514   5.076   3.605 -2.9100 -0.5293  1.1951
19927TIP3   OH281271   1.556   6.270  16.063 -0.4324 -0.5002  0.5501
19927TIP3    H181272   1.570   6.342  16.001 -1.5058 -1.8794 -1.3510
19927TIP3    H281273   1.475   6.294  16.109 -0.3516 -0.1006  0.4851
19928TIP3   OH281274   4.426   1.427  15.998 -0.0276 -0.2784 -0.0988
19928TIP3    H181275   4.470   1.500  15.956  1.2969 -0.3403  1.1439
19928TIP3    H281276   4.385   1.379  15.926  0.7369  0.5827 -1.1169
19929TIP3   OH281277   3.373   2.601  13.941  0.0079 -0.4726 -0.3096
19929TIP3    H181278   3.385   2.642  13.855 -0.3780  2.5579  1.0042
19929TIP3    H281279   3.460   2.601  13.980 -0.1672  0.0629  0.0911
19930TIP3   OH281280   5.596   2.117  14.165 -0.6972 -0.6229 -0.5961
19930TIP3    H181281   5.561   2.121  14.076 -2.2831  0.5673  0.0548
19930TIP3    H281282   5.545   2.048  14.208 -1.9034  0.7459  0.1992
19931TIP3   OH281283   3.546   3.732  16.255 -0.1981  0.5127  0.1639
19931TIP3    H181284   3.460   3.718  16.214 -0.5763  0.5342  0.9432
19931TIP3    H281285   3.527   3.780  16.336  0.7002  1.9216 -0.4362
19932TIP3   OH281286   1.187   2.143   1.363 -0.0316 -0.3604  0.1595
19932TIP3    H181287   1.128   2.126   1.437  1.0863  1.0615  1.4237
19932TIP3    H281288   1.204   2.237   1.369  1.4424 -0.5613 -0.8818
19933TIP3   OH281289   5.780   3.519   0.064  0.1230 -0.5039  0.3634
19933TIP3    H181290   5.741   3.484  -0.016 -0.5789  0.6331  0.1948
19933TIP3    H281291   5.719   3.495   0.134 -0.9120  1.2781  0.0989
19934TIP3   OH281292   6.707   5.196   3.377  0.2300  0.3673  0.0547
19934TIP3    H181293   6.676   5.250   3.304  2.0441  0.4823 -0.6520
19934TIP3    H281294   6.644   5.125   3.383  0.7532 -0.3444 -2.4800
19935TIP3   OH281295   5.599   5.188   5.805 -0.2035 -0.2584  0.0800
19935TIP3    H181296   5.543   5.264   5.820 -0.5468 -0.6476  0.8333
19935TIP3    H281297   5.588   5.135   5.884 -1.0058 -1.7372 -1.0181
19936TIP3   OH281298   0.922   0.244  15.631  0.4347  0.0914  0.5090
19936TIP3    H181299   0.864   0.226  15.705  0.5858 -0.5831  0.4618
19936TIP3    H281300   0.938   0.339  15.636  1.9740 -0.2467  2.4545
19937TIP3   OH281301   0.391   2.260  11.395 -0.0481  0.3413  0.2781
19937TIP3    H181302   0.455   2.303  11.338  0.0490 -1.2996 -0.8842
19937TIP3    H281303   0.419   2.281  11.484  0.8799  1.3701 -0.2468
19938TIP3   OH281304   4.463   0.430   5.233 -0.3565 -0.0621 -0.2801
19938TIP3    H181305   4.540   0.474   5.196 -0.7494  1.5361  0.7979
19938TIP3    H281306   4.439   0.366   5.166  0.4363  1.0983 -1.7074
19939TIP3   OH281307   1.935   4.134  14.111  0.0840 -0.6300  0.3357
19939TIP3    H181308   1.980   4.122  14.027  2.4780 -0.6925  1.5775
19939TIP3    H281309   2.006   4.143  14.175 -1.6874  1.2897  2.1077
19940TIP3   OH281310   6.191   1.939   4.731  0.5415 -0.9352  0.5820
19940TIP3    H181311   6.138   1.954   4.653  2.3230 -1.6397 -0.8082
19940TIP3    H281312   6.130   1.905   4.796 -0.9493 -0.4279 -0.5315
19941TIP3   OH281313   3.146   3.165  11.385  0.8011  0.3343  0.0161
19941TIP3    H181314   3.060   3.202  11.404 -0.5106 -0.8464 -3.3051
19941TIP3    H281315   3.129   3.072  11.372  2.8531 -0.1833  0.8764
19942TIP3   OH281316   2.193   4.718   1.795 -0.3539  0.3497 -0.1572
19942TIP3    H181317   2.235   4.774   1.730  0.4426  0.4244  0.4178
19942TIP3    H281318   2.264   4.662   1.829 -0.2992  1.7253  2.1317
19943TIP3   OH281319   6.693   1.073  13.455 -0.1307 -0.0901 -0.1452
19943TIP3    H181320   6.654   1.031  13.531  0.4771  0.3257  0.4075
19943TIP3    H281321   6.708   1.002  13.393 -1.0134 -0.3692 -0.0443
19944TIP3   OH281322   6.266   5.772  13.586  0.3667 -0.4073  0.5763
19944TIP3    H181323   6.220   5.821  13.653 -0.0801  0.9472 -0.7036
19944TIP3    H281324   6.207   5.771  13.511  2.3525  1.3269 -1.0831
19945TIP3   OH281325   1.145   2.379   3.809 -0.1378  0.7312 -0.0175
19945TIP3    H181326   1.115   2.398   3.720  0.1378 -1.2717 -0.5564
19945TIP3    H281327   1.073   2.329   3.847  0.7101 -0.3984  0.1137
19946TIP3   OH281328   2.669   3.002   1.327  0.1907 -0.3332  0.0877
19946TIP3    H181329   2.638   2.926   1.278 -0.2941  0.8014 -1.4207
19946TIP3    H281330   2.729   3.046   1.267 -0.9031  1.4333  0.2404
19947TIP3   OH281331   6.450   6.072   6.325 -0.1757  0.1349 -0.0348
19947TIP3    H181332   6.431   6.114   6.410 -2.2557  0.5894 -0.6893
19947TIP3    H281333   6.514   6.005   6.346 -0.8195  0.0853  1.9675
19948TIP3   OH281334   2.136   5.719   0.873 -0.3288  0.4276 -0.2529
19948TIP3    H181335   2.204   5.783   0.852 -0.8454  0.3458 -2.2226
19948TIP3    H281336   2.072   5.727   0.802 -0.1915 -2.5831 -0.7830
19949TIP3   OH281337   5.391   2.821  12.863 -0.3247 -0.2461 -0.8641
19949TIP3    H181338   5.451   2.894  12.852  2.1301 -1.9037  0.9794
19949TIP3    H281339   5.317   2.842  12.806  0.3500  3.5956 -0.4557
19950TIP3   OH281340   5.850   0.597  11.284  0.7346  0.1638  0.9445
19950TIP3    H181341   5.930   0.544  11.290  0.3684 -0.2953  1.8512
19950TIP3    H281342   5.779   0.534  11.296  0.2533  0.6294  0.5179
19951TIP3   OH281343   4.142   0.751   1.709 -0.4513 -0.4082 -0.5274
19951TIP3    H181344   4.102   0.733   1.794  1.4949 -2.2205  0.0617
19951TIP3    H281345   4.073   0.735   1.645 -1.7523  0.3759  0.6673
19952TIP3   OH281346   5.435   4.906  14.542  0.0754  0.2470 -0.0435
19952TIP3    H181347   5.438   4.869  14.454  2.2660 -0.6759  0.3988
19952TIP3    H281348   5.392   4.991  14.531 -0.1427 -0.0812 -1.8988
19953TIP3   OH281349   2.426   3.896  14.386 -0.5736 -0.4687 -0.1841
19953TIP3    H181350   2.393   3.816  14.346 -0.1246 -1.2921  1.0940
19953TIP3    H281351   2.348   3.937  14.424 -0.4131 -1.5466  1.3250
19954TIP3   OH281352   6.741   4.648  15.364  0.2184 -0.2485  0.2176
19954TIP3    H181353   6.654   4.679  15.389  0.2879 -0.6047  0.9148
19954TIP3    H281354   6.724   4.588  15.291 -0.1262 -0.3033  0.3388
19955TIP3   OH281355   5.902   4.298  16.785 -0.1279 -0.2673  0.4353
19955TIP3    H181356   5.926   4.316  16.695 -0.5224 -0.3253  0.3162
19955TIP3    H281357   5.983   4.312  16.835  0.2011 -0.6687  0.0169
19956TIP3   OH281358   6.210   3.134   6.282 -0.7931 -0.0491  0.9452
19956TIP3    H181359   6.218   3.143   6.377 -2.6852  0.7898  1.0393
19956TIP3    H281360   6.256   3.052   6.263 -0.3079 -0.1827  2.5705
19957TIP3   OH281361   4.694   3.875   3.403  0.1331  0.4277 -0.3419
19957TIP3    H181362   4.720   3.791   3.440  0.3725  0.3850 -0.5989
19957TIP3    H281363   4.664   3.927   3.478 -2.1597 -0.6520 -0.4712
19958TIP3   OH281364   2.757   4.307  16.063 -0.1848 -0.0329 -0.2956
19958TIP3    H181365   2.834   4.268  16.023  0.6375 -0.6099  1.7870
19958TIP3    H281366   2.748   4.392  16.020  1.1248 -0.3196 -1.1482
19959TIP3   OH281367   5.630   4.723   0.726  0.0279 -0.0182 -0.0689
19959TIP3    H181368   5.537   4.741   0.717  0.3742  2.3656  0.7169
19959TIP3    H281369   5.648   4.734   0.819  1.4398  1.4992 -0.4928
19960TIP3   OH281370   2.700   1.719  12.616 -0.1289 -0.4524  0.1735
19960TIP3    H181371   2.751   1.796  12.591  0.8865 -1.8787 -2.4480
19960TIP3    H281372   2.759   1.668  12.672 -0.5113  0.2957  1.2552
19961TIP3   OH281373   4.629   1.616   1.678  0.3188 -0.2237  0.0848
19961TIP3    H181374   4.547   1.659   1.703  0.7350  1.3577 -1.1271
19961TIP3    H281375   4.670   1.593   1.761  0.1939  2.0391  0.8240
19962TIP3   OH281376   4.188   1.199   0.681  0.2505 -0.1910  0.1770
19962TIP3    H181377   4.231   1.283   0.690  0.2853 -0.1201 -0.5909
19962TIP3    H281378   4.256   1.140   0.648  0.2919 -0.5831  0.9519
19963TIP3   OH281379   6.331   5.244   0.275 -0.3540 -0.2325  0.0617
19963TIP3    H181380   6.265   5.313   0.265 -1.0153 -0.7400  0.9065
19963TIP3    H281381   6.404   5.287   0.318 -1.4539 -0.4625  2.2035
19964TIP3   OH281382   5.923   2.471   5.986 -0.3008 -0.5221 -0.0778
19964TIP3    H181383   5.836   2.507   6.001 -0.5079 -0.8539 -0.4883
19964TIP3    H281384   5.950   2.437   6.072  0.6248  2.1725  0.7633
19965TIP3   OH281385   1.813   1.953   0.920 -0.5210  0.4304 -0.4306
19965TIP3    H181386   1.832   2.030   0.867 -0.7060  0.7444 -0.0366
19965TIP3    H281387   1.892   1.899   0.913  0.0725  1.2004  0.2660
19966TIP3   OH281388   1.133   1.059  12.131  0.3118  0.1903  0.2803
19966TIP3    H181389   1.137   0.998  12.205 -1.1465  0.6539  0.7517
19966TIP3    H281390   1.137   1.146  12.171 -0.3841  0.4388 -0.1774
19967TIP3   OH281391   3.423   5.485  14.880 -0.8055  0.5100  0.2010
19967TIP3    H181392   3.408   5.418  14.946  0.8911  1.9707  2.1446
19967TIP3    H281393   3.414   5.439  14.796 -1.9174 -1.6074  1.4479
19968TIP3   OH281394   6.051   6.357  15.778  0.3325 -0.2107 -0.1323
19968TIP3    H181395   6.115   6.428  15.772 -0.1133  0.2015  0.0141
19968TIP3    H281396   6.060   6.325  15.868  0.1566  0.0085 -0.0378
19969TIP3   OH281397   6.496   4.178  12.882 -0.0684 -0.2829  0.3910
19969TIP3    H181398   6.406   4.205  12.865 -0.3790 -1.0952  0.7632
19969TIP3    H281399   6.495   4.143  12.970  0.5377 -0.6509  0.2528
19970TIP3   OH281400   3.705   5.347  11.227  0.2769 -0.1000  0.4312
19970TIP3    H181401   3.725   5.429  11.182 -1.3782  0.9678  1.5829
19970TIP3    H281402   3.675   5.288  11.158 -1.9935  1.4423  0.0274
19971TIP3   OH281403   1.111   2.223   0.385 -0.2435  1.1388 -0.0812
19971TIP3    H181404   1.095   2.136   0.422 -0.2574  0.2914 -2.0672
19971TIP3    H281405   1.024   2.263   0.381 -0.2791  1.1291  0.5126
19972TIP3   OH281406   1.612   5.395   5.223 -0.4226 -0.3280  0.0875
19972TIP3    H181407   1.672   5.415   5.296 -0.0163  1.5446 -0.7318
19972TIP3    H281408   1.640   5.309   5.193 -0.3742 -0.9792  1.9356
19973TIP3   OH281409   6.226   4.854   3.969  0.2258 -0.7149 -0.2621
19973TIP3    H181410   6.283   4.824   3.898 -0.4778  2.1047 -2.1148
19973TIP3    H281411   6.204   4.944   3.945 -4.0512 -1.3219  0.9959
19974TIP3   OH281412   5.968   2.815   2.288  0.4121  0.0561  0.5446
19974TIP3    H181413   6.055   2.828   2.251  1.1957 -0.6359  2.0857
19974TIP3    H281414   5.932   2.741   2.240  1.0936 -0.3176  0.5966
19975TIP3   OH281415   4.566   2.680   3.695  0.2777 -0.2716  0.2323
19975TIP3    H181416   4.637   2.732   3.655  0.6435 -0.3100  0.8285
19975TIP3    H281417   4.486   2.717   3.658  0.7037 -1.8346 -2.3663
19976TIP3   OH281418   0.350   4.423  15.434  0.2636  0.3943  0.6946
19976TIP3    H181419   0.383   4.421  15.344  1.8908  2.0452  1.2065
19976TIP3    H281420   0.282   4.490  15.434  1.7573  1.9382  1.1415
19977TIP3   OH281421   5.277   2.755   3.646  0.0740 -0.0094  0.4613
19977TIP3    H181422   5.362   2.765   3.689 -1.0003  0.1961  2.6002
19977TIP3    H281423   5.213   2.763   3.717 -1.6800 -1.6801 -0.8617
19978TIP3   OH281424   1.157   1.892  12.755  0.0581  0.4801 -0.2716
19978TIP3    H181425   1.115   1.863  12.674 -0.7373  0.9237 -0.0205
19978TIP3    H281426   1.234   1.836  12.763 -0.7604 -0.7032 -0.4682
19979TIP3   OH281427   0.761   0.334  17.027  0.2968 -0.0026 -0.3107
19979TIP3    H181428   0.713   0.409  16.994 -1.4779 -0.6823  0.6733
19979TIP3    H281429   0.728   0.321  17.115  3.5116  0.5288  1.0436
19980TIP3   OH281430   4.401   3.022  16.923 -0.2026 -0.5496 -0.1396
19980TIP3    H181431   4.350   2.980  16.992  1.0140  0.2162  1.2657
19980TIP3    H281432   4.369   2.983  16.842 -2.0970 -1.0184  0.8014
19981TIP3   OH281433   3.009   2.886   0.688  0.8137 -0.7800  0.5436
19981TIP3    H181434   2.932   2.934   0.719  0.8661 -0.4393  0.1586
19981TIP3    H281435   3.060   2.870   0.767  0.3805 -0.9514  0.7922
19982TIP3   OH281436   0.441   5.841  13.850  0.0919  0.2603 -0.3579
19982TIP3    H181437   0.513   5.860  13.789  1.0503  0.3404  0.7831
19982TIP3    H281438   0.459   5.753  13.882 -0.6830  0.0270 -0.5541
19983TIP3   OH281439   0.355   6.203  13.605 -0.7465 -0.3542  0.7992
19983TIP3    H181440   0.318   6.124  13.566  2.6634 -0.0416 -3.5911
19983TIP3    H281441   0.437   6.173  13.646 -0.2880  0.5981  0.5943
19984TIP3   OH281442   0.898   4.922   6.165 -0.1921 -1.2079  0.1959
19984TIP3    H181443   0.843   4.961   6.233 -1.7896 -0.3236 -1.5484
19984TIP3    H281444   0.849   4.846   6.135  0.4821 -1.5631 -0.0251
19985TIP3   OH281445   3.889   0.489  14.452 -0.1352  0.3498 -0.1306
19985TIP3    H181446   3.796   0.498  14.433 -0.6357 -0.3818  1.8847
19985TIP3    H281447   3.928   0.455  14.371 -1.3210  2.2903 -1.5509
19986TIP3   OH281448   2.336   0.321  12.366 -0.3424  0.4655  0.4648
19986TIP3    H181449   2.328   0.404  12.319  0.4551  0.4981  0.3825
19986TIP3    H281450   2.246   0.301  12.395 -0.9349  0.1627 -1.5350
19987TIP3   OH281451   6.276   2.345  12.838  0.3142 -0.5538 -0.0355
19987TIP3    H181452   6.327   2.291  12.777  0.7392 -0.6195  0.3746
19987TIP3    H281453   6.312   2.323  12.924 -0.1455 -0.3090  0.2194
19988TIP3   OH281454   2.203   3.449   3.836 -0.3683  0.5090  0.0356
19988TIP3    H181455   2.156   3.510   3.893  1.0252  1.9390 -0.3119
19988TIP3    H281456   2.279   3.499   3.805  1.5332 -1.8095  0.7781
19989TIP3   OH281457   5.394   5.668  16.610  0.2980  0.2534 -0.0935
19989TIP3    H181458   5.331   5.628  16.671 -0.3021  3.2611  1.3643
19989TIP3    H281459   5.392   5.612  16.533 -3.1942 -0.4807  0.4571
19990TIP3   OH281460   1.475   6.153   3.778 -0.1433  0.4896  0.8047
19990TIP3    H181461   1.463   6.060   3.757  0.2996  0.8676 -1.2183
19990TIP3    H281462   1.386   6.188   3.782 -0.2194  0.5954 -1.4102
19991TIP3   OH281463   1.150   5.877  14.266 -0.3775  0.2897  0.3638
19991TIP3    H181464   1.233   5.860  14.311 -0.2483 -0.0326  0.0130
19991TIP3    H281465   1.162   5.963  14.225 -0.2531  0.2933  0.4067
19992TIP3   OH281466   0.989   4.098  13.274 -0.2885 -0.0324 -0.2760
19992TIP3    H181467   0.965   4.006  13.279  0.3644 -0.1862  0.0893
19992TIP3    H281468   0.937   4.140  13.342  0.2040 -0.3037  0.2676
19993TIP3   OH281469   1.751   0.873   2.348  0.1355  0.3840  0.0284
19993TIP3    H181470   1.674   0.925   2.369 -1.3917 -1.8022 -0.0414
19993TIP3    H281471   1.801   0.870   2.430  0.8264  2.8538 -0.2651
19994TIP3   OH281472   4.378   5.961  13.242 -0.0764  0.2212  0.3024
19994TIP3    H181473   4.312   5.906  13.283  0.5404  0.1851  1.2575
19994TIP3    H281474   4.391   5.923  13.155 -1.0270 -0.0004  0.2544
19995TIP3   OH281475   2.880   4.901  15.479  0.1583  0.1765 -0.2747
19995TIP3    H181476   2.843   4.987  15.497 -0.8778  0.4655 -3.4925
19995TIP3    H281477   2.806   4.840  15.486  0.2644 -0.0370 -0.9714
19996TIP3   OH281478   3.750   5.174  15.990 -0.7057 -0.5384  0.4456
19996TIP3    H181479   3.712   5.135  16.069  2.4985 -0.8327  1.9153
19996TIP3    H281480   3.833   5.127  15.977 -0.3131  0.7239 -2.0841
19997TIP3   OH281481   4.715   3.770  15.896 -0.4157  0.1591  0.2744
19997TIP3    H181482   4.724   3.694  15.839 -1.7396 -1.6449  2.3963
19997TIP3    H281483   4.800   3.777  15.940 -0.3398 -0.1761  0.1824
19998TIP3   OH281484   2.450   0.202  14.237 -0.2039 -0.3903  0.3685
19998TIP3    H181485   2.371   0.184  14.187 -1.2271  3.7447  0.2960
19998TIP3    H281486   2.462   0.297  14.230  3.7410 -0.6496  1.9155
19999TIP3   OH281487   5.330   1.338   0.110  0.3345  0.3855  0.1295
19999TIP3    H181488   5.261   1.303   0.166 -0.4604  1.1643 -0.3457
19999TIP3    H281489   5.358   1.264   0.057  1.6767 -0.5682  2.1191
20000TIP3   OH281490   2.725   2.402   6.156 -0.2927 -0.2276  0.4564
20000TIP3    H181491   2.632   2.385   6.141 -0.1936 -0.5555  0.2096
20000TIP3    H281492   2.758   2.322   6.196 -0.1160 -0.1091  0.5477
20001TIP3   OH281493   5.186   5.550  15.858 -0.4223  0.1323 -0.3106
20001TIP3    H181494   5.266   5.516  15.816  1.3117  2.9858  0.5782
20001TIP3    H281495   5.181   5.503  15.941 -1.5334 -2.4492 -1.7808
20002TIP3   OH281496   6.005   1.296   1.042  0.4346 -0.2607 -0.0968
20002TIP3    H181497   5.941   1.266   0.978  3.4801 -2.9785 -1.9569
20002TIP3    H281498   6.022   1.220   1.098  2.7099  0.1308 -0.2013
20003TIP3   OH281499   2.514   3.938   2.025 -0.1662 -0.2514  0.3028
20003TIP3    H181500   2.423   3.968   2.015 -0.4532 -1.2065 -0.0172
20003TIP3    H281501   2.546   3.931   1.935 -0.2403 -1.2947  0.3500
20004TIP3   OH281502   2.210   6.320   0.231  0.1521 -0.1806 -0.5480
20004TIP3    H181503   2.193   6.394   0.288 -1.2181 -0.7181 -0.2368
20004TIP3    H281504   2.205   6.356   0.142 -1.2846 -0.0616 -0.4158
20005TIP3   OH281505   4.232   0.057  13.691  0.1669  0.1609 -0.3170
20005TIP3    H181506   4.197   0.044  13.603  1.1783  0.8405 -0.8298
20005TIP3    H281507   4.209  -0.023  13.738  0.3070 -0.5519 -1.4313
20006TIP3   OH281508   4.296   4.814  14.356 -0.0264  0.3081 -0.5178
20006TIP3    H181509   4.271   4.866  14.432 -1.0897 -0.3667 -0.3986
20006TIP3    H281510   4.320   4.879  14.289  0.3643  0.9064  0.2026
20007TIP3   OH281511   4.843   4.588  12.129 -0.0360 -0.2992  0.1091
20007TIP3    H181512   4.849   4.682  12.116  0.5206 -0.2616  0.6275
20007TIP3    H281513   4.820   4.553  12.042 -0.2279  0.3081 -0.0830
20008TIP3   OH281514   1.710   5.706   3.604 -0.2254  0.0121  0.4449
20008TIP3    H181515   1.718   5.799   3.624  0.1391 -0.0717  0.6932
20008TIP3    H281516   1.654   5.672   3.674  0.0975 -0.0598  0.6717
20009TIP3   OH281517   6.093   3.957   0.541 -0.3458 -0.2467  0.3432
20009TIP3    H181518   6.165   3.949   0.604  0.7417 -0.0998 -0.8427
20009TIP3    H281519   6.101   4.046   0.507 -3.1061  0.9210  2.5330
20010TIP3   OH281520   3.533   0.697   0.544 -0.1092 -0.2173 -0.1488
20010TIP3    H181521   3.525   0.688   0.639 -2.6144 -2.0642 -0.4951
20010TIP3    H281522   3.455   0.747   0.518  0.9433  0.9301 -1.1873
20011TIP3   OH281523   6.125   0.364   0.877 -0.3475 -0.2685  0.4435
20011TIP3    H181524   6.177   0.358   0.957 -0.9696 -3.8235  0.6702
20011TIP3    H281525   6.048   0.310   0.895 -2.0880  1.5369 -1.3927
20012TIP3   OH281526   0.809   4.911   5.537  0.1303  0.3576 -0.0767
20012TIP3    H181527   0.847   4.862   5.464  1.6587  1.7048 -0.2240
20012TIP3    H281528   0.717   4.923   5.514 -0.4235 -2.9266  0.2434
20013TIP3   OH281529   1.042   5.124   0.019 -0.8050  0.0152 -0.3281
20013TIP3    H181530   1.093   5.199   0.050 -2.1344  0.4537  0.8444
20013TIP3    H281531   1.105   5.070  -0.029  1.0842 -0.1049  2.1745
20014TIP3   OH281532   5.953   4.463   0.227 -0.2223  0.4619 -0.4278
20014TIP3    H181533   6.031   4.461   0.171 -0.4022  0.1926 -0.6661
20014TIP3    H281534   5.974   4.528   0.294  0.2790  0.2710 -0.3921
20015TIP3   OH281535   5.735   5.306  12.214  0.0821  0.1334  0.5449
20015TIP3    H181536   5.673   5.266  12.153  1.5022 -2.9505  1.0197
20015TIP3    H281537   5.736   5.398  12.191 -0.7612 -0.6588 -2.9260
20016TIP3   OH281538   3.530   5.235  13.476 -0.4221 -0.2450  0.9092
20016TIP3    H181539   3.482   5.169  13.425 -1.3992  1.8085 -0.9286
20016TIP3    H281540   3.604   5.259  13.420  0.0050  0.1187  1.6281
20017TIP3   OH281541   1.588   2.678  16.068  0.0265 -0.7133 -0.0709
20017TIP3    H181542   1.599   2.619  16.143 -1.3310 -0.8621  0.0381
20017TIP3    H281543   1.564   2.620  15.995 -1.0655 -0.3443 -0.0216
20018TIP3   OH281544   3.406   3.676  12.488  0.4524  0.5564  0.6688
20018TIP3    H181545   3.433   3.650  12.576  1.3667 -0.7320  0.0269
20018TIP3    H281546   3.386   3.593  12.444 -1.7141  1.3010  0.2101
20019TIP3   OH281547   1.913   2.871  11.210 -0.7616  0.1062  0.1004
20019TIP3    H181548   1.898   2.796  11.266  0.9782  0.0925  0.5790
20019TIP3    H281549   1.898   2.947  11.266  1.6760  0.0948  0.8342
20020TIP3   OH281550   6.716   3.073  16.168 -0.3018 -0.0129  0.0674
20020TIP3    H181551   6.756   2.990  16.195 -1.2063 -0.4137  0.2012
20020TIP3    H281552   6.677   3.054  16.083  0.0260  0.4490 -0.1879
20021TIP3   OH281553   3.883   3.833  15.390 -0.3975  0.4740 -0.0245
20021TIP3    H181554   3.962   3.869  15.430 -0.7642  0.7006  0.4990
20021TIP3    H281555   3.849   3.772  15.455  0.0841 -0.6389 -0.8090
20022TIP3   OH281556   5.590   0.585  12.596  0.1658 -0.0677 -0.2398
20022TIP3    H181557   5.588   0.674  12.559  0.2367 -0.1757 -0.5036
20022TIP3    H281558   5.559   0.596  12.686 -1.4391 -0.0162 -0.7700
20023TIP3   OH281559   2.843   5.814   3.787 -0.0557  0.5057  1.1008
20023TIP3    H181560   2.851   5.847   3.697  0.2374 -2.5817 -0.0704
20023TIP3    H281561   2.752   5.785   3.794  0.7194 -2.1438  0.7132
20024TIP3   OH281562   2.342   3.999  17.134 -0.1888  0.5408  0.1124
20024TIP3    H181563   2.381   4.032  17.215 -0.9102  1.6830  0.0008
20024TIP3    H281564   2.248   4.005  17.148 -0.3185  1.5110 -1.1163
20025TIP3   OH281565   2.273   2.002  12.669 -0.2615  0.2667  0.4988
20025TIP3    H181566   2.193   2.036  12.629  0.6492  1.6532 -0.1960
20025TIP3    H281567   2.307   1.940  12.606  0.5017  1.5101 -0.3277
20026TIP3   OH281568   5.661   6.623   4.254  0.3700  0.1584  0.5670
20026TIP3    H181569   5.613   6.563   4.197  0.9506 -0.2778  0.5273
20026TIP3    H281570   5.751   6.619   4.221  0.6639  0.0608  1.3809
20027TIP3   OH281571   5.431   6.575  12.511 -0.2286 -0.3629  0.2890
20027TIP3    H181572   5.346   6.619  12.512 -0.5711 -0.9316 -1.6167
20027TIP3    H281573   5.495   6.646  12.506 -0.6649  0.0148  0.0307
20028TIP3   OH281574   2.586   2.924   4.655 -0.7647  0.3685 -0.0732
20028TIP3    H181575   2.534   2.948   4.579 -1.9213 -2.4530 -0.2340
20028TIP3    H281576   2.524   2.927   4.728 -0.8524 -1.6488 -0.0442
20029TIP3   OH281577   3.889   4.586  12.233  0.1906  0.1271 -0.3921
20029TIP3    H181578   3.979   4.570  12.261 -0.7244 -0.8834  2.1473
20029TIP3    H281579   3.852   4.498  12.221 -0.9094  0.5243  0.1017
20030TIP3   OH281580   6.637   4.610   0.076  0.1031 -0.4774 -0.8372
20030TIP3    H181581   6.583   4.677   0.117  2.7585 -0.3465  2.5954
20030TIP3    H281582   6.581   4.532   0.073 -0.8970  0.1525  0.9491
20031TIP3   OH281583   1.563   3.100  11.954  0.2591  0.6504  0.1080
20031TIP3    H181584   1.548   3.009  11.980 -1.6675  0.9841  0.2240
20031TIP3    H281585   1.653   3.101  11.921 -0.2766 -1.7052 -1.5615
20032TIP3   OH281586   3.399   3.914  12.154 -0.2312 -0.4417 -0.3572
20032TIP3    H181587   3.365   3.828  12.130  0.5264 -0.6560 -0.6831
20032TIP3    H281588   3.480   3.923  12.103  0.5323 -0.2006  0.8717
20033TIP3   OH281589   0.159   6.455  13.526  0.1234  0.2048  0.0233
20033TIP3    H181590   0.209   6.514  13.582  1.0438 -0.0673 -0.4990
20033TIP3    H281591   0.213   6.376  13.519 -0.5036 -0.2041 -0.3214
20034TIP3   OH281592   6.787   6.518  12.895  0.2780  0.5406  0.1991
20034TIP3    H181593   6.751   6.462  12.827 -0.3640  0.3969  0.6553
20034TIP3    H281594   6.716   6.527  12.959 -0.8841  4.5499 -1.4307
20035TIP3   OH281595   2.449   5.909   1.295 -0.1447 -0.0878  0.3173
20035TIP3    H181596   2.461   6.004   1.284  0.5804 -0.2667 -0.5022
20035TIP3    H281597   2.354   5.897   1.290 -0.3920  0.8168  2.3768
20036TIP3   OH281598   4.382   1.241  14.036  0.0527  0.5358  0.6526
20036TIP3    H181599   4.353   1.225  13.947 -1.1407  3.4195  0.4475
20036TIP3    H281600   4.326   1.187  14.091 -0.6409  0.3824 -0.2084
20037TIP3   OH281601   4.121   2.867   5.978  0.4406  0.0715 -0.0399
20037TIP3    H181602   4.052   2.931   5.995  0.9834  0.7931 -0.5249
20037TIP3    H281603   4.117   2.807   6.053  0.6094  1.2636  0.9371
20038TIP3   OH281604   4.060   0.865   2.267 -0.1326 -0.1702 -0.1606
20038TIP3    H181605   4.078   0.934   2.204 -0.4300 -0.8901 -1.0541
20038TIP3    H281606   3.965   0.852   2.262  0.1529 -1.9676 -1.4332
20039TIP3   OH281607   5.573   6.414  15.723  0.3447  0.2467  0.6523
20039TIP3    H181608   5.488   6.429  15.765 -0.9831 -1.4386 -1.3101
20039TIP3    H281609   5.575   6.478  15.651  0.2430 -0.4146  0.0493
20040TIP3   OH281610   5.872   3.115  14.490  0.2290 -0.1432  0.0487
20040TIP3    H181611   5.909   3.197  14.458 -2.0592  1.8779  2.4001
20040TIP3    H281612   5.777   3.129  14.491 -0.1230 -2.2015  2.0311
20041TIP3   OH281613   6.423   2.778  11.343 -0.7434  0.2779 -0.8465
20041TIP3    H181614   6.516   2.792  11.331 -0.5699 -0.9444 -1.0507
20041TIP3    H281615   6.393   2.737  11.262 -0.8129 -2.1629  0.3364
20042TIP3   OH281616   2.225   0.093  14.101 -0.1009  0.8261  0.3346
20042TIP3    H181617   2.160   0.027  14.124  0.8292  0.0906  0.9207
20042TIP3    H281618   2.277   0.053  14.031  0.3270  1.0082  0.5409
20043TIP3   OH281619   5.868   0.042  16.803  0.4945 -0.1017  0.1354
20043TIP3    H181620   5.827  -0.045  16.801  0.5300 -0.1320  0.7852
20043TIP3    H281621   5.865   0.068  16.895  0.7648  0.4533 -0.0113
20044TIP3   OH281622   2.035   1.298  14.319  0.0255  0.4395 -0.7042
20044TIP3    H181623   2.018   1.308  14.226  3.5254 -0.0585 -1.4955
20044TIP3    H281624   2.080   1.213  14.326 -1.3075 -0.1377  1.6289
20045TIP3   OH281625   4.024   3.206  11.638 -0.3136 -0.0929 -0.1216
20045TIP3    H181626   4.074   3.125  11.646  0.4872  0.4353  0.3006
20045TIP3    H281627   4.030   3.229  11.546  1.0958  0.5137  0.1186
20046TIP3   OH281628   0.304   1.057  15.951  0.1296  0.5117  0.1500
20046TIP3    H181629   0.281   1.109  15.874  1.5129  0.4566 -0.3209
20046TIP3    H281630   0.301   0.966  15.921  1.8427  0.5525 -0.1714
20047TIP3   OH281631   4.044   0.737  14.619 -0.1520 -0.1295  0.2671
20047TIP3    H181632   4.105   0.793  14.573 -1.0166  0.0498 -0.6925
20047TIP3    H281633   4.012   0.676  14.552  0.3360 -1.3910  1.1532
20048TIP3   OH281634   3.751   0.948   5.937  0.0700 -0.0904 -0.3334
20048TIP3    H181635   3.788   0.892   6.006  1.6887 -2.9973 -3.3853
20048TIP3    H281636   3.688   0.892   5.893  1.1709  0.7044 -3.0125
20049TIP3   OH281637   4.912   3.867   3.896  0.0778 -0.1598 -0.3310
20049TIP3    H181638   4.951   3.835   3.977  1.5652  1.1356 -0.5000
20049TIP3    H281639   4.822   3.891   3.920  0.6705  0.7097  1.0779
20050TIP3   OH281640   2.589   0.564   4.952 -0.4304 -0.1847 -0.3913
20050TIP3    H181641   2.656   0.510   4.994 -1.1951 -0.9645 -0.1405
20050TIP3    H281642   2.627   0.589   4.868  0.2109 -0.5426 -0.2087
20051TIP3   OH281643   1.355   0.367   4.035  0.7832 -0.3583 -0.5535
20051TIP3    H181644   1.326   0.456   4.013  2.2937  0.1998 -0.3546
20051TIP3    H281645   1.379   0.372   4.128 -0.1427 -1.2492 -0.2615
20052TIP3   OH281646   1.657   2.229   4.905 -0.0243  0.1169 -0.1278
20052TIP3    H181647   1.633   2.264   4.991 -0.1888 -0.9677  0.2859
20052TIP3    H281648   1.575   2.229   4.855 -0.0853  0.0768 -0.0298
20053TIP3   OH281649   0.393   0.393   2.396 -0.4836 -0.0428  0.3477
20053TIP3    H181650   0.329   0.401   2.467 -1.0764 -0.4897 -0.1373
20053TIP3    H281651   0.389   0.301   2.370  0.2086 -0.0251  0.1735
20054TIP3   OH281652   4.548   4.374   0.044  0.3546  0.4313 -0.7076
20054TIP3    H181653   4.511   4.294   0.081 -0.0961  1.9739  2.2561
20054TIP3    H281654   4.521   4.371  -0.048 -2.1423 -1.3950  0.0023
20055TIP3   OH281655   4.210   5.498   1.825 -0.0928 -0.2681 -0.0725
20055TIP3    H181656   4.120   5.467   1.824  0.2501 -1.2877 -1.6051
20055TIP3    H281657   4.215   5.559   1.752  0.5412 -0.5026 -0.2341
20056TIP3   OH281658   3.812   4.982   2.308 -0.1767  0.3449 -0.0430
20056TIP3    H181659   3.757   4.929   2.250 -1.3714  0.5170  0.9210
20056TIP3    H281660   3.750   5.026   2.366  0.9778  0.6865  0.9394
20057TIP3   OH281661   6.298   5.440  12.645 -0.5031 -0.0861 -0.0823
20057TIP3    H181662   6.280   5.464  12.554 -0.3832  0.0957 -0.0582
20057TIP3    H281663   6.386   5.473  12.661 -0.5543 -0.0509  0.1212
20058TIP3   OH281664   6.404   4.896   4.798 -0.2719  0.0580  0.4205
20058TIP3    H181665   6.389   4.801   4.793 -0.1992  0.0579  0.2241
20058TIP3    H281666   6.338   4.934   4.740 -0.1008  0.1087  0.2570
20059TIP3   OH281667   6.584   1.944  13.977  0.0714 -0.3454  0.2280
20059TIP3    H181668   6.520   2.016  13.984 -2.0009 -1.9965 -0.9834
20059TIP3    H281669   6.590   1.909  14.065 -0.8004 -0.2335  0.3390
20060TIP3   OH281670   3.605   0.484   4.362 -0.2422 -0.3995 -0.3465
20060TIP3    H181671   3.686   0.439   4.387 -0.3612 -0.5919 -0.3080
20060TIP3    H281672   3.628   0.532   4.283 -0.0821 -0.4354 -0.3223
20061TIP3   OH281673   1.774   5.635  16.425 -0.2973 -0.1337 -0.5853
20061TIP3    H181674   1.698   5.599  16.470 -0.5024 -0.0894 -0.8926
20061TIP3    H281675   1.847   5.616  16.483 -0.5104 -0.3824 -0.3910
20062TIP3   OH281676   3.226   2.924  13.992 -0.0737  0.6029 -0.3566
20062TIP3    H181677   3.134   2.920  13.966  0.0709 -0.0246 -0.7931
20062TIP3    H281678   3.232   2.867  14.069 -0.2642  1.5219  0.3532
20063TIP3   OH281679   5.002   5.927   1.488 -0.1016  0.3609 -0.3091
20063TIP3    H181680   5.008   5.982   1.410  3.0616 -0.0362 -0.4044
20063TIP3    H281681   4.940   5.858   1.465  0.1883  0.7171 -2.1958
20064TIP3   OH281682   4.793   6.268   4.583  0.0018 -0.2968  0.1533
20064TIP3    H181683   4.805   6.363   4.587  1.1901 -0.3854 -1.0018
20064TIP3    H281684   4.878   6.232   4.608 -0.4095 -1.0535  0.4667
20065TIP3   OH281685   0.902   1.446   2.277  0.2037 -0.0142  0.3506
20065TIP3    H181686   0.949   1.528   2.268 -0.8577  0.4168 -1.5274
20065TIP3    H281687   0.841   1.461   2.350  0.5839  0.5637  0.5529
20066TIP3   OH281688   3.543   1.102   1.507  0.3811 -0.2271  0.2125
20066TIP3    H181689   3.610   1.170   1.505  1.1508 -0.9949 -0.4320
20066TIP3    H281690   3.479   1.129   1.440 -0.7009  1.2336  1.7911
20067TIP3   OH281691   6.355   4.846   3.309  0.7041 -0.2330 -0.1384
20067TIP3    H181692   6.315   4.908   3.247  0.6288 -1.4199 -1.2911
20067TIP3    H281693   6.282   4.794   3.341  0.8354 -0.0378  0.4797
20068TIP3   OH281694   4.750   1.873  11.724  0.3287 -0.6319 -0.4807
20068TIP3    H181695   4.687   1.809  11.691  1.9659 -2.6276  0.2017
20068TIP3    H281696   4.835   1.840  11.695  1.2510  0.8700  0.4787
20069TIP3   OH281697   6.790   6.179  15.283 -0.0766 -0.2786 -0.3908
20069TIP3    H181698   6.699   6.210  15.292 -0.1535 -0.6226  0.0592
20069TIP3    H281699   6.828   6.191  15.370 -0.1403 -1.5427 -0.1801
20070TIP3   OH281700   3.524   3.550   6.292 -0.2910 -0.2344  0.0883
20070TIP3    H181701   3.496   3.634   6.330 -0.2635  0.8558 -2.2325
20070TIP3    H281702   3.447   3.494   6.298 -0.2738 -0.1140  1.7780
20071TIP3   OH281703   0.154   5.345   2.415  0.3230  0.5206  0.4251
20071TIP3    H181704   0.099   5.391   2.479 -0.3339 -0.5899  0.6583
20071TIP3    H281705   0.107   5.354   2.332 -0.2535 -0.4868  0.6370
20072TIP3   OH281706   2.349   1.269  13.973 -0.8771 -0.0703  0.0876
20072TIP3    H181707   2.433   1.281  13.929 -1.5621  0.4425 -1.1282
20072TIP3    H281708   2.357   1.187  14.020  0.7572  0.6273  1.0415
20073TIP3   OH281709   6.570   2.048  15.171 -0.5705 -0.1048 -0.0389
20073TIP3    H181710   6.561   2.123  15.113  0.8554  1.1415  1.3033
20073TIP3    H281711   6.507   2.065  15.242  0.8043  0.6057  1.0400
20074TIP3   OH281712   1.158   3.962  13.521 -0.2561 -0.6804 -0.5038
20074TIP3    H181713   1.211   4.000  13.591  0.9507  0.3324 -1.9415
20074TIP3    H281714   1.071   3.997  13.536  0.0541 -0.2325  0.3024
20075TIP3   OH281715   1.454   2.016   3.760 -0.1151 -0.3451 -0.7093
20075TIP3    H181716   1.429   1.941   3.815 -0.8194  1.9959  2.3143
20075TIP3    H281717   1.370   2.048   3.725 -0.1704  0.7863  0.4193
20076TIP3   OH281718   0.077   2.388   2.842 -0.7074  0.1373  0.6609
20076TIP3    H181719   0.140   2.446   2.884 -1.6902  0.3540  1.8687
20076TIP3    H281720   0.086   2.407   2.748 -2.7197  4.0492  1.1565
20077TIP3   OH281721   1.636   1.564   6.225 -0.4721  0.0728 -0.4921
20077TIP3    H181722   1.568   1.592   6.163  0.5824  0.8162 -1.3186
20077TIP3    H281723   1.590   1.560   6.309 -1.1213  2.3677 -0.7029
20078TIP3   OH281724   4.455   3.336  11.408 -0.7773  0.6621  0.1139
20078TIP3    H181725   4.494   3.408  11.457  1.3532  0.9963 -1.9634
20078TIP3    H281726   4.453   3.263  11.469 -2.1144  2.1803  1.9658
20079TIP3   OH281727   4.078   4.658  11.573  0.1111  0.3471  0.3809
20079TIP3    H181728   4.174   4.665  11.571  0.2472 -1.2798  0.7307
20079TIP3    H281729   4.053   4.656  11.480  0.5224 -0.5143  0.2835
20080TIP3   OH281730   4.253   4.536   2.106 -0.0989  0.2756 -0.0379
20080TIP3    H181731   4.293   4.617   2.139 -0.4005 -0.4838  2.2438
20080TIP3    H281732   4.163   4.559   2.086 -0.1965  0.4899  0.6600
20081TIP3   OH281733   4.831   2.770  15.073  0.6290 -1.1522 -0.1761
20081TIP3    H181734   4.793   2.756  15.160 -2.0929 -0.2502 -1.1796
20081TIP3    H281735   4.757   2.770  15.014  2.2616  0.1092 -2.2985
20082TIP3   OH281736   1.173   1.240  15.351 -0.9483  0.5737  0.5363
20082TIP3    H181737   1.084   1.242  15.386  0.3368 -0.9816  4.0754
20082TIP3    H281738   1.211   1.324  15.378  0.1340 -0.7438  3.2644
20083TIP3   OH281739   1.091   0.168  11.889 -0.0419 -0.1455 -0.5893
20083TIP3    H181740   1.022   0.107  11.862  0.0242  0.0366 -1.1888
20083TIP3    H281741   1.046   0.233  11.942 -0.2023 -0.4271 -0.3732
20084TIP3   OH281742   2.336   2.214  16.905  0.0336  0.2672 -0.6080
20084TIP3    H181743   2.361   2.146  16.968  0.1378 -0.2240 -1.1709
20084TIP3    H281744   2.418   2.257  16.883 -0.0435  0.6254 -0.1935
20085TIP3   OH281745   2.264   5.819   5.576 -0.0422  0.0791 -0.5655
20085TIP3    H181746   2.234   5.788   5.491 -0.9730 -0.2754 -0.1092
20085TIP3    H281747   2.359   5.827   5.566  0.0941 -1.8593 -1.0281
20086TIP3   OH281748   3.250   4.845   1.721 -0.4531  0.2663 -0.1296
20086TIP3    H181749   3.216   4.787   1.789 -0.1660  0.8025  0.4820
20086TIP3    H281750   3.173   4.891   1.688 -0.7690 -0.8789 -1.0384
20087TIP3   OH281751   2.224   4.334  11.429 -0.1858 -0.4673 -0.4740
20087TIP3    H181752   2.195   4.412  11.383  0.1787 -0.2115 -0.2695
20087TIP3    H281753   2.289   4.295  11.371 -0.5188 -0.7282 -0.6706
20088TIP3   OH281754   3.403   4.963   3.898  0.4082 -0.0874  0.5115
20088TIP3    H181755   3.312   4.962   3.868  0.1584 -0.1667  1.2566
20088TIP3    H281756   3.405   4.899   3.969  1.0039  0.0425  0.6128
20089TIP3   OH281757   6.420   6.393  10.947 -0.3824 -0.1527  0.7000
20089TIP3    H181758   6.351   6.344  10.902  1.0917 -0.0682 -1.7262
20089TIP3    H281759   6.419   6.479  10.906  0.6716  0.0871  1.1648
20090TIP3   OH281760   6.681   1.945   5.648  0.1506 -0.2469 -0.3315
20090TIP3    H181761   6.704   1.986   5.564  1.3851  0.7723  0.4793
20090TIP3    H281762   6.649   1.858   5.624 -1.1496  0.6504 -1.9823
20091TIP3   OH281763   4.515   2.869  14.366 -0.5753 -0.1835  0.2842
20091TIP3    H181764   4.435   2.923  14.361  0.0280  0.6311 -0.8427
20091TIP3    H281765   4.586   2.932  14.353  0.3329 -0.6895  2.7101
20092TIP3   OH281766   4.749   3.237   4.469 -0.0207  0.1537 -0.2214
20092TIP3    H181767   4.739   3.158   4.522  0.7773 -0.6403 -1.2190
20092TIP3    H281768   4.750   3.309   4.532 -2.6360 -0.4586  0.5718
20093TIP3   OH281769   2.284   5.055  14.028 -0.1191  0.8674 -0.1075
20093TIP3    H181770   2.323   5.002  14.098 -2.6633 -1.3042 -0.2554
20093TIP3    H281771   2.221   5.111  14.073 -0.1207  1.1051 -0.4057
20094TIP3   OH281772   0.799   2.013  14.086  0.2351  0.9256 -0.0143
20094TIP3    H181773   0.795   2.054  14.172  0.8594  0.2758  0.3278
20094TIP3    H281774   0.886   1.974  14.082  0.2176  0.9623 -0.9478
20095TIP3   OH281775   1.127   5.413   3.852  0.4913 -0.4373 -0.0099
20095TIP3    H181776   1.194   5.353   3.883  1.3416  0.2304 -0.5243
20095TIP3    H281777   1.119   5.479   3.921  1.4636  0.3252 -0.5932
20096TIP3   OH281778   6.024   6.687  15.302  0.1017 -0.1228 -0.3399
20096TIP3    H181779   5.954   6.627  15.328  0.4219 -0.7131 -0.8410
20096TIP3    H281780   6.104   6.640  15.323  0.3584  0.5877  0.3075
20097TIP3   OH281781   0.088   5.037  11.637  0.8755 -0.0728  0.7150
20097TIP3    H181782   0.017   4.988  11.596  0.4642  1.5895 -0.5695
20097TIP3    H281783   0.160   4.974  11.642 -0.2982 -1.4155  0.9686
20098TIP3   OH281784   0.858   1.867  17.180 -0.1715  0.5532 -0.0053
20098TIP3    H181785   0.813   1.817  17.112  1.1420  0.8485 -1.0943
20098TIP3    H281786   0.831   1.957  17.165  1.1301  0.7915 -0.9400
20099TIP3   OH281787   0.369   1.736  13.817 -0.5208  0.0870 -0.1939
20099TIP3    H181788   0.320   1.710  13.895  0.0250  0.1723  0.1795
20099TIP3    H281789   0.347   1.828  13.804  1.7382  0.9326  1.6479
20100TIP3   OH281790   6.797   3.028   6.242 -0.1184 -0.4382  0.1159
20100TIP3    H181791   6.879   2.994   6.278  0.1349  0.4119  0.3708
20100TIP3    H281792   6.804   3.123   6.255 -1.5576 -0.4437  1.0309
20101TIP3   OH281793   0.919   5.616   1.956 -0.3485  0.0599 -0.0393
20101TIP3    H181794   0.823   5.619   1.954 -0.3471 -0.8423 -2.0917
20101TIP3    H281795   0.939   5.559   2.030 -1.4470 -1.2810 -0.7432
20102TIP3   OH281796   3.914   5.895   4.232 -0.4486 -0.3039 -0.2251
20102TIP3    H181797   3.984   5.876   4.294 -0.5050 -1.2252 -0.4345
20102TIP3    H281798   3.835   5.860   4.275 -0.5646 -0.4818 -0.5804
20103TIP3   OH281799   0.646   5.623  16.809 -0.2079 -0.2241  0.0025
20103TIP3    H181800   0.670   5.656  16.722  2.1353 -0.2399  0.5967
20103TIP3    H281801   0.613   5.535  16.793 -0.0052 -0.1415 -0.9011
20104TIP3   OH281802   2.642   5.079   5.275  0.3904  0.5495 -0.5818
20104TIP3    H181803   2.619   5.123   5.357 -0.9273 -0.8627 -0.1613
20104TIP3    H281804   2.687   5.146   5.224 -1.0288  2.2138  0.2790
20105TIP3   OH281805   4.499   4.432   0.353  0.4495  0.0797 -0.4557
20105TIP3    H181806   4.427   4.387   0.399  0.6083  0.2601 -0.0260
20105TIP3    H281807   4.578   4.392   0.388  0.6681  2.0197  1.3785
20106TIP3   OH281808   3.761   5.297   4.516 -0.0809 -0.6135  0.1340
20106TIP3    H181809   3.719   5.213   4.533 -1.5600  0.1280  0.2115
20106TIP3    H281810   3.714   5.359   4.571  1.4798  0.1431  0.6228
20107TIP3   OH281811   3.769   5.366  15.598 -0.6137  0.0321  0.3059
20107TIP3    H181812   3.717   5.392  15.522  0.8643  1.9438 -0.1043
20107TIP3    H281813   3.778   5.271  15.589 -1.8378  0.0251 -1.0178
20108TIP3   OH281814   5.907   1.107   2.333  0.3192 -0.1672  0.5923
20108TIP3    H181815   5.955   1.115   2.416  0.1947 -0.0682  0.6542
20108TIP3    H281816   5.894   1.013   2.322 -1.2357 -0.0819  1.5783
20109TIP3   OH281817   6.516   3.769  11.075  0.6311 -0.1498  0.6660
20109TIP3    H181818   6.534   3.689  11.125  2.0614  0.2543  0.8301
20109TIP3    H281819   6.523   3.839  11.139 -0.0296  0.1560  0.4027
20110TIP3   OH281820   1.219   2.031   3.638 -0.0516 -0.2892 -0.6205
20110TIP3    H181821   1.202   2.067   3.550  0.4158  2.8343  0.4877
20110TIP3    H281822   1.135   2.039   3.683  0.8275  2.6961  0.6683
20111TIP3   OH281823   6.731   2.218  13.940  0.0737  0.3515 -0.0775
20111TIP3    H181824   6.656   2.274  13.922  0.3668  1.1620  1.1132
20111TIP3    H281825   6.709   2.174  14.022 -0.6508 -2.2012 -1.5921
20112TIP3   OH281826   0.461   5.401  13.031 -0.3654 -0.4486 -0.2245
20112TIP3    H181827   0.457   5.354  13.115  1.3991 -0.3787 -0.0729
20112TIP3    H281828   0.455   5.493  13.056  0.7349 -0.3977 -0.0977
20113TIP3   OH281829   6.403   1.159   4.657  0.6613 -0.2412 -0.9401
20113TIP3    H181830   6.465   1.089   4.677 -0.0014 -0.3507  0.8203
20113TIP3    H281831   6.419   1.180   4.565  3.6852  0.1232 -0.3723
20114TIP3   OH281832   1.912   1.131  17.199 -0.3061  0.4293  0.2625
20114TIP3    H181833   1.987   1.183  17.226  0.2526 -0.9572  1.4640
20114TIP3    H281834   1.864   1.113  17.281 -2.0849  1.5025 -0.5056
20115TIP3   OH281835   0.591   3.356   5.166  0.2272 -0.4030 -0.0756
20115TIP3    H181836   0.602   3.333   5.258  2.1872  1.4728  0.2131
20115TIP3    H281837   0.575   3.450   5.167 -0.7643 -0.5500 -1.5873
20116TIP3   OH281838   6.679   4.672  13.779 -0.1446 -0.8231 -0.0786
20116TIP3    H181839   6.686   4.684  13.874  2.4317 -1.4971 -0.1644
20116TIP3    H281840   6.662   4.579  13.768  0.1771 -0.8515 -0.3168
20117TIP3   OH281841   6.438   2.456   6.281  0.0315  0.1800  0.0663
20117TIP3    H181842   6.429   2.547   6.310  0.5271  0.1828  0.2215
20117TIP3    H281843   6.348   2.425   6.273 -0.1309  0.4655  0.7101
20118TIP3   OH281844   2.345   5.548  16.922 -0.3257  0.0513  0.3032
20118TIP3    H181845   2.371   5.539  16.830 -0.3973  1.2687  0.1460
20118TIP3    H281846   2.338   5.459  16.954  0.6635 -0.3698 -0.6115
20119TIP3   OH281847   4.552   6.805  10.872  0.0144 -0.0203  0.5823
20119TIP3    H181848   4.629   6.799  10.815  0.8085  0.3024  1.6013
20119TIP3    H281849   4.510   6.886  10.846 -0.4951 -0.6419 -0.5965
20120TIP3   OH281850   4.633   2.881  16.929 -0.7032  0.5848  0.9222
20120TIP3    H181851   4.690   2.932  16.988  0.1923  0.5534  0.1061
20120TIP3    H281852   4.560   2.940  16.911  0.0476  1.3937  0.4310
20121TIP3   OH281853   1.898   2.107  15.381  0.1445  0.0883  0.2349
20121TIP3    H181854   1.830   2.040  15.392  0.8030 -0.4052  1.2788
20121TIP3    H281855   1.972   2.061  15.343 -0.4974  0.8663 -2.0685
20122TIP3   OH281856   0.951   4.935  17.062 -0.3215  0.0162  0.1109
20122TIP3    H181857   0.925   4.975  17.145  0.3566  2.5737 -0.8749
20122TIP3    H281858   0.891   4.860  17.052 -0.5543 -0.1984  2.7696
20123TIP3   OH281859   1.391   0.997   5.427 -0.3721 -0.3045  0.0579
20123TIP3    H181860   1.474   1.035   5.398 -0.7126 -0.4171 -1.0999
20123TIP3    H281861   1.340   1.072   5.458  1.0992 -0.5212  3.2433
20124TIP3   OH281862   4.274   3.244  15.608  0.0016  0.6573  0.0062
20124TIP3    H181863   4.352   3.195  15.583  0.8908  1.6551  0.7670
20124TIP3    H281864   4.258   3.302  15.533 -1.4729 -1.2607 -1.2004
20125TIP3   OH281865   0.952   4.367   4.837 -0.1523  0.8459  0.5228
20125TIP3    H181866   0.921   4.402   4.754 -0.7688 -0.9493 -0.0319
20125TIP3    H281867   1.000   4.439   4.878  0.3947  1.6528 -1.5123
20126TIP3   OH281868   0.912   6.082   5.368 -0.4241 -0.4867  0.3200
20126TIP3    H181869   0.955   6.111   5.449 -0.5094  0.6565 -0.0336
20126TIP3    H281870   0.983   6.043   5.316  0.2678  1.6760 -0.3937
20127TIP3   OH281871   3.934   4.865  17.236 -0.3068  0.1439  0.2450
20127TIP3    H181872   3.955   4.869  17.143 -0.8420 -1.5041  0.0315
20127TIP3    H281873   3.994   4.799  17.271 -0.9391 -0.1454  0.8098
20128TIP3   OH281874   6.211   1.448  11.824 -0.6121 -0.1507 -0.0086
20128TIP3    H181875   6.240   1.534  11.854 -0.7427 -0.2055  0.2743
20128TIP3    H281876   6.248   1.386  11.887 -0.0866 -0.3475 -0.5126
20129TIP3   OH281877   6.267   1.236   2.404 -0.1707 -0.2389 -1.1787
20129TIP3    H181878   6.217   1.193   2.473  0.8426  1.0938  0.4354
20129TIP3    H281879   6.357   1.205   2.415  0.0080  0.0042 -1.8924
20130TIP3   OH281880   2.128   2.123   1.054 -0.2674  0.0113 -0.0905
20130TIP3    H181881   2.133   2.128   0.959  1.6416  0.9307  0.0183
20130TIP3    H281882   2.122   2.030   1.073 -1.0605 -0.1524 -1.1276
20131TIP3   OH281883   4.828   6.620  15.876  0.2811  0.3583 -0.4157
20131TIP3    H181884   4.780   6.560  15.933 -1.4803  1.2011 -0.9806
20131TIP3    H281885   4.857   6.691  15.934 -0.0398  0.3554 -0.2515
20132TIP3   OH281886   2.482   0.929  16.792 -0.0363 -0.0825  0.0095
20132TIP3    H181887   2.547   0.901  16.728  0.1565 -0.2365  0.2755
20132TIP3    H281888   2.426   0.990  16.744 -0.2144 -0.6106 -0.4594
20133TIP3   OH281889   6.312   2.576  13.074 -0.0881  0.0349  0.6140
20133TIP3    H181890   6.284   2.513  13.007 -1.4360  1.7566 -0.5072
20133TIP3    H281891   6.407   2.578  13.066 -0.0732 -1.3370  0.2007
20134TIP3   OH281892   3.826   4.403   2.290  0.2820  0.1061  0.4650
20134TIP3    H181893   3.920   4.391   2.276  0.1887  0.0470 -0.1082
20134TIP3    H281894   3.814   4.498   2.290  0.3859  0.1192  0.8263
20135TIP3   OH281895   0.696   5.254  13.917  0.2229 -0.1274  0.2117
20135TIP3    H181896   0.641   5.315  13.868  1.7850  2.2588  1.3326
20135TIP3    H281897   0.778   5.251  13.868  1.6861  2.0362  2.4006
20136TIP3   OH281898   4.021   4.420   4.433 -0.6592  0.3481 -0.2191
20136TIP3    H181899   4.053   4.510   4.443 -1.5463  0.7107 -0.5561
20136TIP3    H281900   3.942   4.417   4.487 -1.7383  0.3463 -1.7633
20137TIP3   OH281901   5.487   5.363   1.211 -0.3036  0.1062 -0.3418
20137TIP3    H181902   5.407   5.343   1.260  1.0599  1.4820  2.5563
20137TIP3    H281903   5.461   5.433   1.150 -1.4362  0.1331  0.1590
20138TIP3   OH281904   0.625   6.153  17.040  0.2312 -0.0485  0.1413
20138TIP3    H181905   0.676   6.219  16.993 -0.5413  0.4631  0.0167
20138TIP3    H281906   0.640   6.171  17.132  0.8658 -0.3565  0.0982
20139TIP3   OH281907   5.651   4.622  14.336  0.2967  0.4890  0.9001
20139TIP3    H181908   5.708   4.557  14.376  0.5455  0.2633  0.1915
20139TIP3    H281909   5.708   4.671  14.277 -0.4229 -0.4060 -0.5931
20140TIP3   OH281910   1.164   4.537  11.702  0.0968  0.2544  0.6249
20140TIP3    H181911   1.071   4.546  11.723 -0.4670 -1.1782 -1.1440
20140TIP3    H281912   1.204   4.506  11.783 -1.0397  0.4204  1.2641
20141TIP3   OH281913   1.615   6.432  10.909  0.0795  0.0467 -0.1760
20141TIP3    H181914   1.602   6.470  10.822 -0.7777 -0.5346 -0.3141
20141TIP3    H281915   1.527   6.403  10.935  0.6251 -1.4179  0.1089
20142TIP3   OH281916   2.754   2.304   3.692 -0.3137 -0.2165  0.4652
20142TIP3    H181917   2.762   2.399   3.690 -0.3541 -0.2167  0.1775
20142TIP3    H281918   2.660   2.287   3.688 -0.2542 -0.2882 -1.1792
20143TIP3   OH281919   4.696   0.337   4.719 -0.0528 -0.3428  0.0816
20143TIP3    H181920   4.722   0.412   4.773  1.8754 -0.5321 -0.5417
20143TIP3    H281921   4.769   0.325   4.658 -0.7999 -2.0922 -0.4995
20144TIP3   OH281922   2.529   6.162   2.541 -0.1011 -0.3976  0.0712
20144TIP3    H181923   2.597   6.164   2.609  0.2244  0.4275 -0.2770
20144TIP3    H281924   2.572   6.122   2.465  0.1712  0.6448 -0.3326
20145TIP3   OH281925   2.722   6.539  12.868 -0.1348 -0.0703  0.2580
20145TIP3    H181926   2.813   6.553  12.840 -0.3073 -0.3246 -0.4220
20145TIP3    H281927   2.675   6.518  12.788 -0.4984 -1.4357  0.8219
20146TIP3   OH281928   4.552   1.887  14.209 -0.3715  0.0896 -0.1474
20146TIP3    H181929   4.590   1.948  14.272 -0.5554 -0.5819  0.6198
20146TIP3    H281930   4.554   1.935  14.125  1.4186  0.3460  0.0276
20147TIP3   OH281931   1.892   5.284  17.225  0.1446 -0.4466 -0.3354
20147TIP3    H181932   1.851   5.236  17.297  0.5113 -1.1132 -0.5620
20147TIP3    H281933   1.843   5.366  17.220  1.3378  0.4412  1.9136
20148TIP3   OH281934   0.568   4.331   5.099 -0.7248  0.0973  0.1815
20148TIP3    H181935   0.553   4.402   5.035 -1.7312  0.4017  0.7547
20148TIP3    H281936   0.538   4.252   5.054  0.2267  0.0426 -0.3898
20149TIP3   OH281937   4.298   4.866  14.983 -0.5364  0.0813  0.6200
20149TIP3    H181938   4.234   4.810  15.027 -0.8328  0.6197  0.8732
20149TIP3    H281939   4.383   4.833  15.011 -0.6696 -1.4993 -0.7623
20150TIP3   OH281940   2.384   6.645   1.171  0.0237 -0.4789  0.4047
20150TIP3    H181941   2.426   6.730   1.159 -0.6973  0.0489  1.5445
20150TIP3    H281942   2.434   6.604   1.241  1.9369 -2.0470 -1.8028
20151TIP3   OH281943   2.768   6.165  13.315 -0.0457 -0.4125 -0.6225
20151TIP3    H181944   2.767   6.198  13.225 -0.8710  0.5920 -0.2469
20151TIP3    H281945   2.685   6.120  13.325  0.6658 -1.8100 -0.8175
20152TIP3   OH281946   2.803   3.239  14.968  0.2867 -0.3802 -0.3210
20152TIP3    H181947   2.864   3.213  14.899  1.2941 -0.2307  0.5005
20152TIP3    H281948   2.769   3.157  15.003 -0.6017 -0.4498 -1.3045
20153TIP3   OH281949   5.044   6.671   0.884 -0.0043 -0.2749  0.0197
20153TIP3    H181950   5.098   6.614   0.829 -0.3358 -0.2477 -0.3310
20153TIP3    H281951   5.104   6.741   0.912  0.2062 -0.3830 -0.1606
20154TIP3   OH281952   0.440   4.883  10.482  0.0046 -0.0100  0.1456
20154TIP3    H181953   0.523   4.835  10.487 -0.3295 -0.5284  0.8615
20154TIP3    H281954   0.403   4.857  10.398  0.9538  0.8680 -0.5532
20155TIP3   OH281955   2.929   0.277   3.205  0.2538  0.5453 -0.0505
20155TIP3    H181956   2.943   0.339   3.277 -0.0899 -1.8188  2.1141
20155TIP3    H281957   2.834   0.269   3.198  0.3038 -0.9365  0.7724
20156TIP3   OH281958   0.693   2.745  12.334 -0.0336 -0.4060  0.9205
20156TIP3    H181959   0.733   2.710  12.255 -2.2512  0.3208 -0.5682
20156TIP3    H281960   0.655   2.669  12.378 -0.8170 -0.4958  0.0872
20157TIP3   OH281961   1.261   4.334   5.090 -0.1314 -1.1170 -0.1268
20157TIP3    H181962   1.236   4.264   5.030 -0.9318  0.0103 -1.1178
20157TIP3    H281963   1.354   4.319   5.106 -0.2240 -2.2228 -0.5843
20158TIP3   OH281964   4.402   0.713  11.887  0.3307 -0.0829 -0.8571
20158TIP3    H181965   4.440   0.735  11.802  1.0571 -1.5761 -0.9279
20158TIP3    H281966   4.461   0.754  11.951  0.1848  0.4189 -1.0389
20159TIP3   OH281967   2.961   0.885   4.078  0.0134  0.3384 -0.5617
20159TIP3    H181968   2.877   0.841   4.064  0.3215  0.0386 -1.5139
20159TIP3    H281969   2.976   0.878   4.172 -0.9035  0.1692 -0.4174
20160TIP3   OH281970   4.869   6.358  16.738  0.0731 -0.3455  0.2140
20160TIP3    H181971   4.845   6.326  16.651 -1.4748 -0.1205  0.5334
20160TIP3    H281972   4.963   6.372  16.734  0.1052 -0.9020 -1.2418
20161TIP3   OH281973   2.829   5.963  13.811 -0.2448 -1.0478 -0.3631
20161TIP3    H181974   2.832   5.973  13.716  1.2060  1.8038 -0.0659
20161TIP3    H281975   2.920   5.968  13.839 -0.7303 -1.0007  1.2444
20162TIP3   OH281976   5.642   6.819   0.026  0.1705 -0.3415  0.4219
20162TIP3    H181977   5.577   6.804   0.095 -0.6662  0.9516 -0.0729
20162TIP3    H281978   5.665   6.912   0.035 -0.2570 -0.0544 -1.3034
20163TIP3   OH281979   4.972   1.115  12.780  0.1172 -0.8405  0.1786
20163TIP3    H181980   4.971   1.068  12.864  2.6897 -2.4569 -0.6332
20163TIP3    H281981   4.951   1.047  12.716 -1.0212  0.2225 -0.5966
20164TIP3   OH281982   0.525   1.462   5.218  0.4269 -0.2631  0.1699
20164TIP3    H181983   0.576   1.543   5.209 -1.9979  1.1204 -1.7802
20164TIP3    H281984   0.493   1.463   5.308  0.3366  0.9881  0.1292
20165TIP3   OH281985   1.570   0.042  14.454  0.5256  0.5350  0.0932
20165TIP3    H181986   1.657   0.051  14.417  0.0921  0.7561 -0.8774
20165TIP3    H281987   1.577   0.078  14.542  1.2934  0.9766 -0.1504
20166TIP3   OH281988   0.887   1.851  11.490  0.0308  0.0772 -0.5137
20166TIP3    H181989   0.961   1.908  11.513 -1.2317  1.1069  1.1315
20166TIP3    H281990   0.876   1.862  11.396  0.3483  1.9182 -0.3522
20167TIP3   OH281991   6.465   1.423   5.740  0.2210 -0.1303 -0.1335
20167TIP3    H181992   6.487   1.339   5.699 -1.1741 -0.3618 -0.4217
20167TIP3    H281993   6.515   1.488   5.690 -1.2881 -0.4386 -2.0911
20168TIP3   OH281994   4.070   4.814  16.715  0.1201 -0.6352  0.7357
20168TIP3    H181995   4.143   4.752  16.716  1.2879  0.6725 -0.7550
20168TIP3    H281996   4.079   4.864  16.796 -0.0518 -1.5067  1.2965
20169TIP3   OH281997   5.542   3.036  10.522 -0.2429 -0.2340  0.3328
20169TIP3    H181998   5.584   3.100  10.464  1.0984 -1.9129 -0.6021
20169TIP3    H281999   5.592   3.042  10.604 -1.8143  1.7753  1.1820
20170TIP3   OH282000   5.873   4.694   3.535 -0.5785 -0.4366 -0.0005
20170TIP3    H182001   5.814   4.619   3.527 -2.1386  0.7963 -0.2331
20170TIP3    H282002   5.831   4.750   3.600 -0.7651  1.4559 -1.7225
20171TIP3   OH282003   3.988   1.454  12.385  0.2208 -0.3228  0.2053
20171TIP3    H182004   3.904   1.494  12.409  0.0128  0.2544 -1.4208
20171TIP3    H282005   4.002   1.386  12.450 -1.2185 -0.0206  0.8447
20172TIP3   OH282006   5.663   2.677  13.964 -0.3096 -0.2059 -0.1856
20172TIP3    H182007   5.744   2.632  13.989 -1.1732 -0.3271  2.5896
20172TIP3    H282008   5.615   2.613  13.912  0.6666 -0.6979 -0.4962
20173TIP3   OH282009   1.741   0.223   2.583  0.0275 -0.7469  1.0148
20173TIP3    H182010   1.738   0.245   2.676 -1.4873 -0.4505  0.9091
20173TIP3    H282011   1.655   0.185   2.564  0.3693 -0.9314 -0.2406
20174TIP3   OH282012   2.433   6.780   4.638  0.1812 -0.5441  0.2216
20174TIP3    H182013   2.374   6.769   4.712  0.4511 -1.3506  0.3191
20174TIP3    H282014   2.508   6.723   4.658  0.1527 -0.9432 -0.7752
20175TIP3   OH282015   1.004   5.842   0.902 -0.3843  0.2136  0.0834
20175TIP3    H182016   0.954   5.762   0.922  0.1596 -0.1261  0.0718
20175TIP3    H282017   0.941   5.898   0.856 -1.5037  0.7769  2.2048
20176TIP3   OH282018   1.154   3.686  13.647  0.0784  0.2314  0.3420
20176TIP3    H182019   1.245   3.708  13.626 -0.4515  1.5778 -0.6091
20176TIP3    H282020   1.102   3.751  13.600 -1.3292  0.3971  2.0664
20177TIP3   OH282021   3.986   2.174   0.999  0.0353 -0.1010 -0.0366
20177TIP3    H182022   4.050   2.107   0.977  2.7700  2.3284  0.1216
20177TIP3    H282023   3.984   2.232   0.923  0.2686  1.4507  1.0869
20178TIP3   OH282024   4.953   0.291  15.085 -0.3196 -0.4121  0.0913
20178TIP3    H182025   4.862   0.316  15.068 -0.4143  0.1022  1.2886
20178TIP3    H282026   4.950   0.249  15.171  0.3342 -1.7890 -0.5362
20179TIP3   OH282027   6.534   4.408  14.745  0.0148  0.4676 -0.1062
20179TIP3    H182028   6.547   4.330  14.799 -0.9202  0.2852 -0.1370
20179TIP3    H282029   6.500   4.375  14.662  0.4824  0.8308 -0.4427
20180TIP3   OH282030   1.205   4.166   1.642 -0.0981 -0.0150 -0.0688
20180TIP3    H182031   1.180   4.130   1.557 -0.9506  1.3021 -0.3836
20180TIP3    H282032   1.192   4.260   1.633  0.2331  0.1801  1.3855
20181TIP3   OH282033   3.262   2.597   5.260  0.1274 -0.2359 -0.4738
20181TIP3    H182034   3.322   2.664   5.292 -0.8572  0.8155 -0.7722
20181TIP3    H282035   3.287   2.517   5.306  1.7242  0.1849 -0.5761
20182TIP3   OH282036   4.611   4.121   1.230  0.2871 -0.3195  0.0240
20182TIP3    H182037   4.645   4.210   1.226  1.5796 -0.8118 -0.2005
20182TIP3    H282038   4.549   4.115   1.157  0.0618  0.4508  0.1525
20183TIP3   OH282039   0.511   5.126   5.270 -0.0393  0.1970 -0.0134
20183TIP3    H182040   0.498   5.042   5.226 -0.3723  0.4338 -0.3713
20183TIP3    H282041   0.528   5.103   5.361  0.7514 -0.3026 -0.2884
20184TIP3   OH282042   5.683   4.172   1.638  0.0625  0.4274 -0.6012
20184TIP3    H182043   5.600   4.149   1.596 -0.1667 -0.4212  0.2754
20184TIP3    H282044   5.659   4.186   1.730  1.1853 -1.7561  0.0588
20185TIP3   OH282045   0.094   1.098  15.519  0.4301  0.5128 -0.4154
20185TIP3    H182046   0.071   1.006  15.503  2.0540  0.0196 -0.0328
20185TIP3    H282047   0.180   1.108  15.478  0.8087  1.5242  0.6157
20186TIP3   OH282048   3.774   0.737  12.856 -0.3919  0.4378  0.2760
20186TIP3    H182049   3.685   0.709  12.836 -1.8101  1.8102  4.1199
20186TIP3    H282050   3.824   0.656  12.865 -1.9844 -0.4931  0.9776
20187TIP3   OH282051   5.150   3.694  14.716  0.5008 -0.0868  0.0294
20187TIP3    H182052   5.214   3.631  14.750 -0.1971 -0.3928  0.7864
20187TIP3    H282053   5.076   3.688  14.776 -1.0754 -1.1736 -1.9638
20188TIP3   OH282054   0.236   3.686  13.106 -0.3212 -0.3933  0.3660
20188TIP3    H182055   0.158   3.740  13.099 -0.4498 -0.6196  0.0766
20188TIP3    H282056   0.239   3.636  13.025  0.7795  0.4998 -0.1692
20189TIP3   OH282057   6.274   3.063   0.439 -0.1585  0.1990 -0.4033
20189TIP3    H182058   6.252   3.125   0.508  0.1975  0.3493 -0.4245
20189TIP3    H282059   6.357   3.095   0.404 -0.9372  0.8245 -1.7189
20190TIP3   OH282060   0.988   5.957   3.186  0.1534  0.2544  0.2543
20190TIP3    H182061   0.898   5.987   3.174 -0.6115 -1.0020  2.5399
20190TIP3    H282062   1.035   6.033   3.221 -0.8035 -0.0193  2.1597
20191TIP3   OH282063   6.394   0.742  16.216  0.4548  0.3728 -0.0089
20191TIP3    H182064   6.361   0.672  16.272 -0.2164  0.9899  0.3794
20191TIP3    H282065   6.484   0.757  16.246  0.0209  0.8666  1.0823
20192TIP3   OH282066   2.322   0.553  16.247  0.0175  0.2778  0.3572
20192TIP3    H182067   2.390   0.604  16.203  0.2686  0.3326  0.8001
20192TIP3    H282068   2.276   0.508  16.176  0.3693  0.4201  0.0348
20193TIP3   OH282069   0.565   0.048   3.662 -0.0179 -0.5784 -0.2177
20193TIP3    H182070   0.550   0.142   3.665 -0.3452 -0.6749  1.9436
20193TIP3    H282071   0.560   0.026   3.569 -0.4433  1.4467 -0.7023
20194TIP3   OH282072   4.745   6.214  14.522  0.2187  0.3379 -0.3852
20194TIP3    H182073   4.788   6.181  14.600  1.1414  2.0569 -0.1432
20194TIP3    H282074   4.708   6.298  14.549  0.4497  0.8951 -1.7740
20195TIP3   OH282075   0.295   1.992  13.397  0.2499 -0.2360  0.6092
20195TIP3    H182076   0.331   1.980  13.309 -0.0439 -0.4304  0.5162
20195TIP3    H282077   0.287   2.087  13.406  0.3673 -0.2119  0.4603
20196TIP3   OH282078   3.540   5.344   2.810  0.0721  0.2387 -0.1338
20196TIP3    H182079   3.599   5.302   2.873 -0.1048 -1.9046 -1.3602
20196TIP3    H282080   3.595   5.362   2.734 -0.0073  1.6703  0.1394
20197TIP3   OH282081   6.566   3.095  16.747 -0.8449  0.1460  0.1851
20197TIP3    H182082   6.529   3.062  16.829  0.3380 -1.5709  0.0452
20197TIP3    H282083   6.535   3.034  16.680  0.2980  0.0396 -0.2566
20198TIP3   OH282084   0.646   1.160  13.895  0.2373  0.0612  0.1566
20198TIP3    H182085   0.707   1.090  13.872  0.5417  0.7433 -1.1598
20198TIP3    H282086   0.637   1.211  13.815 -0.1151  1.4247  1.0502
20199TIP3   OH282087   3.540   1.157  11.553  0.1831  0.2300  0.8333
20199TIP3    H182088   3.536   1.192  11.464  0.6586  0.5966  0.9502
20199TIP3    H282089   3.626   1.115  11.557  1.0338  2.0179  1.7719
20200TIP3   OH282090   1.158   2.592  14.656 -0.1666 -0.2277  0.1028
20200TIP3    H182091   1.139   2.526  14.723  0.0210  0.0155  0.3959
20200TIP3    H282092   1.143   2.546  14.573  0.4275 -0.7861  0.3007
20201TIP3   OH282093   2.371   1.860   4.789 -0.2723 -0.8209 -0.0637
20201TIP3    H182094   2.346   1.921   4.720 -1.7870 -0.1514  1.0292
20201TIP3    H282095   2.410   1.786   4.743  0.1000  0.2554 -1.5221
20202TIP3   OH282096   5.628   4.894   4.695  0.3668  0.4372  0.4354
20202TIP3    H182097   5.640   4.902   4.600  0.1647 -0.5532  0.3194
20202TIP3    H282098   5.656   4.804   4.715 -0.6486  0.2622  1.1377
20203TIP3   OH282099   6.514   3.680   2.287  0.0337  0.1563  0.4582
20203TIP3    H182100   6.589   3.669   2.345  0.2407  1.1664  0.3837
20203TIP3    H282101   6.461   3.748   2.329  0.2090  0.9292 -0.5457
20204TIP3   OH282102   1.763   2.141  13.928 -0.2158  0.4934  0.1257
20204TIP3    H182103   1.780   2.119  13.836 -1.8799 -2.7457  0.5294
20204TIP3    H282104   1.714   2.224  13.924  0.1641  0.6597 -1.8456
20205TIP3   OH282105   6.466   3.674  13.978 -0.2307  0.3536  0.2668
20205TIP3    H182106   6.439   3.590  14.015 -0.2907  0.5171  0.5961
20205TIP3    H282107   6.542   3.652  13.924 -0.6578 -0.0115 -0.1827
20206TIP3   OH282108   5.001   0.834   0.917  0.3751  0.2700 -0.3039
20206TIP3    H182109   5.059   0.883   0.858  0.4927 -1.2580 -1.4795
20206TIP3    H282110   4.917   0.831   0.871 -0.1741  1.0365  0.6456
20207TIP3   OH282111   3.782   1.576   3.986  0.1192 -0.1519 -0.0904
20207TIP3    H182112   3.873   1.579   4.016 -0.6651  0.1183  2.4357
20207TIP3    H282113   3.765   1.483   3.972  0.2429 -0.3988  1.2996
20208TIP3   OH282114   0.339   0.859   0.627 -0.1417 -0.1210  0.0308
20208TIP3    H182115   0.383   0.789   0.678  1.7926  0.6244 -0.5614
20208TIP3    H282116   0.300   0.915   0.694  0.2718 -0.5093  0.6139
20209TIP3   OH282117   1.464   0.140   3.914 -0.5085  0.4053 -0.1677
20209TIP3    H182118   1.492   0.098   3.996  0.7662 -0.9981 -1.2999
20209TIP3    H282119   1.423   0.222   3.942  1.0402  0.5350  1.7993
20210TIP3   OH282120   5.386   1.173   6.200  0.6562 -0.2215  0.8628
20210TIP3    H182121   5.469   1.137   6.167  0.2520 -0.1811 -0.2134
20210TIP3    H282122   5.386   1.152   6.293  0.8251 -2.2432  0.4157
20211TIP3   OH282123   4.783   5.319   0.187 -0.3286 -0.4808  0.3582
20211TIP3    H182124   4.765   5.227   0.205 -1.1365 -0.2767  0.5894
20211TIP3    H282125   4.700   5.363   0.201  0.7076  0.7053  3.0361
20212TIP3   OH282126   6.304   4.587  15.672  0.0785 -0.3629  0.5462
20212TIP3    H182127   6.242   4.608  15.602  0.4135  0.9901  0.6338
20212TIP3    H282128   6.281   4.647  15.743  1.7159  0.4204  0.4377
20213TIP3   OH282129   6.535   1.634   2.212  0.2236 -0.1338  0.3400
20213TIP3    H182130   6.551   1.725   2.239 -0.4363  0.7105 -1.9738
20213TIP3    H282131   6.442   1.619   2.232  0.3180 -0.2777  0.6674
20214TIP3   OH282132   4.999   1.934  16.862 -0.5009  0.0453  0.1858
20214TIP3    H182133   5.004   1.850  16.815 -0.6334 -0.2973  0.7736
20214TIP3    H282134   5.054   1.993  16.811 -0.6705 -0.3115 -0.4221
20215TIP3   OH282135   0.437   2.697  15.174 -0.6997  0.1197  0.2688
20215TIP3    H182136   0.509   2.660  15.123 -0.3631  0.4654  0.4935
20215TIP3    H282137   0.430   2.639  15.250 -1.0104 -0.2243 -0.0165
20216TIP3   OH282138   4.966   5.299   3.930  0.2266 -0.0331 -0.0668
20216TIP3    H182139   5.001   5.228   3.877 -0.5348  0.3691 -1.1220
20216TIP3    H282140   4.972   5.267   4.020 -0.8988 -1.7889 -0.5996
20217TIP3   OH282141   5.445   5.240   0.572 -0.1646 -0.3450  0.1686
20217TIP3    H182142   5.480   5.153   0.593 -1.1157 -0.7232  0.2122
20217TIP3    H282143   5.460   5.250   0.478  0.0994 -0.4805  0.1946
20218TIP3   OH282144   0.191   6.093  14.234  0.3121  0.2923 -0.3915
20218TIP3    H182145   0.201   6.037  14.311 -0.1477  2.4485  1.2768
20218TIP3    H282146   0.245   6.052  14.166  0.0633 -2.0836  0.8215
20219TIP3   OH282147   6.339   1.381   1.928  0.1402  0.2334  0.6055
20219TIP3    H182148   6.395   1.304   1.919 -0.7358 -0.6375  2.3275
20219TIP3    H282149   6.271   1.369   1.861  0.4893 -0.0651  0.3047
20220TIP3   OH282150   1.419   3.884   3.052 -0.2824  0.5724  0.0470
20220TIP3    H182151   1.419   3.810   3.112 -0.8669  0.4780 -0.0595
20220TIP3    H282152   1.465   3.953   3.098  2.4998 -0.6260 -0.8233
20221TIP3   OH282153   6.367   2.988  11.151 -0.5084 -0.4060  0.1366
20221TIP3    H182154   6.367   3.010  11.057 -1.0319 -1.3646 -0.0969
20221TIP3    H282155   6.424   3.054  11.191  0.4367 -0.5174 -0.9811
20222TIP3   OH282156   1.604   0.788  12.709 -0.1191  0.0068  0.2147
20222TIP3    H182157   1.576   0.736  12.634  0.4036  1.1421 -0.7874
20222TIP3    H282158   1.673   0.736  12.750  0.3931 -0.0965 -0.7723
20223TIP3   OH282159   3.935   3.238  15.245  0.0441 -0.0129  0.2437
20223TIP3    H182160   3.987   3.285  15.180 -1.6938  1.5253 -0.0747
20223TIP3    H282161   3.858   3.208  15.196 -0.5394 -0.1674  1.2366
20224TIP3   OH282162   3.948   5.392   1.755  0.6817 -0.6327 -0.3010
20224TIP3    H182163   3.989   5.317   1.713 -1.1368 -1.1885 -1.1277
20224TIP3    H282164   3.866   5.358   1.790  0.8670  0.4753  1.2518
20225TIP3   OH282165   4.898   4.898   5.360 -0.0254 -0.4625 -0.3034
20225TIP3    H182166   4.932   4.965   5.301  0.7795  0.6894  1.4236
20225TIP3    H282167   4.963   4.828   5.358  1.3633  0.7261  1.2006
20226TIP3   OH282168   3.262   3.901   2.407  0.4545  0.0369  0.2990
20226TIP3    H182169   3.322   3.967   2.441 -0.7039  1.1784  0.2057
20226TIP3    H282170   3.192   3.953   2.365 -1.0158 -1.2276  1.1361
20227TIP3   OH282171   2.616   0.785   5.758  0.1206  0.4159 -0.5406
20227TIP3    H182172   2.701   0.745   5.777  1.1570  2.0979 -1.5126
20227TIP3    H282173   2.585   0.816   5.843  0.5653 -0.0369 -0.2067
20228TIP3   OH282174   4.602   2.153   4.870 -0.3334 -0.5293  0.2054
20228TIP3    H182175   4.564   2.233   4.833  1.0489 -0.4243 -1.0612
20228TIP3    H282176   4.548   2.133   4.946 -1.3333  1.0271 -0.0771
20229TIP3   OH282177   5.475   6.048  11.948 -0.2712  0.1602  0.8554
20229TIP3    H182178   5.437   6.012  11.867  0.2391  2.1191 -0.3142
20229TIP3    H282179   5.412   6.025  12.016 -0.6358 -1.6694 -0.0764
20230TIP3   OH282180   5.397   2.223   6.413 -0.1054 -0.7289  0.1486
20230TIP3    H182181   5.338   2.199   6.485 -1.8338  4.6365  0.6981
20230TIP3    H282182   5.484   2.224   6.453 -0.5324 -1.5647  1.1388
20231TIP3   OH282183   2.108   3.875  14.979 -0.3670  0.3511  0.5725
20231TIP3    H182184   2.166   3.804  15.006  1.2904  0.9571 -1.3581
20231TIP3    H282185   2.166   3.941  14.942 -2.2681  1.0099 -1.3109
20232TIP3   OH282186   1.362   5.546  11.209 -0.3009 -0.4127  0.2154
20232TIP3    H182187   1.435   5.563  11.268  1.0856 -1.6393 -1.1109
20232TIP3    H282188   1.380   5.458  11.174 -3.0214 -1.2345  0.7727
20233TIP3   OH282189   3.845   3.088  14.222 -0.8143 -0.0983 -0.1148
20233TIP3    H182190   3.912   3.083  14.153  0.8888 -0.1350  1.4983
20233TIP3    H282191   3.810   2.999  14.227 -0.3945 -0.2856 -0.4170
20234TIP3   OH282192   4.186   2.256  17.248 -0.3135 -1.0540  0.0107
20234TIP3    H182193   4.185   2.161  17.238 -0.7905 -1.1667  1.0868
20234TIP3    H282194   4.256   2.285  17.190  0.3185 -2.1307  0.2187
20235TIP3   OH282195   4.716   4.297  13.116 -0.2299  0.0393 -0.4392
20235TIP3    H182196   4.744   4.258  13.199 -0.4294  0.1904 -0.3015
20235TIP3    H282197   4.783   4.270  13.053 -0.6376 -0.9706 -0.4503
20236TIP3   OH282198   1.292   1.315  10.719 -0.4915  0.2726 -0.2053
20236TIP3    H182199   1.328   1.380  10.779 -0.2634 -0.0849  0.0440
20236TIP3    H282200   1.215   1.281  10.764  0.0864 -0.5164  0.2120
20237TIP3   OH282201   3.264   0.952  17.026 -0.0999  0.0966  0.0167
20237TIP3    H182202   3.261   0.952  16.930 -1.0151  4.4591 -0.0535
20237TIP3    H282203   3.355   0.930  17.047  0.3725  0.0953 -1.8974
20238TIP3   OH282204   6.818   0.586  12.612 -0.3363 -0.4721  0.3213
20238TIP3    H182205   6.903   0.629  12.599 -0.4435 -0.3737 -0.0808
20238TIP3    H282206   6.796   0.552  12.525 -1.2755  0.5536  0.1415
20239TIP3   OH282207   4.732   5.967  11.755 -0.1210 -0.2077  0.1671
20239TIP3    H182208   4.682   5.981  11.835  0.9309 -0.0275  0.8107
20239TIP3    H282209   4.790   5.894  11.776 -1.1820 -1.4441 -1.0849
20240TIP3   OH282210   4.269   4.128   3.778  0.3923 -0.3245  0.0801
20240TIP3    H182211   4.182   4.166   3.785 -0.4474 -2.2916  0.8614
20240TIP3    H282212   4.315   4.158   3.856  0.3302  0.5311 -0.2167
20241TIP3   OH282213   3.761   4.200   0.657 -0.0724  0.4370  0.0729
20241TIP3    H182214   3.713   4.233   0.582 -1.0527  1.1132  0.9905
20241TIP3    H282215   3.694   4.170   0.718  0.7279 -0.7821  0.3803
20242TIP3   OH282216   0.425   1.765   2.374 -0.2017 -0.1118 -0.2839
20242TIP3    H182217   0.460   1.849   2.404 -1.0230  0.3453 -0.5910
20242TIP3    H282218   0.333   1.767   2.399 -0.6455 -0.1790 -1.8393
20243TIP3   OH282219   2.062   0.663   0.317  0.7276 -0.5396  0.1748
20243TIP3    H182220   2.106   0.724   0.377  0.5810  0.8196 -1.0619
20243TIP3    H282221   2.118   0.586   0.315  1.4823 -0.0154  0.9242
20244TIP3   OH282222   5.173   4.615  15.262  0.8486  0.1073 -0.1501
20244TIP3    H182223   5.268   4.607  15.250  1.0432  2.0298 -0.0645
20244TIP3    H282224   5.160   4.602  15.356  1.0201 -0.1981 -0.1673
20245TIP3   OH282225   5.639   0.025   2.016 -0.4491 -0.3470 -0.3366
20245TIP3    H182226   5.612   0.109   1.979  1.3061  0.3202 -0.1544
20245TIP3    H282227   5.633  -0.036   1.943  1.6312  0.6727 -1.4131
20246TIP3   OH282228   2.251   4.378  15.226  0.6748 -0.6136  0.0829
20246TIP3    H182229   2.313   4.405  15.158  0.4065 -2.1130 -0.7809
20246TIP3    H282230   2.237   4.457  15.278  2.9201 -0.1165 -0.0025
20247TIP3   OH282231   3.604   2.558  17.283 -0.7487 -0.6480  0.7422
20247TIP3    H182232   3.641   2.642  17.258 -0.3980 -0.7080  1.0426
20247TIP3    H282233   3.521   2.579  17.327 -0.4196 -0.4239  1.2643
20248TIP3   OH282234   2.774   3.480  13.235  0.0687 -0.1637 -0.8420
20248TIP3    H182235   2.751   3.485  13.142  0.3618  0.0799 -0.9019
20248TIP3    H282236   2.764   3.388  13.258 -2.4782  0.1661 -0.4849
20249TIP3   OH282237   4.673   3.249  12.707  0.6690  0.5338 -0.3224
20249TIP3    H182238   4.702   3.204  12.628  1.3011  1.1382 -0.4393
20249TIP3    H282239   4.747   3.242  12.767 -0.2337 -0.9180  0.6401
20250TIP3   OH282240   3.866   3.900   0.978 -0.3957  0.2950 -0.0907
20250TIP3    H182241   3.885   3.806   0.978  1.2585  0.6321 -0.5904
20250TIP3    H282242   3.770   3.904   0.977 -0.5151 -1.3921  1.3870
20251TIP3   OH282243   3.456   6.750  13.041 -0.3727  0.2446 -0.2502
20251TIP3    H182244   3.459   6.837  13.080 -0.8390  2.3954 -4.7458
20251TIP3    H282245   3.369   6.744  13.003  0.6231 -1.0167 -2.4262
20252TIP3   OH282246   0.782   5.882   0.552 -0.2839 -0.4917 -0.2631
20252TIP3    H182247   0.789   5.938   0.629 -2.1053 -0.0620 -0.3922
20252TIP3    H282248   0.793   5.941   0.478 -0.3813 -0.5992 -0.3639
20253TIP3   OH282249   4.113   4.011   2.051 -0.0088  0.4195  0.0594
20253TIP3    H182250   4.160   3.962   1.984  0.0528 -1.7131  1.6047
20253TIP3    H282251   4.031   4.037   2.010  0.3988 -0.1037 -1.1011
20254TIP3   OH282252   5.303   5.654  11.614 -0.4184  0.3006 -0.0042
20254TIP3    H182253   5.293   5.559  11.607  0.2150  0.1093  1.5347
20254TIP3    H282254   5.311   5.684  11.524  3.5722 -1.5608 -0.3820
20255TIP3   OH282255   6.380   4.554   1.347  0.6436  0.5385 -0.4394
20255TIP3    H182256   6.307   4.603   1.383  0.8109  1.7546 -1.6807
20255TIP3    H282257   6.340   4.476   1.308  0.3032 -0.0179  0.9864
20256TIP3   OH282258   4.263   2.993   1.707 -0.0465  0.3534 -0.0694
20256TIP3    H182259   4.324   3.008   1.635  0.7653  1.3969  0.8103
20256TIP3    H282260   4.253   2.898   1.711  1.8963  0.1527  0.0804
20257TIP3   OH282261   4.358   5.150   1.399  0.2036 -0.1167  0.5669
20257TIP3    H182262   4.296   5.214   1.436 -0.6892 -1.4765  1.4616
20257TIP3    H282263   4.308   5.105   1.332  0.4262 -0.7826  0.8507
20258TIP3   OH282264   6.058   4.399  12.706  0.0654 -0.0126 -0.1694
20258TIP3    H182265   6.053   4.429  12.797 -0.3908  1.4110 -0.6536
20258TIP3    H282266   5.999   4.324  12.703  0.4891 -0.4093  0.8253
20259TIP3   OH282267   3.333   1.942   5.213 -0.2300  0.1482  0.5253
20259TIP3    H182268   3.410   1.929   5.269 -0.4626  0.0661  0.8254
20259TIP3    H282269   3.268   1.881   5.247  0.4063 -1.6341 -1.3364
20260TIP3   OH282270   3.743   2.287  12.064 -0.2381  0.3372  0.3091
20260TIP3    H182271   3.682   2.246  12.003  0.8235  1.8946 -1.8569
20260TIP3    H282272   3.700   2.279  12.150 -1.2555 -2.8523 -0.4227
20261LIG     O182273   5.046   2.058  16.452 -0.1737 -0.1633  0.0153
20261LIG     O282274   4.669   1.869  16.653 -0.6819 -0.4937  0.1995
20261LIG     N182275   4.798   1.724  16.523 -0.1784  0.5647 -0.1527
20261LIG     N282276   5.109   1.769  16.355  0.0067  0.5110 -0.8484
20261LIG     N382277   4.847   1.964  16.540 -0.3112 -0.3676 -0.4552
20261LIG     N482278   4.973   1.596  16.413 -0.6829 -0.0125  0.2254
20261LIG     C182279   5.002   1.822  16.425  0.5068 -0.3591  0.1017
20261LIG     C282280   4.925   1.711  16.468 -0.2454  0.1986  0.4173
20261LIG     C382281   4.973   1.953  16.471  0.0835 -0.7853  0.1375
20261LIG     C482282   4.764   1.853  16.575 -0.8899 -0.1144  0.3291
20261LIG     C582283   5.074   1.637  16.344  0.1355 -0.2118  0.3786
20261LIG     C682284   4.718   1.609  16.572  0.2306  0.0857  0.0525
20261LIG     C782285   5.217   1.842  16.305 -0.3537  0.6787  0.0850
20261LIG     C882286   4.812   2.102  16.578  0.0916  0.1889  0.7788
20261LIG     H182287   5.149   1.576  16.294 -0.7698 -0.6774 -0.4300
20261LIG     H282288   4.754   1.511  16.532 -1.4221 -1.0077  1.1666
20261LIG     H382289   4.609   1.608  16.552  0.3718  1.7983 -0.8568
20261LIG     H482290   4.728   1.604  16.683  1.0599  0.2816 -0.0081
20261LIG     H582291   5.176   1.915  16.231 -0.9331  0.2871  0.0194
20261LIG     H682292   5.298   1.785  16.253 -0.6266 -0.5900  1.0423
20261LIG     H782293   5.252   1.896  16.395  2.5895 -1.8625  0.5355
20261LIG     H882294   4.884   2.144  16.652  0.6151  0.4572  0.1270
20261LIG     H982295   4.713   2.118  16.625 -0.8486 -3.4232  0.1739
20261LIG    H1082296   4.802   2.168  16.490  1.5222  2.1264  2.0324
   6.82013   6.82013  17.29240
